                               Psi4 1.3.2 release

  ==> Input File <==

--------------------------------------------------------------------------
import numpy as np

memory 64 GB

molecule test {
-1 1
C        -26.06300        1.34500        0.50400
N        -25.94100        2.53800        1.08300
O        -25.46700        0.36500        0.92600
H        -26.33000        3.25800        0.81800
C        -26.98200        1.21300       -0.69900
H        -27.34100        2.09200       -0.89700
H        -27.79464        0.52328       -0.47096
H        -26.43211        0.82515       -1.55649
C        -25.09700        2.69600        2.25900
H        -24.23200        2.29900        2.07100
C        -24.90700        4.19100        2.58300
C        -24.19600        4.91400        1.49100
H        -25.77600        4.60400        2.70500
H        -24.38200        4.27700        3.39500
H        -24.69400        4.79800        0.66700
H        -23.30700        4.53800        1.39800
C        -24.04100        6.40300        1.72600
O        -23.19800        6.98800        1.02400
O        -24.74800        6.98000        2.59000
C        -25.68100        1.98900        3.47200
N        -24.79400        1.53500        4.33100
O        -26.90300        1.91200        3.67500
H        -23.95900        1.44700        4.14600
C        -25.12100        1.13300        5.68200
H        -26.07900        1.20500        5.81900
C        -24.69200       -0.31700        5.93900
C        -25.41900       -1.29400        5.06300
H        -23.74200       -0.40200        5.76200
H        -24.87900       -0.54300        6.86400
H        -25.28300       -1.04200        4.13700
C        -24.95400       -2.74300        5.22400
H        -26.36400       -1.26200        5.28000
O        -25.03500       -3.48200        4.24300
O        -24.60200       -3.13200        6.36300
C        -24.42000        2.05400        6.65600
N        -25.18000        2.65700        7.55300
O        -23.21300        2.23500        6.59200
H        -26.01000        2.46700        7.67500
C        -24.69000        3.71900        8.44100
H        -23.74800        3.84000        8.24500
C        -25.45600        5.01300        8.19200
C        -24.97600        5.66500        6.91400
H        -26.40300        4.82000        8.10600
H        -25.30800        5.62600        8.92800
H        -24.86600        4.98800        6.22800
C        -25.97700        6.69100        6.41900
H        -24.13200        6.11300        7.07700
N        -25.39400        7.44600        5.32300
H        -26.77700        6.24400        6.10000
H        -26.20200        7.30300        7.13600
H        -25.43500        7.11200        4.53200
C        -24.80100        8.62500        5.47600
N        -24.24800        9.20100        4.45100
N        -24.74700        9.20300        6.66700
H        -24.36200        9.96600        6.75800
H        -25.09800        8.81400        7.34900
H        -24.26800        8.81900        3.68100
H        -23.86300        9.96400        4.54300
C        -24.72900        3.35200        9.91600
N        -23.61700        3.63000       10.61600
O        -25.71200        2.77800       10.38400
H        -22.93400        4.01900       10.26600
C        -23.41300        3.32300       12.02800
H        -24.21800        2.95400       12.42300
C        -22.31500        2.29400       12.20700
H        -21.54700        2.57500       11.68500
H        -22.64200        1.44000       11.88200
C        -21.84300        2.08300       13.61600
H        -21.13100        1.42400       13.60700
H        -21.50900        2.92700       13.95900
C        -22.90800        1.59100       14.57400
O        -23.84100        2.31300       14.92400
N        -22.74600        0.34200       15.03900
H        -22.06900       -0.12500       14.78900
H        -23.32000        0.00900       15.58600
C        -23.08200        4.64500       12.71900
N        -24.00200        5.09800       13.56500
O        -22.04500        5.28100       12.44300
H        -24.76000        4.71700       13.70700
H        -23.86467        5.92265       14.09528
}

set {
 basis          aug-cc-pv_dpd_z
 df_basis_scf   aug-cc-pv_dpd_z-jkfit
 scf_type       df
 freeze_core    true
 guess          sad
 reference      rhf
 damping_percentage 20.0
}

e, wfn = energy('pbe0', return_wfn=True)
--------------------------------------------------------------------------

    Molecular point group: c1

    Geometry (in Angstrom), charge = -1, multiplicity = 1:

       Center              X                  Y                   Z               Mass
    ------------   -----------------  -----------------  -----------------  -----------------
         C           -1.513287848094    -1.822857864187    -6.220672751053    12.000000000000
         N           -1.391287848094    -0.629857864187    -5.641672751053    14.003074004430
         O           -0.917287848094    -2.802857864187    -5.798672751053    15.994914619570
         H           -1.780287848094     0.090142135813    -5.906672751053     1.007825032230
         C           -2.432287848094    -1.954857864187    -7.423672751053    12.000000000000
         H           -2.791287848094    -1.075857864187    -7.621672751053     1.007825032230
         H           -3.244927848094    -2.644577864187    -7.195632751053     1.007825032230
         H           -1.882397848094    -2.342707864187    -8.281162751053     1.007825032230
         C           -0.547287848094    -0.471857864187    -4.465672751053    12.000000000000
         H            0.317712151906    -0.868857864187    -4.653672751053     1.007825032230
         C           -0.357287848094     1.023142135813    -4.141672751053    12.000000000000
         C            0.353712151906     1.746142135813    -5.233672751053    12.000000000000
         H           -1.226287848094     1.436142135813    -4.019672751053     1.007825032230
         H            0.167712151906     1.109142135813    -3.329672751053     1.007825032230
         H           -0.144287848094     1.630142135813    -6.057672751053     1.007825032230
         H            1.242712151906     1.370142135813    -5.326672751053     1.007825032230
         C            0.508712151906     3.235142135813    -4.998672751053    12.000000000000
         O            1.351712151906     3.820142135813    -5.700672751053    15.994914619570
         O           -0.198287848094     3.812142135813    -4.134672751053    15.994914619570
         C           -1.131287848094    -1.178857864187    -3.252672751053    12.000000000000
         N           -0.244287848094    -1.632857864187    -2.393672751053    14.003074004430
         O           -2.353287848094    -1.255857864187    -3.049672751053    15.994914619570
         H            0.590712151906    -1.720857864187    -2.578672751053     1.007825032230
         C           -0.571287848094    -2.034857864187    -1.042672751053    12.000000000000
         H           -1.529287848094    -1.962857864187    -0.905672751053     1.007825032230
         C           -0.142287848094    -3.484857864187    -0.785672751053    12.000000000000
         C           -0.869287848094    -4.461857864187    -1.661672751053    12.000000000000
         H            0.807712151906    -3.569857864187    -0.962672751053     1.007825032230
         H           -0.329287848094    -3.710857864187     0.139327248947     1.007825032230
         H           -0.733287848094    -4.209857864187    -2.587672751053     1.007825032230
         C           -0.404287848094    -5.910857864187    -1.500672751053    12.000000000000
         H           -1.814287848094    -4.429857864187    -1.444672751053     1.007825032230
         O           -0.485287848094    -6.649857864187    -2.481672751053    15.994914619570
         O           -0.052287848094    -6.299857864187    -0.361672751053    15.994914619570
         C            0.129712151906    -1.113857864187    -0.068672751053    12.000000000000
         N           -0.630287848094    -0.510857864187     0.828327248947    14.003074004430
         O            1.336712151906    -0.932857864187    -0.132672751053    15.994914619570
         H           -1.460287848094    -0.700857864187     0.950327248947     1.007825032230
         C           -0.140287848094     0.551142135813     1.716327248947    12.000000000000
         H            0.801712151906     0.672142135813     1.520327248947     1.007825032230
         C           -0.906287848094     1.845142135813     1.467327248947    12.000000000000
         C           -0.426287848094     2.497142135813     0.189327248947    12.000000000000
         H           -1.853287848094     1.652142135813     1.381327248947     1.007825032230
         H           -0.758287848094     2.458142135813     2.203327248947     1.007825032230
         H           -0.316287848094     1.820142135813    -0.496672751053     1.007825032230
         C           -1.427287848094     3.523142135813    -0.305672751053    12.000000000000
         H            0.417712151906     2.945142135813     0.352327248947     1.007825032230
         N           -0.844287848094     4.278142135813    -1.401672751053    14.003074004430
         H           -2.227287848094     3.076142135813    -0.624672751053     1.007825032230
         H           -1.652287848094     4.135142135813     0.411327248947     1.007825032230
         H           -0.885287848094     3.944142135813    -2.192672751053     1.007825032230
         C           -0.251287848094     5.457142135813    -1.248672751053    12.000000000000
         N            0.301712151906     6.033142135813    -2.273672751053    14.003074004430
         N           -0.197287848094     6.035142135813    -0.057672751053    14.003074004430
         H            0.187712151906     6.798142135813     0.033327248947     1.007825032230
         H           -0.548287848094     5.646142135813     0.624327248947     1.007825032230
         H            0.281712151906     5.651142135813    -3.043672751053     1.007825032230
         H            0.686712151906     6.796142135813    -2.181672751053     1.007825032230
         C           -0.179287848094     0.184142135813     3.191327248947    12.000000000000
         N            0.932712151906     0.462142135813     3.891327248947    14.003074004430
         O           -1.162287848094    -0.389857864187     3.659327248947    15.994914619570
         H            1.615712151906     0.851142135813     3.541327248947     1.007825032230
         C            1.136712151906     0.155142135813     5.303327248947    12.000000000000
         H            0.331712151906    -0.213857864187     5.698327248947     1.007825032230
         C            2.234712151906    -0.873857864187     5.482327248947    12.000000000000
         H            3.002712151906    -0.592857864187     4.960327248947     1.007825032230
         H            1.907712151906    -1.727857864187     5.157327248947     1.007825032230
         C            2.706712151906    -1.084857864187     6.891327248947    12.000000000000
         H            3.418712151906    -1.743857864187     6.882327248947     1.007825032230
         H            3.040712151906    -0.240857864187     7.234327248947     1.007825032230
         C            1.641712151906    -1.576857864187     7.849327248947    12.000000000000
         O            0.708712151906    -0.854857864187     8.199327248947    15.994914619570
         N            1.803712151906    -2.825857864187     8.314327248947    14.003074004430
         H            2.480712151906    -3.292857864187     8.064327248947     1.007825032230
         H            1.229712151906    -3.158857864187     8.861327248947     1.007825032230
         C            1.467712151906     1.477142135813     5.994327248947    12.000000000000
         N            0.547712151906     1.930142135813     6.840327248947    14.003074004430
         O            2.504712151906     2.113142135813     5.718327248947    15.994914619570
         H           -0.210287848094     1.549142135813     6.982327248947     1.007825032230
         H            0.685042151906     2.754792135813     7.370607248947     1.007825032230

  Charge       = -1
  Multiplicity = 1
  Basis Set: AUG-CC-PV_DPD_Z
    Blend: AUG-CC-PV_DPD_Z
  Basis Set: AUG-CC-PV_DPD_Z-JKFIT
    Blend: AUG-CC-PV_DPD_Z-JKFIT

    Orbital Energies [Eh]
    ---------------------

    Doubly Occupied:

       1A    -19.158031     2A    -19.157570     3A    -19.146396
       4A    -19.111787     5A    -19.085449     6A    -19.082951
       7A    -19.066555     8A    -19.044323     9A    -18.959387
      10A    -18.959035    11A    -14.428003    12A    -14.413623
      13A    -14.401735    14A    -14.379353    15A    -14.376427
      16A    -14.368029    17A    -14.351350    18A    -14.318922
      19A    -14.313027    20A    -10.382348    21A    -10.305615
      22A    -10.305084    23A    -10.292062    24A    -10.252145
      25A    -10.241140    26A    -10.234665    27A    -10.232215
      28A    -10.230274    29A    -10.223741    30A    -10.203641
      31A    -10.184050    32A    -10.182490    33A    -10.180473
      34A    -10.179313    35A    -10.173505    36A    -10.162204
      37A    -10.136778    38A    -10.117180    39A    -10.112937
      40A    -10.098863    41A    -10.072532    42A    -10.032895
      43A     -1.094446    44A     -1.042501    45A     -1.036594
      46A     -1.026924    47A     -1.006016    48A     -0.994689
      49A     -0.979608    50A     -0.978206    51A     -0.965456
      52A     -0.955436    53A     -0.948376    54A     -0.942416
      55A     -0.930725    56A     -0.916749    57A     -0.883390
      58A     -0.879734    59A     -0.864412    60A     -0.857112
      61A     -0.834123    62A     -0.822145    63A     -0.776327
      64A     -0.764452    65A     -0.754869    66A     -0.743730
      67A     -0.726015    68A     -0.716230    69A     -0.691362
      70A     -0.688209    71A     -0.678731    72A     -0.664489
      73A     -0.656257    74A     -0.638846    75A     -0.632589
      76A     -0.627205    77A     -0.612692    78A     -0.607054
      79A     -0.598130    80A     -0.587655    81A     -0.581863
      82A     -0.577458    83A     -0.573489    84A     -0.556584
      85A     -0.555444    86A     -0.553001    87A     -0.550658
      88A     -0.525215    89A     -0.520816    90A     -0.505516
      91A     -0.498933    92A     -0.493561    93A     -0.487866
      94A     -0.479578    95A     -0.466000    96A     -0.462017
      97A     -0.454801    98A     -0.451933    99A     -0.449193
     100A     -0.433666   101A     -0.423381   102A     -0.420587
     103A     -0.419163   104A     -0.414621   105A     -0.409035
     106A     -0.406547   107A     -0.399732   108A     -0.397587
     109A     -0.391190   110A     -0.388841   111A     -0.385662
     112A     -0.383168   113A     -0.375227   114A     -0.368378
     115A     -0.364250   116A     -0.360380   117A     -0.358200
     118A     -0.355262   119A     -0.349345   120A     -0.345438
     121A     -0.344678   122A     -0.343911   123A     -0.341777
     124A     -0.339317   125A     -0.333687   126A     -0.331330
     127A     -0.324449   128A     -0.320893   129A     -0.319132
     130A     -0.313156   131A     -0.308499   132A     -0.288271
     133A     -0.286163   134A     -0.276957   135A     -0.275123
     136A     -0.269157   137A     -0.265471   138A     -0.265427
     139A     -0.259417   140A     -0.253794   141A     -0.252461
     142A     -0.251206   143A     -0.236086   144A     -0.235482
     145A     -0.231715   146A     -0.227068   147A     -0.211685
     148A     -0.205054   149A     -0.197220   150A     -0.188716
     151A     -0.186082   152A     -0.170232   153A     -0.167174
     154A     -0.165898   155A     -0.157726   156A     -0.157247
     157A     -0.129428   158A     -0.062109   159A     -0.057082
     160A     -0.040186

  @DF-RKS Final Energy: -2141.83505983612758

   => Energetics <=

    Nuclear Repulsion Energy =           5130.8522146585619339
    One-Electron Energy =              -13163.0435160171673488
    Two-Electron Energy =                6108.6597793976761750
    DFT Exchange-Correlation Energy =    -218.3035378751979465
    Empirical Dispersion Energy =           0.0000000000000000
    VV10 Nonlocal Energy =                  0.0000000000000000
    Total Energy =                      -2141.8350598361271295

  Dipole Moment: [D]
     X:    -0.2852      Y:    33.5387      Z:    22.6285     Total:    40.4595

*** Psi4 exiting successfully. Buy a developer a beer!
