                               Psi4 1.3.2 release

  ==> Input File <==

--------------------------------------------------------------------------
import numpy as np
set {scf_type pk
basis cc-pvdz
d_convergence 10
gdma_switch   0
gdma_limit    0
gdma_origin   [ 0.0,  0.0,  0.0 ]
}
molecule test {
    units Angstrom
    -1 1
    --
    -1 1
    C               -0.865675094881754    -1.470347391101379    -1.267235366630312
    C               -1.106675094881754    -0.206347391101379    -2.016235366630312
    O               -1.557675094881754    -0.243347391101379    -3.171235366630313
    N               -0.785675094881754     0.912652608898621    -1.398235366630312
    H               -0.963675094881754     1.790652608898620    -1.858235366630313
    H               -0.427675094881754     0.881652608898621    -0.442235366630312
    H               -1.576675094881754    -2.207347391101379    -1.631235366630313
    H               -1.062675094881754    -1.333347391101379    -0.211235366630312
    H                0.178124905118246    -1.798169391101380    -1.381355366630312
    C                2.020324905118246     0.762652608898621     2.860764633369687
    C                1.034324905118246     0.197652608898621     1.889764633369687
    O                0.155324905118246     0.986652608898621     1.405764633369687
    O                1.100324905118246    -1.010347391101379     1.638764633369688
    H                1.543324905118246     0.705652608898621     3.841764633369687
    H                2.161324905118246     1.829652608898620     2.690764633369688
    H                2.970974905118246     0.218619608898621     2.962242633369687

}
e, wfn = energy('scf', return_wfn=True)
gdma(wfn)
dmavals = variable('DMA DISTRIBUTED MULTIPOLES')
charges = np.array(dmavals)
print(charges)
np.save('SSI-051GLN-089GLU-2-dimer.npy', np.array(charges))--------------------------------------------------------------------------

*** tstart() called on ds3
*** at Tue Apr 28 02:57:54 2020

   => Loading Basis Set <=

    Name: CC-PVDZ
    Role: ORBITAL
    Keyword: BASIS
    atoms 1-2, 10-11 entry C          line   138 file /theoryfs2/ds/metcalf/miniconda2/envs/tf2gpu/share/psi4/basis/cc-pvdz.gbs
    atoms 3, 12-13   entry O          line   198 file /theoryfs2/ds/metcalf/miniconda2/envs/tf2gpu/share/psi4/basis/cc-pvdz.gbs
    atoms 4          entry N          line   168 file /theoryfs2/ds/metcalf/miniconda2/envs/tf2gpu/share/psi4/basis/cc-pvdz.gbs
    atoms 5-9, 14-16 entry H          line    22 file /theoryfs2/ds/metcalf/miniconda2/envs/tf2gpu/share/psi4/basis/cc-pvdz.gbs

         ---------------------------------------------------------
                                   SCF
               by Justin Turney, Rob Parrish, Andy Simmonett
                          and Daniel G. A. Smith
                              RHF Reference
                        1 Threads,    500 MiB Core
         ---------------------------------------------------------

  ==> Geometry <==

    Molecular point group: c1
    Full point group: C1

    Geometry (in Angstrom), charge = -1, multiplicity = 1:

       Center              X                  Y                   Z               Mass
    ------------   -----------------  -----------------  -----------------  -----------------
         C           -0.865675094882    -1.470347391101    -1.267235366630    12.000000000000
         C           -1.106675094882    -0.206347391101    -2.016235366630    12.000000000000
         O           -1.557675094882    -0.243347391101    -3.171235366630    15.994914619570
         N           -0.785675094882     0.912652608899    -1.398235366630    14.003074004430
         H           -0.963675094882     1.790652608899    -1.858235366630     1.007825032230
         H           -0.427675094882     0.881652608899    -0.442235366630     1.007825032230
         H           -1.576675094882    -2.207347391101    -1.631235366630     1.007825032230
         H           -1.062675094882    -1.333347391101    -0.211235366630     1.007825032230
         H            0.178124905118    -1.798169391101    -1.381355366630     1.007825032230
         C            2.020324905118     0.762652608899     2.860764633370    12.000000000000
         C            1.034324905118     0.197652608899     1.889764633370    12.000000000000
         O            0.155324905118     0.986652608899     1.405764633370    15.994914619570
         O            1.100324905118    -1.010347391101     1.638764633370    15.994914619570
         H            1.543324905118     0.705652608899     3.841764633370     1.007825032230
         H            2.161324905118     1.829652608899     2.690764633370     1.007825032230
         H            2.970974905118     0.218619608899     2.962242633370     1.007825032230

  Running in c1 symmetry.

  Rotational constants: A =      0.16799  B =      0.02437  C =      0.02189 [cm^-1]
  Rotational constants: A =   5036.18327  B =    730.60707  C =    656.26634 [MHz]
  Nuclear repulsion =  354.241098383555936

  Charge       = -1
  Multiplicity = 1
  Electrons    = 64
  Nalpha       = 32
  Nbeta        = 32

  ==> Algorithm <==

  SCF Algorithm Type is PK.
  DIIS enabled.
  MOM disabled.
  Fractional occupation disabled.
  Guess Type is SAD.
  Energy threshold   = 1.00e-06
  Density threshold  = 1.00e-10
  Integral threshold = 0.00e+00

  ==> Primary Basis <==

  Basis Set: CC-PVDZ
    Blend: CC-PVDZ
    Number of shells: 72
    Number of basis function: 152
    Number of Cartesian functions: 160
    Spherical Harmonics?: true
    Max angular momentum: 2

  ==> Pre-Iterations <==

   -------------------------------------------------------
    Irrep   Nso     Nmo     Nalpha   Nbeta   Ndocc  Nsocc
   -------------------------------------------------------
     A        152     152       0       0       0       0
   -------------------------------------------------------
    Total     152     152      32      32      32       0
   -------------------------------------------------------

  ==> Integral Setup <==

  Using integral reordering PK algorithm.
  Sizing the integral batches needed.
  Building batch lookup table.
   Calculation information:
      Number of atoms:                  16
      Number of AO shells:              72
      Number of primitives:            216
      Number of atomic orbitals:       160
      Number of basis functions:       152

      Integral cutoff                 1.00e-12
      Number of threads:                 1

	Batch   1 pq = [       0,    9405] index = [             0,44231715] size =     44231715
	Batch   2 pq = [    9405,   11628] index = [      44231715,67611006] size =     23379291
  Task number: 7
  Buffer size: 11059200
  Buffer per thread: 2
  We computed 2757381 shell quartets total.
  Whereas there are 3454506 unique shell quartets.

  ==> DiskJK: Disk-Based J/K Matrices <==

    J tasked:                  Yes
    K tasked:                  Yes
    wK tasked:                  No
    Memory [MiB]:              375
    Schwarz Cutoff:          1E-12

    OpenMP threads:              1

  Minimum eigenvalue in the overlap matrix is 4.3085698888E-03.
  Using Symmetric Orthogonalization.

  SCF Guess: Superposition of Atomic Densities via on-the-fly atomic UHF.

  ==> Iterations <==

                        Total Energy        Delta E     RMS |[F,P]|

   @RHF iter SAD:  -433.53935266296645   -4.33539e+02   0.00000e+00
   @RHF iter   1:  -434.95818126972085   -1.41883e+00   5.38288e-03 DIIS
   @RHF iter   2:  -435.18845898435626   -2.30278e-01   3.11182e-03 DIIS
   @RHF iter   3:  -435.26640721394699   -7.79482e-02   4.77173e-04 DIIS
   @RHF iter   4:  -435.26968062398117   -3.27341e-03   1.86032e-04 DIIS
   @RHF iter   5:  -435.27024077137116   -5.60147e-04   3.75515e-05 DIIS
   @RHF iter   6:  -435.27026835414267   -2.75828e-05   1.95462e-05 DIIS
   @RHF iter   7:  -435.27027465612150   -6.30198e-06   5.17572e-06 DIIS
   @RHF iter   8:  -435.27027561971488   -9.63593e-07   2.21124e-06 DIIS
   @RHF iter   9:  -435.27027576450081   -1.44786e-07   8.37218e-07 DIIS
   @RHF iter  10:  -435.27027578530726   -2.08065e-08   2.14284e-07 DIIS
   @RHF iter  11:  -435.27027578653502   -1.22776e-09   7.36685e-08 DIIS
   @RHF iter  12:  -435.27027578661421   -7.91829e-11   2.97237e-08 DIIS
   @RHF iter  13:  -435.27027578663029   -1.60867e-11   6.43420e-09 DIIS
   @RHF iter  14:  -435.27027578663206   -1.76215e-12   2.15974e-09 DIIS
   @RHF iter  15:  -435.27027578663319   -1.13687e-12   7.12706e-10 DIIS
   @RHF iter  16:  -435.27027578663228    9.09495e-13   2.75750e-10 DIIS
   @RHF iter  17:  -435.27027578663200    2.84217e-13   1.00038e-10 DIIS
   @RHF iter  18:  -435.27027578663183    1.70530e-13   4.23182e-11 DIIS
  Energy and wave function converged.

  ==> Post-Iterations <==

    Orbital Energies [Eh]
    ---------------------

    Doubly Occupied:

       1A    -20.357691     2A    -20.294203     3A    -20.293447
       4A    -15.424490     5A    -11.197592     6A    -11.146931
       7A    -11.084891     8A    -11.069922     9A     -1.217340
      10A     -1.180940    11A     -1.069641    12A     -1.059891
      13A     -0.853203    14A     -0.823760    15A     -0.643057
      16A     -0.568869    17A     -0.530887    18A     -0.509786
      19A     -0.466798    20A     -0.438789    21A     -0.435364
      22A     -0.428962    23A     -0.418715    24A     -0.402066
      25A     -0.371377    26A     -0.369845    27A     -0.326326
      28A     -0.267878    29A     -0.253439    30A     -0.216654
      31A     -0.205654    32A     -0.197164

    Virtual:

      33A      0.329889    34A      0.338770    35A      0.342915
      36A      0.359482    37A      0.375318    38A      0.397510
      39A      0.407380    40A      0.441198    41A      0.460554
      42A      0.496411    43A      0.545795    44A      0.563861
      45A      0.601446    46A      0.666576    47A      0.705060
      48A      0.741226    49A      0.772890    50A      0.795709
      51A      0.804021    52A      0.842701    53A      0.870484
      54A      0.879782    55A      0.896596    56A      0.910562
      57A      0.936569    58A      0.965216    59A      0.994429
      60A      1.002845    61A      1.013110    62A      1.015787
      63A      1.033199    64A      1.047301    65A      1.064017
      66A      1.070703    67A      1.106229    68A      1.128653
      69A      1.162322    70A      1.185276    71A      1.200058
      72A      1.230565    73A      1.262693    74A      1.301319
      75A      1.323175    76A      1.355051    77A      1.414034
      78A      1.483009    79A      1.489157    80A      1.505997
      81A      1.510853    82A      1.529248    83A      1.553007
      84A      1.567920    85A      1.588615    86A      1.615705
      87A      1.626145    88A      1.653290    89A      1.679540
      90A      1.707635    91A      1.750317    92A      1.800923
      93A      1.819827    94A      1.827732    95A      1.841336
      96A      1.875613    97A      1.990522    98A      2.012098
      99A      2.022707   100A      2.042521   101A      2.055900
     102A      2.073782   103A      2.088075   104A      2.103323
     105A      2.126100   106A      2.148533   107A      2.164804
     108A      2.175836   109A      2.222356   110A      2.249331
     111A      2.290308   112A      2.324591   113A      2.352770
     114A      2.393075   115A      2.417995   116A      2.430961
     117A      2.445081   118A      2.537100   119A      2.562272
     120A      2.611179   121A      2.658010   122A      2.683633
     123A      2.690984   124A      2.722764   125A      2.728755
     126A      2.773477   127A      2.798307   128A      2.891305
     129A      2.894355   130A      2.913823   131A      2.958648
     132A      2.973227   133A      2.984781   134A      3.013189
     135A      3.143244   136A      3.213710   137A      3.236639
     138A      3.242839   139A      3.278419   140A      3.283389
     141A      3.326894   142A      3.485946   143A      3.591187
     144A      3.639912   145A      3.704699   146A      3.770862
     147A      3.824303   148A      3.994426   149A      4.028673
     150A      4.039768   151A      4.073482   152A      4.177287

    Final Occupation by Irrep:
              A
    DOCC [    32 ]

  @RHF Final Energy:  -435.27027578663183

   => Energetics <=

    Nuclear Repulsion Energy =            354.2410983835559364
    One-Electron Energy =               -1310.7716050804629049
    Two-Electron Energy =                 521.2602309102751406
    Total Energy =                       -435.2702757866318279

Computation Completed

Properties will be evaluated at   0.000000,   0.000000,   0.000000 [a0]

Properties computed using the SCF density matrix

  Nuclear Dipole Moment: [e a0]
     X:     2.6474      Y:     0.0780      Z:     3.7257

  Electronic Dipole Moment: [e a0]
     X:    -2.5258      Y:     0.4311      Z:    -3.8463

  Dipole Moment: [e a0]
     X:     0.1216      Y:     0.5090      Z:    -0.1207     Total:     0.5371

  Dipole Moment: [D]
     X:     0.3091      Y:     1.2939      Z:    -0.3067     Total:     1.3652

*** tstop() called on ds3 at Tue Apr 28 02:58:26 2020
Module time:
	user time   =      22.09 seconds =       0.37 minutes
	system time =      10.22 seconds =       0.17 minutes
	total time  =         32 seconds =       0.53 minutes
Total time:
	user time   =      22.09 seconds =       0.37 minutes
	system time =      10.22 seconds =       0.17 minutes
	total time  =         32 seconds =       0.53 minutes
                                     G D M A

                                 by Anthony Stone

                           version 2.2.06, 22 June 2011

               Distributed Multipoles from Gaussian wavefunctions

Starting at 2:58:26 on 28 Apr 2020

Using SCF density matrix from file ./SSI/SSI-051GLN-089GLU-2-dimer.test.15471.fchk

                         Distributed Multipole Analysis

Standard DMA

Positions and radii in angstrom
Multipole moments in atomic units, ea_0^k for rank k

C          x = -0.865675  y = -1.470347  z = -1.267235 angstrom
           Maximum rank =  0   Radius =  0.650 angstrom
                   Q00  =  -0.237712

C          x = -1.106675  y = -0.206347  z = -2.016235 angstrom
           Maximum rank =  0   Radius =  0.650 angstrom
                   Q00  =   0.837142

O          x = -1.557675  y = -0.243347  z = -3.171235 angstrom
           Maximum rank =  0   Radius =  0.650 angstrom
                   Q00  =  -0.874524

N          x = -0.785675  y =  0.912653  z = -1.398235 angstrom
           Maximum rank =  0   Radius =  0.650 angstrom
                   Q00  =  -0.548928

H          x = -0.963675  y =  1.790653  z = -1.858235 angstrom
           Maximum rank =  0   Radius =  0.325 angstrom
                   Q00  =   0.176572

H          x = -0.427675  y =  0.881653  z = -0.442235 angstrom
           Maximum rank =  0   Radius =  0.325 angstrom
                   Q00  =   0.304470

H          x = -1.576675  y = -2.207347  z = -1.631235 angstrom
           Maximum rank =  0   Radius =  0.325 angstrom
                   Q00  =   0.074974

H          x = -1.062675  y = -1.333347  z = -0.211235 angstrom
           Maximum rank =  0   Radius =  0.325 angstrom
                   Q00  =   0.124086

H          x =  0.178125  y = -1.798169  z = -1.381355 angstrom
           Maximum rank =  0   Radius =  0.325 angstrom
                   Q00  =   0.124927

C          x =  2.020325  y =  0.762653  z =  2.860765 angstrom
           Maximum rank =  0   Radius =  0.650 angstrom
                   Q00  =  -0.258393

C          x =  1.034325  y =  0.197653  z =  1.889765 angstrom
           Maximum rank =  0   Radius =  0.650 angstrom
                   Q00  =   0.924347

O          x =  0.155325  y =  0.986653  z =  1.405765 angstrom
           Maximum rank =  0   Radius =  0.650 angstrom
                   Q00  =  -0.978250

O          x =  1.100325  y = -1.010347  z =  1.638765 angstrom
           Maximum rank =  0   Radius =  0.650 angstrom
                   Q00  =  -0.876496

H          x =  1.543325  y =  0.705653  z =  3.841765 angstrom
           Maximum rank =  0   Radius =  0.325 angstrom
                   Q00  =   0.083882

H          x =  2.161325  y =  1.829653  z =  2.690765 angstrom
           Maximum rank =  0   Radius =  0.325 angstrom
                   Q00  =   0.061834

H          x =  2.970975  y =  0.218620  z =  2.962243 angstrom
           Maximum rank =  0   Radius =  0.325 angstrom
                   Q00  =   0.062070

Total multipoles referred to origin at
           x =   0.000000,  y =    0.000000,  z =    0.000000 angstrom
                   Q00  =  -1.000000

Finished at 2:58:26 on 28 Apr 2020

  DMA results are available in the Python driver through the
	  variable('DMA DISTRIBUTED MULTIPOLES')
  and
	  variable('DMA TOTAL MULTIPOLES')
  commands.

    Psi4 stopped on: Tuesday, 28 April 2020 02:58AM
    Psi4 wall time for execution: 0:00:32.25

*** Psi4 exiting successfully. Buy a developer a beer!
