                               Psi4 1.3.2 release

  ==> Input File <==

--------------------------------------------------------------------------
import numpy as np
set {scf_type pk
basis cc-pvdz
d_convergence 10
gdma_switch   0
gdma_limit    0
gdma_origin   [ 0.0,  0.0,  0.0 ]
}
molecule test {
    units Angstrom
    0 1
    --
    0 1
    C               -1.993661124096740     1.747826417205337     0.575864961908396
    C               -3.070661124096740     2.610826417205336     1.227864961908396
    H               -2.424661124096739     0.831826417205337     0.183864961908396
    H               -1.562661124096740     2.290826417205337    -0.265135038091604
    H               -1.195661124096739     1.510826417205337     1.278864961908396
    H               -3.869661124096740     2.779826417205337     0.506864961908396
    H               -3.496421124096740     2.101631417205337     2.105044961908396
    H               -2.660531124096739     3.590093417205337     1.515674961908396
    C                0.053338875903261    -1.147173582794663    -0.770135038091604
    C               -0.414661124096739    -1.986173582794663     0.419864961908396
    C                1.439338875903261    -0.563173582794663    -0.597135038091604
    O                1.797338875903260     0.401826417205337    -1.270135038091604
    N                2.244338875903261    -1.147173582794663     0.278864961908396
    H                0.081338875903261    -1.781173582794663    -1.657135038091603
    H               -0.649661124096739    -0.335173582794663    -0.949135038091604
    H               -0.663661124096739    -1.333173582794663     1.258864961908396
    H                0.372338875903261    -2.674173582794663     0.724864961908396
    H                3.159338875903261    -0.744173582794663     0.426864961908396
    H                1.946338875903260    -1.950173582794663     0.805864961908396
    H               -1.280881124096739    -2.608927582794663     0.151834961908396

}
e, wfn = energy('scf', return_wfn=True)
gdma(wfn)
dmavals = variable('DMA DISTRIBUTED MULTIPOLES')
charges = np.array(dmavals)
print(charges)
np.save('SSI-098VAL-101GLN-1-dimer.npy', np.array(charges))--------------------------------------------------------------------------

*** tstart() called on ds3
*** at Tue Apr 28 20:19:50 2020

   => Loading Basis Set <=

    Name: CC-PVDZ
    Role: ORBITAL
    Keyword: BASIS
    atoms 1-2, 9-11  entry C          line   138 file /theoryfs2/ds/metcalf/miniconda2/envs/tf2gpu/share/psi4/basis/cc-pvdz.gbs
    atoms 3-8, 14-20 entry H          line    22 file /theoryfs2/ds/metcalf/miniconda2/envs/tf2gpu/share/psi4/basis/cc-pvdz.gbs
    atoms 12         entry O          line   198 file /theoryfs2/ds/metcalf/miniconda2/envs/tf2gpu/share/psi4/basis/cc-pvdz.gbs
    atoms 13         entry N          line   168 file /theoryfs2/ds/metcalf/miniconda2/envs/tf2gpu/share/psi4/basis/cc-pvdz.gbs

         ---------------------------------------------------------
                                   SCF
               by Justin Turney, Rob Parrish, Andy Simmonett
                          and Daniel G. A. Smith
                              RHF Reference
                        1 Threads,    500 MiB Core
         ---------------------------------------------------------

  ==> Geometry <==

    Molecular point group: c1
    Full point group: C1

    Geometry (in Angstrom), charge = 0, multiplicity = 1:

       Center              X                  Y                   Z               Mass
    ------------   -----------------  -----------------  -----------------  -----------------
         C           -1.993661124097     1.747826417205     0.575864961908    12.000000000000
         C           -3.070661124097     2.610826417205     1.227864961908    12.000000000000
         H           -2.424661124097     0.831826417205     0.183864961908     1.007825032230
         H           -1.562661124097     2.290826417205    -0.265135038092     1.007825032230
         H           -1.195661124097     1.510826417205     1.278864961908     1.007825032230
         H           -3.869661124097     2.779826417205     0.506864961908     1.007825032230
         H           -3.496421124097     2.101631417205     2.105044961908     1.007825032230
         H           -2.660531124097     3.590093417205     1.515674961908     1.007825032230
         C            0.053338875903    -1.147173582795    -0.770135038092    12.000000000000
         C           -0.414661124097    -1.986173582795     0.419864961908    12.000000000000
         C            1.439338875903    -0.563173582795    -0.597135038092    12.000000000000
         O            1.797338875903     0.401826417205    -1.270135038092    15.994914619570
         N            2.244338875903    -1.147173582795     0.278864961908    14.003074004430
         H            0.081338875903    -1.781173582795    -1.657135038092     1.007825032230
         H           -0.649661124097    -0.335173582795    -0.949135038092     1.007825032230
         H           -0.663661124097    -1.333173582795     1.258864961908     1.007825032230
         H            0.372338875903    -2.674173582795     0.724864961908     1.007825032230
         H            3.159338875903    -0.744173582795     0.426864961908     1.007825032230
         H            1.946338875903    -1.950173582795     0.805864961908     1.007825032230
         H           -1.280881124097    -2.608927582795     0.151834961908     1.007825032230

  Running in c1 symmetry.

  Rotational constants: A =      0.10800  B =      0.02837  C =      0.02500 [cm^-1]
  Rotational constants: A =   3237.66522  B =    850.39082  C =    749.49897 [MHz]
  Nuclear repulsion =  300.010682211859432

  Charge       = 0
  Multiplicity = 1
  Electrons    = 58
  Nalpha       = 29
  Nbeta        = 29

  ==> Algorithm <==

  SCF Algorithm Type is PK.
  DIIS enabled.
  MOM disabled.
  Fractional occupation disabled.
  Guess Type is SAD.
  Energy threshold   = 1.00e-06
  Density threshold  = 1.00e-10
  Integral threshold = 0.00e+00

  ==> Primary Basis <==

  Basis Set: CC-PVDZ
    Blend: CC-PVDZ
    Number of shells: 81
    Number of basis function: 163
    Number of Cartesian functions: 170
    Spherical Harmonics?: true
    Max angular momentum: 2

  ==> Pre-Iterations <==

   -------------------------------------------------------
    Irrep   Nso     Nmo     Nalpha   Nbeta   Ndocc  Nsocc
   -------------------------------------------------------
     A        163     163       0       0       0       0
   -------------------------------------------------------
    Total     163     163      29      29      29       0
   -------------------------------------------------------

  ==> Integral Setup <==

  Using integral reordering PK algorithm.
  Sizing the integral batches needed.
  Building batch lookup table.
   Calculation information:
      Number of atoms:                  20
      Number of AO shells:              81
      Number of primitives:            219
      Number of atomic orbitals:       170
      Number of basis functions:       163

      Integral cutoff                 1.00e-12
      Number of threads:                 1

	Batch   1 pq = [       0,    9405] index = [             0,44231715] size =     44231715
	Batch   2 pq = [    9405,   13366] index = [      44231715,89331661] size =     45099946
  Task number: 9
  Buffer size: 11059200
  Buffer per thread: 2
  We computed 4657230 shell quartets total.
  Whereas there are 5516181 unique shell quartets.

  ==> DiskJK: Disk-Based J/K Matrices <==

    J tasked:                  Yes
    K tasked:                  Yes
    wK tasked:                  No
    Memory [MiB]:              375
    Schwarz Cutoff:          1E-12

    OpenMP threads:              1

  Minimum eigenvalue in the overlap matrix is 3.1508493164E-03.
  Using Symmetric Orthogonalization.

  SCF Guess: Superposition of Atomic Densities via on-the-fly atomic UHF.

  ==> Iterations <==

                        Total Energy        Delta E     RMS |[F,P]|

   @RHF iter SAD:  -325.01748113797180   -3.25017e+02   0.00000e+00
   @RHF iter   1:  -326.00449748284910   -9.87016e-01   4.10499e-03 DIIS
   @RHF iter   2:  -326.20263460343801   -1.98137e-01   2.22405e-03 DIIS
   @RHF iter   3:  -326.25409004843050   -5.14554e-02   4.79367e-04 DIIS
   @RHF iter   4:  -326.25777272492843   -3.68268e-03   2.03216e-04 DIIS
   @RHF iter   5:  -326.25843419365339   -6.61469e-04   2.97556e-05 DIIS
   @RHF iter   6:  -326.25846616813300   -3.19745e-05   1.24602e-05 DIIS
   @RHF iter   7:  -326.25847052626830   -4.35814e-06   5.26208e-06 DIIS
   @RHF iter   8:  -326.25847158411892   -1.05785e-06   1.91707e-06 DIIS
   @RHF iter   9:  -326.25847173412774   -1.50009e-07   4.11452e-07 DIIS
   @RHF iter  10:  -326.25847173957334   -5.44560e-09   1.33046e-07 DIIS
   @RHF iter  11:  -326.25847174005264   -4.79304e-10   3.46906e-08 DIIS
   @RHF iter  12:  -326.25847174009078   -3.81419e-11   8.76342e-09 DIIS
   @RHF iter  13:  -326.25847174009488   -4.09273e-12   1.79787e-09 DIIS
   @RHF iter  14:  -326.25847174009454    3.41061e-13   6.91374e-10 DIIS
   @RHF iter  15:  -326.25847174009488   -3.41061e-13   2.78288e-10 DIIS
   @RHF iter  16:  -326.25847174009488    0.00000e+00   1.03370e-10 DIIS
   @RHF iter  17:  -326.25847174009584   -9.66338e-13   4.52225e-11 DIIS
  Energy and wave function converged.

  ==> Post-Iterations <==

    Orbital Energies [Eh]
    ---------------------

    Doubly Occupied:

       1A    -20.497686     2A    -15.585211     3A    -11.341410
       4A    -11.241683     5A    -11.239274     6A    -11.219286
       7A    -11.216550     8A     -1.362823     9A     -1.215592
      10A     -1.055247    11A     -1.018986    12A     -0.896020
      13A     -0.838229    14A     -0.790091    15A     -0.738160
      16A     -0.648768    17A     -0.631500    18A     -0.599068
      19A     -0.597013    20A     -0.585906    21A     -0.559121
      22A     -0.542814    23A     -0.517368    24A     -0.502606
      25A     -0.497350    26A     -0.486463    27A     -0.484234
      28A     -0.401931    29A     -0.398966

    Virtual:

      30A      0.160660    31A      0.187619    32A      0.194573
      33A      0.211978    34A      0.221380    35A      0.225567
      36A      0.243198    37A      0.258803    38A      0.260180
      39A      0.282169    40A      0.287570    41A      0.299912
      42A      0.312715    43A      0.333717    44A      0.385264
      45A      0.400854    46A      0.421649    47A      0.478198
      48A      0.568751    49A      0.584548    50A      0.596338
      51A      0.603643    52A      0.610347    53A      0.641992
      54A      0.665711    55A      0.692632    56A      0.709161
      57A      0.721108    58A      0.733494    59A      0.742009
      60A      0.789163    61A      0.815645    62A      0.836167
      63A      0.856090    64A      0.862078    65A      0.882945
      66A      0.891964    67A      0.894356    68A      0.898094
      69A      0.903601    70A      0.912072    71A      0.915814
      72A      0.931460    73A      0.941374    74A      0.950880
      75A      0.969352    76A      0.999219    77A      1.021158
      78A      1.059274    79A      1.091312    80A      1.112013
      81A      1.131143    82A      1.138908    83A      1.150035
      84A      1.233050    85A      1.292388    86A      1.304074
      87A      1.359223    88A      1.378420    89A      1.400052
      90A      1.419701    91A      1.445143    92A      1.472702
      93A      1.477750    94A      1.510475    95A      1.581764
      96A      1.596006    97A      1.666866    98A      1.674869
      99A      1.682335   100A      1.696297   101A      1.740870
     102A      1.751576   103A      1.815847   104A      1.843424
     105A      1.864529   106A      1.878578   107A      1.886987
     108A      1.898786   109A      1.901170   110A      1.921670
     111A      1.924415   112A      1.937824   113A      1.948521
     114A      1.949739   115A      1.954745   116A      1.959947
     117A      1.973048   118A      1.993138   119A      2.006722
     120A      2.020491   121A      2.031778   122A      2.055983
     123A      2.098493   124A      2.102265   125A      2.107419
     126A      2.178345   127A      2.239675   128A      2.306753
     129A      2.310670   130A      2.324071   131A      2.337620
     132A      2.378227   133A      2.423473   134A      2.454847
     135A      2.465449   136A      2.479660   137A      2.504526
     138A      2.553266   139A      2.562125   140A      2.569468
     141A      2.581994   142A      2.607546   143A      2.651983
     144A      2.731226   145A      2.758079   146A      2.766897
     147A      2.789428   148A      2.849779   149A      2.854702
     150A      2.865920   151A      2.889199   152A      2.900432
     153A      2.951470   154A      2.952222   155A      2.968893
     156A      3.020659   157A      3.098087   158A      3.143802
     159A      3.309489   160A      3.515478   161A      3.555418
     162A      3.870271   163A      3.909572

    Final Occupation by Irrep:
              A
    DOCC [    29 ]

  @RHF Final Energy:  -326.25847174009584

   => Energetics <=

    Nuclear Repulsion Energy =            300.0106822118594323
    One-Electron Energy =               -1037.1195979247145260
    Two-Electron Energy =                 410.8504439727593081
    Total Energy =                       -326.2584717400958425

Computation Completed

Properties will be evaluated at   0.000000,   0.000000,   0.000000 [a0]

Properties computed using the SCF density matrix

  Nuclear Dipole Moment: [e a0]
     X:   -11.4767      Y:     1.5784      Z:     5.6997

  Electronic Dipole Moment: [e a0]
     X:    11.2123      Y:    -2.8557      Z:    -4.6770

  Dipole Moment: [e a0]
     X:    -0.2644      Y:    -1.2773      Z:     1.0226     Total:     1.6575

  Dipole Moment: [D]
     X:    -0.6719      Y:    -3.2466      Z:     2.5993     Total:     4.2129

*** tstop() called on ds3 at Tue Apr 28 20:20:29 2020
Module time:
	user time   =      27.42 seconds =       0.46 minutes
	system time =      13.27 seconds =       0.22 minutes
	total time  =         39 seconds =       0.65 minutes
Total time:
	user time   =      27.42 seconds =       0.46 minutes
	system time =      13.27 seconds =       0.22 minutes
	total time  =         39 seconds =       0.65 minutes
                                     G D M A

                                 by Anthony Stone

                           version 2.2.06, 22 June 2011

               Distributed Multipoles from Gaussian wavefunctions

Starting at 20:20:29 on 28 Apr 2020

Using SCF density matrix from file ./SSI/SSI-098VAL-101GLN-1-dimer.test.21189.fchk

                         Distributed Multipole Analysis

Standard DMA

Positions and radii in angstrom
Multipole moments in atomic units, ea_0^k for rank k

C          x = -1.993661  y =  1.747826  z =  0.575865 angstrom
           Maximum rank =  0   Radius =  0.650 angstrom
                   Q00  =  -0.235862

C          x = -3.070661  y =  2.610826  z =  1.227865 angstrom
           Maximum rank =  0   Radius =  0.650 angstrom
                   Q00  =  -0.241616

H          x = -2.424661  y =  0.831826  z =  0.183865 angstrom
           Maximum rank =  0   Radius =  0.325 angstrom
                   Q00  =   0.070301

H          x = -1.562661  y =  2.290826  z = -0.265135 angstrom
           Maximum rank =  0   Radius =  0.325 angstrom
                   Q00  =   0.088615

H          x = -1.195661  y =  1.510826  z =  1.278865 angstrom
           Maximum rank =  0   Radius =  0.325 angstrom
                   Q00  =   0.079349

H          x = -3.869661  y =  2.779826  z =  0.506865 angstrom
           Maximum rank =  0   Radius =  0.325 angstrom
                   Q00  =   0.079850

H          x = -3.496421  y =  2.101631  z =  2.105045 angstrom
           Maximum rank =  0   Radius =  0.325 angstrom
                   Q00  =   0.076782

H          x = -2.660531  y =  3.590093  z =  1.515675 angstrom
           Maximum rank =  0   Radius =  0.325 angstrom
                   Q00  =   0.082635

C          x =  0.053339  y = -1.147174  z = -0.770135 angstrom
           Maximum rank =  0   Radius =  0.650 angstrom
                   Q00  =  -0.105577

C          x = -0.414661  y = -1.986174  z =  0.419865 angstrom
           Maximum rank =  0   Radius =  0.650 angstrom
                   Q00  =  -0.256873

C          x =  1.439339  y = -0.563174  z = -0.597135 angstrom
           Maximum rank =  0   Radius =  0.650 angstrom
                   Q00  =   0.823291

O          x =  1.797339  y =  0.401826  z = -1.270135 angstrom
           Maximum rank =  0   Radius =  0.650 angstrom
                   Q00  =  -0.796641

N          x =  2.244339  y = -1.147174  z =  0.278865 angstrom
           Maximum rank =  0   Radius =  0.650 angstrom
                   Q00  =  -0.542621

H          x =  0.081339  y = -1.781174  z = -1.657135 angstrom
           Maximum rank =  0   Radius =  0.325 angstrom
                   Q00  =   0.099853

H          x = -0.649661  y = -0.335174  z = -0.949135 angstrom
           Maximum rank =  0   Radius =  0.325 angstrom
                   Q00  =   0.103536

H          x = -0.663661  y = -1.333174  z =  1.258865 angstrom
           Maximum rank =  0   Radius =  0.325 angstrom
                   Q00  =   0.092521

H          x =  0.372339  y = -2.674174  z =  0.724865 angstrom
           Maximum rank =  0   Radius =  0.325 angstrom
                   Q00  =   0.052010

H          x =  3.159339  y = -0.744174  z =  0.426865 angstrom
           Maximum rank =  0   Radius =  0.325 angstrom
                   Q00  =   0.220131

H          x =  1.946339  y = -1.950174  z =  0.805865 angstrom
           Maximum rank =  0   Radius =  0.325 angstrom
                   Q00  =   0.207996

H          x = -1.280881  y = -2.608928  z =  0.151835 angstrom
           Maximum rank =  0   Radius =  0.325 angstrom
                   Q00  =   0.102320

Total multipoles referred to origin at
           x =   0.000000,  y =    0.000000,  z =    0.000000 angstrom
                   Q00  =  -0.000000

Finished at 20:20:29 on 28 Apr 2020

  DMA results are available in the Python driver through the
	  variable('DMA DISTRIBUTED MULTIPOLES')
  and
	  variable('DMA TOTAL MULTIPOLES')
  commands.

    Psi4 stopped on: Tuesday, 28 April 2020 08:20PM
    Psi4 wall time for execution: 0:00:39.96

*** Psi4 exiting successfully. Buy a developer a beer!
