                               Psi4 1.3.2 release

  ==> Input File <==

--------------------------------------------------------------------------
import numpy as np
set {scf_type pk
basis cc-pvdz
d_convergence 10
gdma_switch   0
gdma_limit    0
gdma_origin   [ 0.0,  0.0,  0.0 ]
}
molecule test {
    units Angstrom
    0 1
    --
    0 1
    C                2.600719239459234     0.575334269841761    -1.861866208839112
    C                2.929719239459234     0.398334269841761    -0.394866208839112
    O                2.882719239459233    -0.706665730158239     0.143133791160888
    N                3.277719239459234     1.484334269841761     0.275133791160888
    H                3.375719239459233     1.186334269841761    -2.321866208839112
    H                1.654719239459233     1.108334269841761    -1.925866208839112
    H                3.474719239459233     1.386334269841761     1.259133791160888
    H                3.381719239459233     2.388334269841761    -0.165866208839112
    H                2.520726239459234    -0.388175730158239    -2.386502208839112
    C               -3.055280760540767    -0.386665730158239    -1.851866208839112
    C               -0.350280760540767    -0.745665730158239     0.802133791160888
    C               -1.013280760540767    -0.794665730158239    -0.427866208839112
    C               -0.993280760540767    -0.219665730158239     1.920133791160888
    C               -2.314280760540766    -0.308665730158239    -0.548866208839112
    C               -2.299280760540767     0.247334269841761     1.807133791160888
    C               -2.956280760540767     0.196334269841761     0.580133791160888
    H                0.642719239459233    -1.148665730158239     0.890133791160888
    H               -0.510280760540767    -1.201665730158239    -1.289866208839112
    H               -0.492280760540767    -0.201665730158239     2.879133791160888
    H               -2.827280760540766     0.594334269841761     2.675133791160889
    H               -4.035280760540767     0.079334269841761    -1.732866208839112
    H               -3.226280760540766    -1.443665730158239    -2.068866208839112
    H               -3.979280760540767     0.523334269841761     0.521133791160888
    H               -2.548209760540766     0.068124269841761    -2.715606208839112

}
e, wfn = energy('scf', return_wfn=True)
gdma(wfn)
dmavals = variable('DMA DISTRIBUTED MULTIPOLES')
charges = np.array(dmavals)
print(charges)
np.save('SSI-067GLN-117PHE-1-dimer.npy', np.array(charges))--------------------------------------------------------------------------

*** tstart() called on ds3
*** at Mon Apr 27 06:41:16 2020

   => Loading Basis Set <=

    Name: CC-PVDZ
    Role: ORBITAL
    Keyword: BASIS
    atoms 1-2, 10-16 entry C          line   138 file /theoryfs2/ds/metcalf/miniconda2/envs/tf2gpu/share/psi4/basis/cc-pvdz.gbs
    atoms 3          entry O          line   198 file /theoryfs2/ds/metcalf/miniconda2/envs/tf2gpu/share/psi4/basis/cc-pvdz.gbs
    atoms 4          entry N          line   168 file /theoryfs2/ds/metcalf/miniconda2/envs/tf2gpu/share/psi4/basis/cc-pvdz.gbs
    atoms 5-9, 17-24 entry H          line    22 file /theoryfs2/ds/metcalf/miniconda2/envs/tf2gpu/share/psi4/basis/cc-pvdz.gbs

         ---------------------------------------------------------
                                   SCF
               by Justin Turney, Rob Parrish, Andy Simmonett
                          and Daniel G. A. Smith
                              RHF Reference
                        1 Threads,    500 MiB Core
         ---------------------------------------------------------

  ==> Geometry <==

    Molecular point group: c1
    Full point group: C1

    Geometry (in Angstrom), charge = 0, multiplicity = 1:

       Center              X                  Y                   Z               Mass
    ------------   -----------------  -----------------  -----------------  -----------------
         C            2.600719239459     0.575334269842    -1.861866208839    12.000000000000
         C            2.929719239459     0.398334269842    -0.394866208839    12.000000000000
         O            2.882719239459    -0.706665730158     0.143133791161    15.994914619570
         N            3.277719239459     1.484334269842     0.275133791161    14.003074004430
         H            3.375719239459     1.186334269842    -2.321866208839     1.007825032230
         H            1.654719239459     1.108334269842    -1.925866208839     1.007825032230
         H            3.474719239459     1.386334269842     1.259133791161     1.007825032230
         H            3.381719239459     2.388334269842    -0.165866208839     1.007825032230
         H            2.520726239459    -0.388175730158    -2.386502208839     1.007825032230
         C           -3.055280760541    -0.386665730158    -1.851866208839    12.000000000000
         C           -0.350280760541    -0.745665730158     0.802133791161    12.000000000000
         C           -1.013280760541    -0.794665730158    -0.427866208839    12.000000000000
         C           -0.993280760541    -0.219665730158     1.920133791161    12.000000000000
         C           -2.314280760541    -0.308665730158    -0.548866208839    12.000000000000
         C           -2.299280760541     0.247334269842     1.807133791161    12.000000000000
         C           -2.956280760541     0.196334269842     0.580133791161    12.000000000000
         H            0.642719239459    -1.148665730158     0.890133791161     1.007825032230
         H           -0.510280760541    -1.201665730158    -1.289866208839     1.007825032230
         H           -0.492280760541    -0.201665730158     2.879133791161     1.007825032230
         H           -2.827280760541     0.594334269842     2.675133791161     1.007825032230
         H           -4.035280760541     0.079334269842    -1.732866208839     1.007825032230
         H           -3.226280760541    -1.443665730158    -2.068866208839     1.007825032230
         H           -3.979280760541     0.523334269842     0.521133791161     1.007825032230
         H           -2.548209760541     0.068124269842    -2.715606208839     1.007825032230

  Running in c1 symmetry.

  Rotational constants: A =      0.05676  B =      0.01644  C =      0.01415 [cm^-1]
  Rotational constants: A =   1701.54855  B =    492.90674  C =    424.18366 [MHz]
  Nuclear repulsion =  557.752299977561165

  Charge       = 0
  Multiplicity = 1
  Electrons    = 82
  Nalpha       = 41
  Nbeta        = 41

  ==> Algorithm <==

  SCF Algorithm Type is PK.
  DIIS enabled.
  MOM disabled.
  Fractional occupation disabled.
  Guess Type is SAD.
  Energy threshold   = 1.00e-06
  Density threshold  = 1.00e-10
  Integral threshold = 0.00e+00

  ==> Primary Basis <==

  Basis Set: CC-PVDZ
    Blend: CC-PVDZ
    Number of shells: 105
    Number of basis function: 219
    Number of Cartesian functions: 230
    Spherical Harmonics?: true
    Max angular momentum: 2

  ==> Pre-Iterations <==

   -------------------------------------------------------
    Irrep   Nso     Nmo     Nalpha   Nbeta   Ndocc  Nsocc
   -------------------------------------------------------
     A        219     219       0       0       0       0
   -------------------------------------------------------
    Total     219     219      41      41      41       0
   -------------------------------------------------------

  ==> Integral Setup <==

  Using integral reordering PK algorithm.
  Sizing the integral batches needed.
  Building batch lookup table.
   Calculation information:
      Number of atoms:                  24
      Number of AO shells:             105
      Number of primitives:            307
      Number of atomic orbitals:       230
      Number of basis functions:       219

      Integral cutoff                 1.00e-12
      Number of threads:                 1

	Batch   1 pq = [       0,    9405] index = [             0,44231715] size =     44231715
	Batch   2 pq = [    9405,   13301] index = [      44231715,88464951] size =     44233236
	Batch   3 pq = [   13301,   16290] index = [      88464951,132690195] size =     44225244
	Batch   4 pq = [   16290,   18810] index = [     132690195,176917455] size =     44227260
	Batch   5 pq = [   18810,   21030] index = [     176917455,221140965] size =     44223510
	Batch   6 pq = [   21030,   23037] index = [     221140965,265363203] size =     44222238
	Batch   7 pq = [   23037,   24090] index = [     265363203,290176095] size =     24812892
  Task number: 27
  Buffer size: 11059200
  Buffer per thread: 2
  We computed 13357615 shell quartets total.
  Whereas there are 15487395 unique shell quartets.

  ==> DiskJK: Disk-Based J/K Matrices <==

    J tasked:                  Yes
    K tasked:                  Yes
    wK tasked:                  No
    Memory [MiB]:              375
    Schwarz Cutoff:          1E-12

    OpenMP threads:              1

  Minimum eigenvalue in the overlap matrix is 3.1210982287E-04.
  Using Symmetric Orthogonalization.

  SCF Guess: Superposition of Atomic Densities via on-the-fly atomic UHF.

  ==> Iterations <==

                        Total Energy        Delta E     RMS |[F,P]|

   @RHF iter SAD:  -476.46296181266376   -4.76463e+02   0.00000e+00
   @RHF iter   1:  -477.46258134884783   -9.99620e-01   3.19495e-03 DIIS
   @RHF iter   2:  -477.69666882274447   -2.34087e-01   1.67647e-03 DIIS
   @RHF iter   3:  -477.75031374255445   -5.36449e-02   3.88706e-04 DIIS
   @RHF iter   4:  -477.75449773402039   -4.18399e-03   1.55264e-04 DIIS
   @RHF iter   5:  -477.75517247862172   -6.74745e-04   2.33675e-05 DIIS
   @RHF iter   6:  -477.75520373460836   -3.12560e-05   1.05390e-05 DIIS
   @RHF iter   7:  -477.75520932821735   -5.59361e-06   3.91486e-06 DIIS
   @RHF iter   8:  -477.75521043431866   -1.10610e-06   1.44446e-06 DIIS
   @RHF iter   9:  -477.75521058642676   -1.52108e-07   5.00125e-07 DIIS
   @RHF iter  10:  -477.75521059904963   -1.26229e-08   1.87805e-07 DIIS
   @RHF iter  11:  -477.75521060155734   -2.50770e-09   6.31835e-08 DIIS
   @RHF iter  12:  -477.75521060184508   -2.87741e-10   2.76631e-08 DIIS
   @RHF iter  13:  -477.75521060193182   -8.67431e-11   1.31465e-08 DIIS
   @RHF iter  14:  -477.75521060196206   -3.02407e-11   4.63855e-09 DIIS
   @RHF iter  15:  -477.75521060196320   -1.13687e-12   1.64882e-09 DIIS
   @RHF iter  16:  -477.75521060196661   -3.41061e-12   5.67384e-10 DIIS
   @RHF iter  17:  -477.75521060196530    1.30740e-12   2.04502e-10 DIIS
   @RHF iter  18:  -477.75521060196297    2.33058e-12   6.82910e-11 DIIS
  Energy and wave function converged.

  ==> Post-Iterations <==

    Orbital Energies [Eh]
    ---------------------

    Doubly Occupied:

       1A    -20.506374     2A    -15.590582     3A    -11.350157
       4A    -11.242529     5A    -11.232972     6A    -11.226276
       7A    -11.224665     8A    -11.221161     9A    -11.220980
      10A    -11.220372    11A    -11.219334    12A     -1.370720
      13A     -1.219068    14A     -1.142892    15A     -1.036653
      16A     -1.002580    17A     -1.000896    18A     -0.923923
      19A     -0.815678    20A     -0.803427    21A     -0.786096
      22A     -0.727990    23A     -0.681957    24A     -0.656481
      25A     -0.623201    26A     -0.621528    27A     -0.615313
      28A     -0.574699    29A     -0.570521    30A     -0.568727
      31A     -0.559991    32A     -0.555362    33A     -0.528808
      34A     -0.524084    35A     -0.478279    36A     -0.474833
      37A     -0.471679    38A     -0.412612    39A     -0.405752
      40A     -0.321375    41A     -0.313330

    Virtual:

      42A      0.141363    43A      0.151362    44A      0.162453
      45A      0.188167    46A      0.200249    47A      0.206575
      48A      0.217072    49A      0.224917    50A      0.243183
      51A      0.253781    52A      0.261028    53A      0.269286
      54A      0.278182    55A      0.284048    56A      0.301480
      57A      0.328230    58A      0.372625    59A      0.377217
      60A      0.386664    61A      0.465172    62A      0.469401
      63A      0.476492    64A      0.486049    65A      0.515622
      66A      0.542439    67A      0.576178    68A      0.599366
      69A      0.625883    70A      0.631418    71A      0.652472
      72A      0.690777    73A      0.692946    74A      0.696039
      75A      0.707990    76A      0.720026    77A      0.726396
      78A      0.735140    79A      0.739372    80A      0.751653
      81A      0.753278    82A      0.762479    83A      0.766783
      84A      0.781483    85A      0.783637    86A      0.811830
      87A      0.833772    88A      0.847878    89A      0.863706
      90A      0.872080    91A      0.877542    92A      0.886082
      93A      0.894305    94A      0.904899    95A      0.912666
      96A      0.920735    97A      0.930197    98A      0.934164
      99A      0.941688   100A      0.949570   101A      0.975302
     102A      1.002962   103A      1.007510   104A      1.014115
     105A      1.044810   106A      1.059055   107A      1.067133
     108A      1.121846   109A      1.141226   110A      1.145175
     111A      1.161412   112A      1.169912   113A      1.177842
     114A      1.205009   115A      1.226509   116A      1.246817
     117A      1.263375   118A      1.274381   119A      1.306259
     120A      1.316209   121A      1.319554   122A      1.331079
     123A      1.335238   124A      1.350351   125A      1.385155
     126A      1.412177   127A      1.416271   128A      1.461055
     129A      1.485605   130A      1.500206   131A      1.536805
     132A      1.539152   133A      1.569071   134A      1.616857
     135A      1.655101   136A      1.661842   137A      1.679103
     138A      1.696213   139A      1.711916   140A      1.747598
     141A      1.752717   142A      1.776137   143A      1.800514
     144A      1.809341   145A      1.828430   146A      1.852712
     147A      1.870837   148A      1.879392   149A      1.897254
     150A      1.902925   151A      1.907794   152A      1.918680
     153A      1.927536   154A      1.934394   155A      1.941482
     156A      1.949335   157A      1.958151   158A      1.977546
     159A      1.980129   160A      1.989005   161A      1.994781
     162A      2.023820   163A      2.043194   164A      2.050110
     165A      2.075373   166A      2.085930   167A      2.094063
     168A      2.121552   169A      2.134636   170A      2.145986
     171A      2.168202   172A      2.175483   173A      2.188514
     174A      2.211038   175A      2.234458   176A      2.255629
     177A      2.259100   178A      2.287928   179A      2.301377
     180A      2.319602   181A      2.342499   182A      2.370271
     183A      2.429730   184A      2.448463   185A      2.453938
     186A      2.490847   187A      2.498485   188A      2.518355
     189A      2.547795   190A      2.570716   191A      2.577371
     192A      2.610951   193A      2.644133   194A      2.700761
     195A      2.737573   196A      2.754247   197A      2.770024
     198A      2.772903   199A      2.794652   200A      2.808214
     201A      2.835883   202A      2.853465   203A      2.869202
     204A      2.873045   205A      2.992871   206A      3.006735
     207A      3.024426   208A      3.042173   209A      3.097295
     210A      3.137365   211A      3.180625   212A      3.216031
     213A      3.267444   214A      3.318477   215A      3.514494
     216A      3.531205   217A      3.866336   218A      3.916062
     219A      3.981903

    Final Occupation by Irrep:
              A
    DOCC [    41 ]

  @RHF Final Energy:  -477.75521060196297

   => Energetics <=

    Nuclear Repulsion Energy =            557.7522999775611652
    One-Electron Energy =               -1754.9273143909706505
    Two-Electron Energy =                 719.4198038114463998
    Total Energy =                       -477.7552106019629719

Computation Completed

Properties will be evaluated at   0.000000,   0.000000,   0.000000 [a0]

Properties computed using the SCF density matrix

  Nuclear Dipole Moment: [e a0]
     X:    -2.4036      Y:     2.7584      Z:    -5.9836

  Electronic Dipole Moment: [e a0]
     X:     2.7247      Y:    -1.2018      Z:     5.4578

  Dipole Moment: [e a0]
     X:     0.3211      Y:     1.5566      Z:    -0.5259     Total:     1.6742

  Dipole Moment: [D]
     X:     0.8161      Y:     3.9566      Z:    -1.3366     Total:     4.2553

*** tstop() called on ds3 at Mon Apr 27 06:43:54 2020
Module time:
	user time   =     101.82 seconds =       1.70 minutes
	system time =      43.06 seconds =       0.72 minutes
	total time  =        158 seconds =       2.63 minutes
Total time:
	user time   =     101.82 seconds =       1.70 minutes
	system time =      43.06 seconds =       0.72 minutes
	total time  =        158 seconds =       2.63 minutes
                                     G D M A

                                 by Anthony Stone

                           version 2.2.06, 22 June 2011

               Distributed Multipoles from Gaussian wavefunctions

Starting at 6:43:54 on 27 Apr 2020

Using SCF density matrix from file ./SSI/SSI-067GLN-117PHE-1-dimer.test.31283.fchk

                         Distributed Multipole Analysis

Standard DMA

Positions and radii in angstrom
Multipole moments in atomic units, ea_0^k for rank k

C          x =  2.600719  y =  0.575334  z = -1.861866 angstrom
           Maximum rank =  0   Radius =  0.650 angstrom
                   Q00  =  -0.258117

C          x =  2.929719  y =  0.398334  z = -0.394866 angstrom
           Maximum rank =  0   Radius =  0.650 angstrom
                   Q00  =   0.826272

O          x =  2.882719  y = -0.706666  z =  0.143134 angstrom
           Maximum rank =  0   Radius =  0.650 angstrom
                   Q00  =  -0.797334

N          x =  3.277719  y =  1.484334  z =  0.275134 angstrom
           Maximum rank =  0   Radius =  0.650 angstrom
                   Q00  =  -0.530700

H          x =  3.375719  y =  1.186334  z = -2.321866 angstrom
           Maximum rank =  0   Radius =  0.325 angstrom
                   Q00  =   0.093982

H          x =  1.654719  y =  1.108334  z = -1.925866 angstrom
           Maximum rank =  0   Radius =  0.325 angstrom
                   Q00  =   0.119824

H          x =  3.474719  y =  1.386334  z =  1.259134 angstrom
           Maximum rank =  0   Radius =  0.325 angstrom
                   Q00  =   0.218514

H          x =  3.381719  y =  2.388334  z = -0.165866 angstrom
           Maximum rank =  0   Radius =  0.325 angstrom
                   Q00  =   0.208598

H          x =  2.520726  y = -0.388176  z = -2.386502 angstrom
           Maximum rank =  0   Radius =  0.325 angstrom
                   Q00  =   0.128776

C          x = -3.055281  y = -0.386666  z = -1.851866 angstrom
           Maximum rank =  0   Radius =  0.650 angstrom
                   Q00  =  -0.207539

C          x = -0.350281  y = -0.745666  z =  0.802134 angstrom
           Maximum rank =  0   Radius =  0.650 angstrom
                   Q00  =  -0.059495

C          x = -1.013281  y = -0.794666  z = -0.427866 angstrom
           Maximum rank =  0   Radius =  0.650 angstrom
                   Q00  =  -0.097425

C          x = -0.993281  y = -0.219666  z =  1.920134 angstrom
           Maximum rank =  0   Radius =  0.650 angstrom
                   Q00  =  -0.083530

C          x = -2.314281  y = -0.308666  z = -0.548866 angstrom
           Maximum rank =  0   Radius =  0.650 angstrom
                   Q00  =  -0.095256

C          x = -2.299281  y =  0.247334  z =  1.807134 angstrom
           Maximum rank =  0   Radius =  0.650 angstrom
                   Q00  =  -0.078562

C          x = -2.956281  y =  0.196334  z =  0.580134 angstrom
           Maximum rank =  0   Radius =  0.650 angstrom
                   Q00  =  -0.000121

H          x =  0.642719  y = -1.148666  z =  0.890134 angstrom
           Maximum rank =  0   Radius =  0.325 angstrom
                   Q00  =   0.096313

H          x = -0.510281  y = -1.201666  z = -1.289866 angstrom
           Maximum rank =  0   Radius =  0.325 angstrom
                   Q00  =   0.050636

H          x = -0.492281  y = -0.201666  z =  2.879134 angstrom
           Maximum rank =  0   Radius =  0.325 angstrom
                   Q00  =   0.057080

H          x = -2.827281  y =  0.594334  z =  2.675134 angstrom
           Maximum rank =  0   Radius =  0.325 angstrom
                   Q00  =   0.060893

H          x = -4.035281  y =  0.079334  z = -1.732866 angstrom
           Maximum rank =  0   Radius =  0.325 angstrom
                   Q00  =   0.094223

H          x = -3.226281  y = -1.443666  z = -2.068866 angstrom
           Maximum rank =  0   Radius =  0.325 angstrom
                   Q00  =   0.100889

H          x = -3.979281  y =  0.523334  z =  0.521134 angstrom
           Maximum rank =  0   Radius =  0.325 angstrom
                   Q00  =   0.053512

H          x = -2.548210  y =  0.068124  z = -2.715606 angstrom
           Maximum rank =  0   Radius =  0.325 angstrom
                   Q00  =   0.098564

Total multipoles referred to origin at
           x =   0.000000,  y =    0.000000,  z =    0.000000 angstrom
                   Q00  =  -0.000000

Finished at 6:43:54 on 27 Apr 2020

  DMA results are available in the Python driver through the
	  variable('DMA DISTRIBUTED MULTIPOLES')
  and
	  variable('DMA TOTAL MULTIPOLES')
  commands.

    Psi4 stopped on: Monday, 27 April 2020 06:43AM
    Psi4 wall time for execution: 0:02:38.94

*** Psi4 exiting successfully. Buy a developer a beer!
