                               Psi4 1.3.2 release

  ==> Input File <==

--------------------------------------------------------------------------
import numpy as np
set {scf_type pk
basis cc-pvdz
d_convergence 10
gdma_switch   0
gdma_limit    0
gdma_origin   [ 0.0,  0.0,  0.0 ]
}
molecule test {
    units Angstrom
    0 1
    --
    0 1
    C               -0.228325878159550     0.486473353300124    -1.817353957421204
    C               -0.326325878159550     0.554473353300124    -3.327353957421204
    H                0.792674121840450     0.282473353300124    -1.497353957421204
    H               -0.531325878159550     1.449473353300124    -1.402353957421204
    H               -0.904325878159550    -0.284526646699876    -1.453353957421204
    H                0.403674121840450     1.283473353300124    -3.679353957421204
    H               -1.314325878159549     0.930473353300124    -3.586353957421204
    H               -0.140875878159550    -0.403585646699876    -3.835024957421203
    C               -0.250325878159550    -0.010526646699876     1.651646042578796
    C                0.915674121840450     0.372473353300124     2.565646042578796
    C               -0.113325878159550    -1.408526646699876     1.042646042578796
    H               -1.174325878159550     0.018473353300124     2.230646042578796
    H               -0.335325878159550     0.731473353300124     0.859646042578796
    H                1.024674121840450    -0.406526646699876     3.321646042578796
    H               -0.983325878159550    -1.572526646699876     0.409646042578796
    H                0.749674121840450    -1.491526646699876     0.386646042578796
    H                0.702914121840451     1.322362353300124     3.077936042578796
    H                1.857024121840450     0.416340353300124     1.998246042578796
    H               -0.115495878159550    -2.208776646699876     1.797356042578796

}
e, wfn = energy('scf', return_wfn=True)
gdma(wfn)
dmavals = variable('DMA DISTRIBUTED MULTIPOLES')
charges = np.array(dmavals)
print(charges)
np.save('SSI-108ILE-146GLN-1-dimer.npy', np.array(charges))--------------------------------------------------------------------------

*** tstart() called on ds3
*** at Tue Apr 28 12:50:46 2020

   => Loading Basis Set <=

    Name: CC-PVDZ
    Role: ORBITAL
    Keyword: BASIS
    atoms 1-2, 9-11  entry C          line   138 file /theoryfs2/ds/metcalf/miniconda2/envs/tf2gpu/share/psi4/basis/cc-pvdz.gbs
    atoms 3-8, 12-19 entry H          line    22 file /theoryfs2/ds/metcalf/miniconda2/envs/tf2gpu/share/psi4/basis/cc-pvdz.gbs

         ---------------------------------------------------------
                                   SCF
               by Justin Turney, Rob Parrish, Andy Simmonett
                          and Daniel G. A. Smith
                              RHF Reference
                        1 Threads,    500 MiB Core
         ---------------------------------------------------------

  ==> Geometry <==

    Molecular point group: c1
    Full point group: C1

    Geometry (in Angstrom), charge = 0, multiplicity = 1:

       Center              X                  Y                   Z               Mass
    ------------   -----------------  -----------------  -----------------  -----------------
         C           -0.228325878160     0.486473353300    -1.817353957421    12.000000000000
         C           -0.326325878160     0.554473353300    -3.327353957421    12.000000000000
         H            0.792674121840     0.282473353300    -1.497353957421     1.007825032230
         H           -0.531325878160     1.449473353300    -1.402353957421     1.007825032230
         H           -0.904325878160    -0.284526646700    -1.453353957421     1.007825032230
         H            0.403674121840     1.283473353300    -3.679353957421     1.007825032230
         H           -1.314325878160     0.930473353300    -3.586353957421     1.007825032230
         H           -0.140875878160    -0.403585646700    -3.835024957421     1.007825032230
         C           -0.250325878160    -0.010526646700     1.651646042579    12.000000000000
         C            0.915674121840     0.372473353300     2.565646042579    12.000000000000
         C           -0.113325878160    -1.408526646700     1.042646042579    12.000000000000
         H           -1.174325878160     0.018473353300     2.230646042579     1.007825032230
         H           -0.335325878160     0.731473353300     0.859646042579     1.007825032230
         H            1.024674121840    -0.406526646700     3.321646042579     1.007825032230
         H           -0.983325878160    -1.572526646700     0.409646042579     1.007825032230
         H            0.749674121840    -1.491526646700     0.386646042579     1.007825032230
         H            0.702914121840     1.322362353300     3.077936042579     1.007825032230
         H            1.857024121840     0.416340353300     1.998246042579     1.007825032230
         H           -0.115495878160    -2.208776646700     1.797356042579     1.007825032230

  Running in c1 symmetry.

  Rotational constants: A =      0.28017  B =      0.04143  C =      0.03841 [cm^-1]
  Rotational constants: A =   8399.28912  B =   1242.01223  C =   1151.46806 [MHz]
  Nuclear repulsion =  181.354140146213297

  Charge       = 0
  Multiplicity = 1
  Electrons    = 44
  Nalpha       = 22
  Nbeta        = 22

  ==> Algorithm <==

  SCF Algorithm Type is PK.
  DIIS enabled.
  MOM disabled.
  Fractional occupation disabled.
  Guess Type is SAD.
  Energy threshold   = 1.00e-06
  Density threshold  = 1.00e-10
  Integral threshold = 0.00e+00

  ==> Primary Basis <==

  Basis Set: CC-PVDZ
    Blend: CC-PVDZ
    Number of shells: 72
    Number of basis function: 140
    Number of Cartesian functions: 145
    Spherical Harmonics?: true
    Max angular momentum: 2

  ==> Pre-Iterations <==

   -------------------------------------------------------
    Irrep   Nso     Nmo     Nalpha   Nbeta   Ndocc  Nsocc
   -------------------------------------------------------
     A        140     140       0       0       0       0
   -------------------------------------------------------
    Total     140     140      22      22      22       0
   -------------------------------------------------------

  ==> Integral Setup <==

  Using integral reordering PK algorithm.
  Sizing the integral batches needed.
  Building batch lookup table.
   Calculation information:
      Number of atoms:                  19
      Number of AO shells:              72
      Number of primitives:            180
      Number of atomic orbitals:       145
      Number of basis functions:       140

      Integral cutoff                 1.00e-12
      Number of threads:                 1

	Batch   1 pq = [       0,    9405] index = [             0,44231715] size =     44231715
	Batch   2 pq = [    9405,    9870] index = [      44231715,48713385] size =      4481670
  Task number: 5
  Buffer size: 11059200
  Buffer per thread: 2
  We computed 2986198 shell quartets total.
  Whereas there are 3454506 unique shell quartets.

  ==> DiskJK: Disk-Based J/K Matrices <==

    J tasked:                  Yes
    K tasked:                  Yes
    wK tasked:                  No
    Memory [MiB]:              375
    Schwarz Cutoff:          1E-12

    OpenMP threads:              1

  Minimum eigenvalue in the overlap matrix is 5.2978983449E-03.
  Using Symmetric Orthogonalization.

  SCF Guess: Superposition of Atomic Densities via on-the-fly atomic UHF.

  ==> Iterations <==

                        Total Energy        Delta E     RMS |[F,P]|

   @RHF iter SAD:  -196.42416374632319   -1.96424e+02   0.00000e+00
   @RHF iter   1:  -197.30693764846541   -8.82774e-01   3.81716e-03 DIIS
   @RHF iter   2:  -197.46884551178334   -1.61908e-01   1.63792e-03 DIIS
   @RHF iter   3:  -197.49721068791740   -2.83652e-02   3.27692e-04 DIIS
   @RHF iter   4:  -197.49945908452264   -2.24840e-03   4.82071e-05 DIIS
   @RHF iter   5:  -197.49949741967094   -3.83351e-05   1.47817e-05 DIIS
   @RHF iter   6:  -197.49950075055332   -3.33088e-06   2.49885e-06 DIIS
   @RHF iter   7:  -197.49950086232147   -1.11768e-07   4.89115e-07 DIIS
   @RHF iter   8:  -197.49950086749462   -5.17315e-09   1.25945e-07 DIIS
   @RHF iter   9:  -197.49950086783676   -3.42141e-10   4.19299e-08 DIIS
   @RHF iter  10:  -197.49950086787754   -4.07852e-11   8.85380e-09 DIIS
   @RHF iter  11:  -197.49950086787931   -1.76215e-12   1.61173e-09 DIIS
   @RHF iter  12:  -197.49950086788033   -1.02318e-12   3.11826e-10 DIIS
   @RHF iter  13:  -197.49950086787968    6.53699e-13   7.22836e-11 DIIS
  Energy and wave function converged.

  ==> Post-Iterations <==

    Orbital Energies [Eh]
    ---------------------

    Doubly Occupied:

       1A    -11.217860     2A    -11.216667     3A    -11.215814
       4A    -11.215590     5A    -11.214121     6A     -1.050707
       7A     -1.022917     8A     -0.923892     9A     -0.837250
      10A     -0.795351    11A     -0.623998    12A     -0.603626
      13A     -0.600260    14A     -0.590003    15A     -0.548342
      16A     -0.532447    17A     -0.505422    18A     -0.486025
      19A     -0.483325    20A     -0.470962    21A     -0.466002
      22A     -0.462498

    Virtual:

      23A      0.174558    24A      0.195037    25A      0.221372
      26A      0.225050    27A      0.231207    28A      0.250188
      29A      0.257804    30A      0.272079    31A      0.278586
      32A      0.282575    33A      0.298864    34A      0.311637
      35A      0.331359    36A      0.356816    37A      0.372642
      38A      0.413541    39A      0.427737    40A      0.572526
      41A      0.575836    42A      0.595913    43A      0.602132
      44A      0.609638    45A      0.620540    46A      0.631891
      47A      0.682033    48A      0.708760    49A      0.771674
      50A      0.785463    51A      0.840656    52A      0.850493
      53A      0.871297    54A      0.884286    55A      0.886764
      56A      0.893978    57A      0.896345    58A      0.902174
      59A      0.904117    60A      0.915094    61A      0.918704
      62A      0.926547    63A      0.943784    64A      0.957931
      65A      0.971914    66A      0.979659    67A      0.993561
      68A      1.042432    69A      1.121912    70A      1.129452
      71A      1.139537    72A      1.158157    73A      1.212145
      74A      1.272631    75A      1.386336    76A      1.463414
      77A      1.466208    78A      1.486213    79A      1.494860
      80A      1.514029    81A      1.597765    82A      1.651060
      83A      1.672744    84A      1.680678    85A      1.692119
      86A      1.694356    87A      1.717640    88A      1.856004
      89A      1.861965    90A      1.874805    91A      1.880553
      92A      1.895838    93A      1.903372    94A      1.921946
      95A      1.936675    96A      1.944400    97A      1.950163
      98A      1.955823    99A      1.960702   100A      1.964843
     101A      1.966707   102A      1.980206   103A      1.991525
     104A      2.008241   105A      2.039780   106A      2.069578
     107A      2.078933   108A      2.101225   109A      2.131839
     110A      2.135784   111A      2.161465   112A      2.298215
     113A      2.300520   114A      2.306510   115A      2.337308
     116A      2.344790   117A      2.394852   118A      2.453778
     119A      2.481573   120A      2.509599   121A      2.535739
     122A      2.558789   123A      2.586180   124A      2.598461
     125A      2.610847   126A      2.629533   127A      2.757953
     128A      2.769228   129A      2.776631   130A      2.788995
     131A      2.803341   132A      2.831705   133A      2.857962
     134A      2.868024   135A      2.920545   136A      2.959433
     137A      2.968768   138A      2.985736   139A      3.000899
     140A      3.071523

    Final Occupation by Irrep:
              A
    DOCC [    22 ]

  @RHF Final Energy:  -197.49950086787968

   => Energetics <=

    Nuclear Repulsion Energy =            181.3541401462132967
    One-Electron Energy =                -623.5411258467861444
    Two-Electron Energy =                 244.6874848326931726
    Total Energy =                       -197.4995008678796751

Computation Completed

Properties will be evaluated at   0.000000,   0.000000,   0.000000 [a0]

Properties computed using the SCF density matrix

  Nuclear Dipole Moment: [e a0]
     X:     0.0294      Y:     0.0629      Z:    -1.2862

  Electronic Dipole Moment: [e a0]
     X:    -0.0785      Y:    -0.0386      Z:     1.2550

  Dipole Moment: [e a0]
     X:    -0.0492      Y:     0.0242      Z:    -0.0312     Total:     0.0631

  Dipole Moment: [D]
     X:    -0.1250      Y:     0.0616      Z:    -0.0794     Total:     0.1604

*** tstop() called on ds3 at Tue Apr 28 12:51:07 2020
Module time:
	user time   =      15.54 seconds =       0.26 minutes
	system time =       5.83 seconds =       0.10 minutes
	total time  =         21 seconds =       0.35 minutes
Total time:
	user time   =      15.54 seconds =       0.26 minutes
	system time =       5.83 seconds =       0.10 minutes
	total time  =         21 seconds =       0.35 minutes
                                     G D M A

                                 by Anthony Stone

                           version 2.2.06, 22 June 2011

               Distributed Multipoles from Gaussian wavefunctions

Starting at 12:51:7 on 28 Apr 2020

Using SCF density matrix from file ./SSI/SSI-108ILE-146GLN-1-dimer.test.15495.fchk

                         Distributed Multipole Analysis

Standard DMA

Positions and radii in angstrom
Multipole moments in atomic units, ea_0^k for rank k

C          x = -0.228326  y =  0.486473  z = -1.817354 angstrom
           Maximum rank =  0   Radius =  0.650 angstrom
                   Q00  =  -0.235932

C          x = -0.326326  y =  0.554473  z = -3.327354 angstrom
           Maximum rank =  0   Radius =  0.650 angstrom
                   Q00  =  -0.228978

H          x =  0.792674  y =  0.282473  z = -1.497354 angstrom
           Maximum rank =  0   Radius =  0.325 angstrom
                   Q00  =   0.077521

H          x = -0.531326  y =  1.449473  z = -1.402354 angstrom
           Maximum rank =  0   Radius =  0.325 angstrom
                   Q00  =   0.075423

H          x = -0.904326  y = -0.284527  z = -1.453354 angstrom
           Maximum rank =  0   Radius =  0.325 angstrom
                   Q00  =   0.078569

H          x =  0.403674  y =  1.283473  z = -3.679354 angstrom
           Maximum rank =  0   Radius =  0.325 angstrom
                   Q00  =   0.075689

H          x = -1.314326  y =  0.930473  z = -3.586354 angstrom
           Maximum rank =  0   Radius =  0.325 angstrom
                   Q00  =   0.077916

H          x = -0.140876  y = -0.403586  z = -3.835025 angstrom
           Maximum rank =  0   Radius =  0.325 angstrom
                   Q00  =   0.081290

C          x = -0.250326  y = -0.010527  z =  1.651646 angstrom
           Maximum rank =  0   Radius =  0.650 angstrom
                   Q00  =  -0.069330

C          x =  0.915674  y =  0.372473  z =  2.565646 angstrom
           Maximum rank =  0   Radius =  0.650 angstrom
                   Q00  =  -0.237478

C          x = -0.113326  y = -1.408527  z =  1.042646 angstrom
           Maximum rank =  0   Radius =  0.650 angstrom
                   Q00  =  -0.264199

H          x = -1.174326  y =  0.018473  z =  2.230646 angstrom
           Maximum rank =  0   Radius =  0.325 angstrom
                   Q00  =   0.045834

H          x = -0.335326  y =  0.731473  z =  0.859646 angstrom
           Maximum rank =  0   Radius =  0.325 angstrom
                   Q00  =   0.054413

H          x =  1.024674  y = -0.406527  z =  3.321646 angstrom
           Maximum rank =  0   Radius =  0.325 angstrom
                   Q00  =   0.073140

H          x = -0.983326  y = -1.572527  z =  0.409646 angstrom
           Maximum rank =  0   Radius =  0.325 angstrom
                   Q00  =   0.078214

H          x =  0.749674  y = -1.491527  z =  0.386646 angstrom
           Maximum rank =  0   Radius =  0.325 angstrom
                   Q00  =   0.078955

H          x =  0.702914  y =  1.322362  z =  3.077936 angstrom
           Maximum rank =  0   Radius =  0.325 angstrom
                   Q00  =   0.083402

H          x =  1.857024  y =  0.416340  z =  1.998246 angstrom
           Maximum rank =  0   Radius =  0.325 angstrom
                   Q00  =   0.076186

H          x = -0.115496  y = -2.208777  z =  1.797356 angstrom
           Maximum rank =  0   Radius =  0.325 angstrom
                   Q00  =   0.079366

Total multipoles referred to origin at
           x =   0.000000,  y =    0.000000,  z =    0.000000 angstrom
                   Q00  =  -0.000000

Finished at 12:51:7 on 28 Apr 2020

  DMA results are available in the Python driver through the
	  variable('DMA DISTRIBUTED MULTIPOLES')
  and
	  variable('DMA TOTAL MULTIPOLES')
  commands.

    Psi4 stopped on: Tuesday, 28 April 2020 12:51PM
    Psi4 wall time for execution: 0:00:21.49

*** Psi4 exiting successfully. Buy a developer a beer!
