                               Psi4 1.3.2 release

  ==> Input File <==

--------------------------------------------------------------------------
import numpy as np
set {scf_type pk
basis cc-pvdz
d_convergence 10
gdma_switch   0
gdma_limit    0
gdma_origin   [ 0.0,  0.0,  0.0 ]
}
molecule test {
    units Angstrom
    -1 1
    --
    -1 1
    C                0.802601675307996    -1.448516217964666    -3.290050809343092
    C               -0.841398324692004    -1.412516217964667    -0.066050809343091
    C               -0.117398324692004    -1.588516217964667    -2.127050809343091
    C               -1.410398324692004    -1.991516217964667    -2.106050809343091
    N                0.220601675307996    -1.206516217964666    -0.845050809343092
    N               -1.855398324692004    -1.847516217964667    -0.821050809343091
    H               -0.906398324692004    -1.167516217964667     0.986949190656908
    H               -2.810398324692004    -1.949516217964667    -0.498050809343091
    H               -1.984398324692004    -2.307516217964667    -2.964050809343091
    H                1.513601675307996    -0.649516217964667    -3.086050809343091
    H                0.216601675307996    -1.145516217964667    -4.158050809343091
    H                1.344701675307996    -2.375946217964667    -3.526670809343091
    C                0.247601675307996     3.064483782035333     3.191949190656909
    C                0.778601675307996     2.155483782035334     2.094949190656908
    O                0.029601675307996     1.219483782035333     1.696949190656909
    O                1.948601675307996     2.354483782035333     1.663949190656909
    H                0.846601675307996     3.975483782035333     3.262949190656909
    H                0.345601675307996     2.548483782035333     4.150949190656909
    H               -0.812668324692004     3.323293782035333     3.054679190656909

}
e, wfn = energy('scf', return_wfn=True)
gdma(wfn)
dmavals = variable('DMA DISTRIBUTED MULTIPOLES')
charges = np.array(dmavals)
print(charges)
np.save('SSI-068HIE-080GLU-1-dimer.npy', np.array(charges))--------------------------------------------------------------------------

*** tstart() called on ds3
*** at Mon Apr 27 07:50:29 2020

   => Loading Basis Set <=

    Name: CC-PVDZ
    Role: ORBITAL
    Keyword: BASIS
    atoms 1-4, 13-14  entry C          line   138 file /theoryfs2/ds/metcalf/miniconda2/envs/tf2gpu/share/psi4/basis/cc-pvdz.gbs
    atoms 5-6         entry N          line   168 file /theoryfs2/ds/metcalf/miniconda2/envs/tf2gpu/share/psi4/basis/cc-pvdz.gbs
    atoms 7-12, 17-19 entry H          line    22 file /theoryfs2/ds/metcalf/miniconda2/envs/tf2gpu/share/psi4/basis/cc-pvdz.gbs
    atoms 15-16       entry O          line   198 file /theoryfs2/ds/metcalf/miniconda2/envs/tf2gpu/share/psi4/basis/cc-pvdz.gbs

         ---------------------------------------------------------
                                   SCF
               by Justin Turney, Rob Parrish, Andy Simmonett
                          and Daniel G. A. Smith
                              RHF Reference
                        1 Threads,    500 MiB Core
         ---------------------------------------------------------

  ==> Geometry <==

    Molecular point group: c1
    Full point group: C1

    Geometry (in Angstrom), charge = -1, multiplicity = 1:

       Center              X                  Y                   Z               Mass
    ------------   -----------------  -----------------  -----------------  -----------------
         C            0.802601675308    -1.448516217965    -3.290050809343    12.000000000000
         C           -0.841398324692    -1.412516217965    -0.066050809343    12.000000000000
         C           -0.117398324692    -1.588516217965    -2.127050809343    12.000000000000
         C           -1.410398324692    -1.991516217965    -2.106050809343    12.000000000000
         N            0.220601675308    -1.206516217965    -0.845050809343    14.003074004430
         N           -1.855398324692    -1.847516217965    -0.821050809343    14.003074004430
         H           -0.906398324692    -1.167516217965     0.986949190657     1.007825032230
         H           -2.810398324692    -1.949516217965    -0.498050809343     1.007825032230
         H           -1.984398324692    -2.307516217965    -2.964050809343     1.007825032230
         H            1.513601675308    -0.649516217965    -3.086050809343     1.007825032230
         H            0.216601675308    -1.145516217965    -4.158050809343     1.007825032230
         H            1.344701675308    -2.375946217965    -3.526670809343     1.007825032230
         C            0.247601675308     3.064483782035     3.191949190657    12.000000000000
         C            0.778601675308     2.155483782035     2.094949190657    12.000000000000
         O            0.029601675308     1.219483782035     1.696949190657    15.994914619570
         O            1.948601675308     2.354483782035     1.663949190657    15.994914619570
         H            0.846601675308     3.975483782035     3.262949190657     1.007825032230
         H            0.345601675308     2.548483782035     4.150949190657     1.007825032230
         H           -0.812668324692     3.323293782035     3.054679190657     1.007825032230

  Running in c1 symmetry.

  Rotational constants: A =      0.08902  B =      0.01476  C =      0.01301 [cm^-1]
  Rotational constants: A =   2668.84231  B =    442.54608  C =    390.14113 [MHz]
  Nuclear repulsion =  468.529214401813135

  Charge       = -1
  Multiplicity = 1
  Electrons    = 76
  Nalpha       = 38
  Nbeta        = 38

  ==> Algorithm <==

  SCF Algorithm Type is PK.
  DIIS enabled.
  MOM disabled.
  Fractional occupation disabled.
  Guess Type is SAD.
  Energy threshold   = 1.00e-06
  Density threshold  = 1.00e-10
  Integral threshold = 0.00e+00

  ==> Primary Basis <==

  Basis Set: CC-PVDZ
    Blend: CC-PVDZ
    Number of shells: 87
    Number of basis function: 185
    Number of Cartesian functions: 195
    Spherical Harmonics?: true
    Max angular momentum: 2

  ==> Pre-Iterations <==

   -------------------------------------------------------
    Irrep   Nso     Nmo     Nalpha   Nbeta   Ndocc  Nsocc
   -------------------------------------------------------
     A        185     185       0       0       0       0
   -------------------------------------------------------
    Total     185     185      38      38      38       0
   -------------------------------------------------------

  ==> Integral Setup <==

  Using integral reordering PK algorithm.
  Sizing the integral batches needed.
  Building batch lookup table.
   Calculation information:
      Number of atoms:                  19
      Number of AO shells:              87
      Number of primitives:            265
      Number of atomic orbitals:       195
      Number of basis functions:       185

      Integral cutoff                 1.00e-12
      Number of threads:                 1

	Batch   1 pq = [       0,    9405] index = [             0,44231715] size =     44231715
	Batch   2 pq = [    9405,   13301] index = [      44231715,88464951] size =     44233236
	Batch   3 pq = [   13301,   16290] index = [      88464951,132690195] size =     44225244
	Batch   4 pq = [   16290,   17205] index = [     132690195,148014615] size =     15324420
  Task number: 14
  Buffer size: 11059200
  Buffer per thread: 2
  We computed 4558027 shell quartets total.
  Whereas there are 7328706 unique shell quartets.

  ==> DiskJK: Disk-Based J/K Matrices <==

    J tasked:                  Yes
    K tasked:                  Yes
    wK tasked:                  No
    Memory [MiB]:              375
    Schwarz Cutoff:          1E-12

    OpenMP threads:              1

  Minimum eigenvalue in the overlap matrix is 1.2376236915E-03.
  Using Symmetric Orthogonalization.

  SCF Guess: Superposition of Atomic Densities via on-the-fly atomic UHF.

  ==> Iterations <==

                        Total Energy        Delta E     RMS |[F,P]|

   @RHF iter SAD:  -489.65981226086546   -4.89660e+02   0.00000e+00
   @RHF iter   1:  -490.77395630395563   -1.11414e+00   4.32770e-03 DIIS
   @RHF iter   2:  -491.01646347925151   -2.42507e-01   2.55879e-03 DIIS
   @RHF iter   3:  -491.10218747735604   -8.57240e-02   4.25287e-04 DIIS
   @RHF iter   4:  -491.10603208545979   -3.84461e-03   1.65219e-04 DIIS
   @RHF iter   5:  -491.10664291063694   -6.10825e-04   3.59329e-05 DIIS
   @RHF iter   6:  -491.10667574431864   -3.28337e-05   1.62364e-05 DIIS
   @RHF iter   7:  -491.10668213820304   -6.39388e-06   3.93875e-06 DIIS
   @RHF iter   8:  -491.10668296260741   -8.24404e-07   1.68656e-06 DIIS
   @RHF iter   9:  -491.10668311565649   -1.53049e-07   7.11138e-07 DIIS
   @RHF iter  10:  -491.10668314282498   -2.71685e-08   1.83007e-07 DIIS
   @RHF iter  11:  -491.10668314501032   -2.18535e-09   6.06612e-08 DIIS
   @RHF iter  12:  -491.10668314519540   -1.85082e-10   3.45694e-08 DIIS
   @RHF iter  13:  -491.10668314523821   -4.28031e-11   1.08046e-08 DIIS
   @RHF iter  14:  -491.10668314524304   -4.83169e-12   4.33398e-09 DIIS
   @RHF iter  15:  -491.10668314524162    1.42109e-12   1.76079e-09 DIIS
   @RHF iter  16:  -491.10668314524207   -4.54747e-13   7.73148e-10 DIIS
   @RHF iter  17:  -491.10668314524344   -1.36424e-12   3.29441e-10 DIIS
   @RHF iter  18:  -491.10668314524401   -5.68434e-13   9.98639e-11 DIIS
  Energy and wave function converged.

  ==> Post-Iterations <==

    Orbital Energies [Eh]
    ---------------------

    Doubly Occupied:

       1A    -20.252623     2A    -20.251729     3A    -15.508889
       4A    -15.408292     5A    -11.170424     6A    -11.140041
       7A    -11.131116     8A    -11.126485     9A    -11.112363
      10A    -11.047637    11A     -1.226786    12A     -1.132054
      13A     -1.039152    14A     -1.023092    15A     -0.923846
      16A     -0.837227    17A     -0.791805    18A     -0.704391
      19A     -0.647567    20A     -0.629638    21A     -0.500796
      22A     -0.497359    23A     -0.492977    24A     -0.482506
      25A     -0.453192    26A     -0.437297    27A     -0.415517
      28A     -0.403949    29A     -0.401361    30A     -0.392208
      31A     -0.333391    32A     -0.291958    33A     -0.289213
      34A     -0.263282    35A     -0.197060    36A     -0.173768
      37A     -0.164624    38A     -0.151949

    Virtual:

      39A      0.273291    40A      0.288165    41A      0.298422
      42A      0.327825    43A      0.341010    44A      0.355427
      45A      0.372530    46A      0.388310    47A      0.397343
      48A      0.399693    49A      0.419568    50A      0.474738
      51A      0.488808    52A      0.511728    53A      0.530463
      54A      0.578544    55A      0.588483    56A      0.595846
      57A      0.702153    58A      0.708457    59A      0.720116
      60A      0.731633    61A      0.755576    62A      0.767471
      63A      0.819468    64A      0.821855    65A      0.827835
      66A      0.842468    67A      0.867875    68A      0.878778
      69A      0.899178    70A      0.923039    71A      0.947341
      72A      0.954674    73A      0.956394    74A      0.973119
      75A      0.973671    76A      1.007547    77A      1.018161
      78A      1.032885    79A      1.037090    80A      1.039256
      81A      1.049976    82A      1.075330    83A      1.076295
      84A      1.086305    85A      1.128767    86A      1.135438
      87A      1.155437    88A      1.191011    89A      1.214221
      90A      1.229902    91A      1.241142    92A      1.257267
      93A      1.289723    94A      1.347229    95A      1.349453
      96A      1.351528    97A      1.388033    98A      1.407021
      99A      1.430934   100A      1.440391   101A      1.471237
     102A      1.522902   103A      1.543683   104A      1.565599
     105A      1.573112   106A      1.592384   107A      1.607875
     108A      1.623891   109A      1.630119   110A      1.661314
     111A      1.678024   112A      1.703033   113A      1.721641
     114A      1.747863   115A      1.758926   116A      1.790478
     117A      1.809692   118A      1.844903   119A      1.849135
     120A      1.908780   121A      1.927993   122A      1.941510
     123A      1.974581   124A      1.998996   125A      2.032416
     126A      2.040516   127A      2.057150   128A      2.069417
     129A      2.073637   130A      2.077683   131A      2.090340
     132A      2.105509   133A      2.129628   134A      2.134931
     135A      2.170785   136A      2.205009   137A      2.215148
     138A      2.255152   139A      2.260967   140A      2.312642
     141A      2.343138   142A      2.348220   143A      2.357884
     144A      2.414310   145A      2.418819   146A      2.441769
     147A      2.448775   148A      2.480078   149A      2.540271
     150A      2.563240   151A      2.564316   152A      2.589996
     153A      2.671192   154A      2.674927   155A      2.712849
     156A      2.724272   157A      2.763945   158A      2.803288
     159A      2.831461   160A      2.860742   161A      2.894005
     162A      2.902395   163A      2.911069   164A      2.953644
     165A      2.963090   166A      2.966917   167A      2.993046
     168A      2.996455   169A      3.039896   170A      3.078845
     171A      3.174430   172A      3.251216   173A      3.266118
     174A      3.281560   175A      3.301821   176A      3.352807
     177A      3.362349   178A      3.578608   179A      3.623103
     180A      3.781086   181A      3.834453   182A      3.899565
     183A      4.041453   184A      4.089445   185A      4.187726

    Final Occupation by Irrep:
              A
    DOCC [    38 ]

  @RHF Final Energy:  -491.10668314524401

   => Energetics <=

    Nuclear Repulsion Energy =            468.5292144018131353
    One-Electron Energy =               -1612.3766666086621626
    Two-Electron Energy =                 652.7407690616050786
    Total Energy =                       -491.1066831452440056

Computation Completed

Properties will be evaluated at   0.000000,   0.000000,   0.000000 [a0]

Properties computed using the SCF density matrix

  Nuclear Dipole Moment: [e a0]
     X:    -2.0920      Y:     0.2620      Z:    -2.5827

  Electronic Dipole Moment: [e a0]
     X:    -0.9582      Y:    -3.4089      Z:     0.1393

  Dipole Moment: [e a0]
     X:    -3.0502      Y:    -3.1469      Z:    -2.4434     Total:     5.0176

  Dipole Moment: [D]
     X:    -7.7529      Y:    -7.9985      Z:    -6.2104     Total:    12.7536

*** tstop() called on ds3 at Mon Apr 27 07:52:26 2020
Module time:
	user time   =      40.17 seconds =       0.67 minutes
	system time =      21.08 seconds =       0.35 minutes
	total time  =        117 seconds =       1.95 minutes
Total time:
	user time   =      40.17 seconds =       0.67 minutes
	system time =      21.08 seconds =       0.35 minutes
	total time  =        117 seconds =       1.95 minutes
                                     G D M A

                                 by Anthony Stone

                           version 2.2.06, 22 June 2011

               Distributed Multipoles from Gaussian wavefunctions

Starting at 7:52:27 on 27 Apr 2020

Using SCF density matrix from file ./SSI/SSI-068HIE-080GLU-1-dimer.test.308.fchk

                         Distributed Multipole Analysis

Standard DMA

Positions and radii in angstrom
Multipole moments in atomic units, ea_0^k for rank k

C          x =  0.802602  y = -1.448516  z = -3.290051 angstrom
           Maximum rank =  0   Radius =  0.650 angstrom
                   Q00  =  -0.202741

C          x = -0.841398  y = -1.412516  z = -0.066051 angstrom
           Maximum rank =  0   Radius =  0.650 angstrom
                   Q00  =   0.464661

C          x = -0.117398  y = -1.588516  z = -2.127051 angstrom
           Maximum rank =  0   Radius =  0.650 angstrom
                   Q00  =   0.260002

C          x = -1.410398  y = -1.991516  z = -2.106051 angstrom
           Maximum rank =  0   Radius =  0.650 angstrom
                   Q00  =  -0.030633

N          x =  0.220602  y = -1.206516  z = -0.845051 angstrom
           Maximum rank =  0   Radius =  0.650 angstrom
                   Q00  =  -0.748652

N          x = -1.855398  y = -1.847516  z = -0.821051 angstrom
           Maximum rank =  0   Radius =  0.650 angstrom
                   Q00  =  -0.457374

H          x = -0.906398  y = -1.167516  z =  0.986949 angstrom
           Maximum rank =  0   Radius =  0.325 angstrom
                   Q00  =   0.142267

H          x = -2.810398  y = -1.949516  z = -0.498051 angstrom
           Maximum rank =  0   Radius =  0.325 angstrom
                   Q00  =   0.202247

H          x = -1.984398  y = -2.307516  z = -2.964051 angstrom
           Maximum rank =  0   Radius =  0.325 angstrom
                   Q00  =   0.074857

H          x =  1.513602  y = -0.649516  z = -3.086051 angstrom
           Maximum rank =  0   Radius =  0.325 angstrom
                   Q00  =   0.130176

H          x =  0.216602  y = -1.145516  z = -4.158051 angstrom
           Maximum rank =  0   Radius =  0.325 angstrom
                   Q00  =   0.075891

H          x =  1.344702  y = -2.375946  z = -3.526671 angstrom
           Maximum rank =  0   Radius =  0.325 angstrom
                   Q00  =   0.082138

C          x =  0.247602  y =  3.064484  z =  3.191949 angstrom
           Maximum rank =  0   Radius =  0.650 angstrom
                   Q00  =  -0.275864

C          x =  0.778602  y =  2.155484  z =  2.094949 angstrom
           Maximum rank =  0   Radius =  0.650 angstrom
                   Q00  =   0.970865

O          x =  0.029602  y =  1.219484  z =  1.696949 angstrom
           Maximum rank =  0   Radius =  0.650 angstrom
                   Q00  =  -0.939663

O          x =  1.948602  y =  2.354484  z =  1.663949 angstrom
           Maximum rank =  0   Radius =  0.650 angstrom
                   Q00  =  -0.922013

H          x =  0.846602  y =  3.975484  z =  3.262949 angstrom
           Maximum rank =  0   Radius =  0.325 angstrom
                   Q00  =   0.048752

H          x =  0.345602  y =  2.548484  z =  4.150949 angstrom
           Maximum rank =  0   Radius =  0.325 angstrom
                   Q00  =   0.073151

H          x = -0.812668  y =  3.323294  z =  3.054679 angstrom
           Maximum rank =  0   Radius =  0.325 angstrom
                   Q00  =   0.051933

Total multipoles referred to origin at
           x =   0.000000,  y =    0.000000,  z =    0.000000 angstrom
                   Q00  =  -1.000000

Finished at 7:52:27 on 27 Apr 2020

  DMA results are available in the Python driver through the
	  variable('DMA DISTRIBUTED MULTIPOLES')
  and
	  variable('DMA TOTAL MULTIPOLES')
  commands.

    Psi4 stopped on: Monday, 27 April 2020 07:52AM
    Psi4 wall time for execution: 0:01:57.24

*** Psi4 exiting successfully. Buy a developer a beer!
