                               Psi4 1.3.2 release

  ==> Input File <==

--------------------------------------------------------------------------
import numpy as np
set {scf_type pk
basis cc-pvdz
d_convergence 10
gdma_switch   0
gdma_limit    0
gdma_origin   [ 0.0,  0.0,  0.0 ]
}
molecule test {
    units Angstrom
    0 1
    --
    0 1
    C                1.785117692891874     0.210051399950822    -2.371599360809019
    C                0.547117692891874    -0.402948600049178    -3.026599360809020
    C                1.782117692891874     1.745051399950822    -2.391599360809019
    H                1.841117692891874    -0.126948600049178    -1.338599360809019
    H                2.674117692891874    -0.149948600049178    -2.890599360809019
    H               -0.343882307108126    -0.027948600049178    -2.520599360809019
    H                1.812117692891874     2.088051399950822    -3.425599360809020
    H                0.543327692891874    -1.499298600049178    -2.937132360809020
    H                0.488497692891874    -0.102618600049178    -4.083181360809019
    H                0.895677692891874     2.185751399950822    -1.912009360809019
    H                2.699037692891875     2.107321399950822    -1.903739360809019
    C               -3.379882307108126     0.172051399950822     0.418400639190981
    C                0.132117692891874    -1.249948600049178     0.501400639190981
    C               -1.204882307108126    -1.043948600049178     0.186400639190981
    C                0.765117692891874    -0.403948600049178     1.386400639190981
    C               -1.933882307108126    -0.014948600049178     0.753400639190981
    C                0.059117692891874     0.652051399950822     1.969400639190981
    C               -1.290882307108126     0.822051399950822     1.657400639190981
    O                2.081117692891874    -0.578948600049178     1.629400639190981
    H                0.670117692891874    -2.065948600049178     0.047400639190981
    H               -1.684882307108126    -1.700948600049178    -0.526599360809019
    H                2.472117692891875    -0.944948600049178     0.833400639190981
    H                0.561117692891874     1.321051399950822     2.649400639190981
    H               -3.467882307108126     0.254051399950822    -0.664599360809019
    H               -3.736882307108125     1.103051399950822     0.850400639190981
    H               -1.837882307108126     1.633051399950822     2.119400639190981
    H               -4.003986307108125    -0.666318600049178     0.761370639190981

}
e, wfn = energy('scf', return_wfn=True)
gdma(wfn)
dmavals = variable('DMA DISTRIBUTED MULTIPOLES')
charges = np.array(dmavals)
print(charges)
np.save('SSI-043LEU-161TYR-1-dimer.npy', np.array(charges))--------------------------------------------------------------------------

*** tstart() called on ds3
*** at Mon Apr 27 13:54:00 2020

   => Loading Basis Set <=

    Name: CC-PVDZ
    Role: ORBITAL
    Keyword: BASIS
    atoms 1-3, 12-18  entry C          line   138 file /theoryfs2/ds/metcalf/miniconda2/envs/tf2gpu/share/psi4/basis/cc-pvdz.gbs
    atoms 4-11, 20-27 entry H          line    22 file /theoryfs2/ds/metcalf/miniconda2/envs/tf2gpu/share/psi4/basis/cc-pvdz.gbs
    atoms 19          entry O          line   198 file /theoryfs2/ds/metcalf/miniconda2/envs/tf2gpu/share/psi4/basis/cc-pvdz.gbs

         ---------------------------------------------------------
                                   SCF
               by Justin Turney, Rob Parrish, Andy Simmonett
                          and Daniel G. A. Smith
                              RHF Reference
                        1 Threads,    500 MiB Core
         ---------------------------------------------------------

  ==> Geometry <==

    Molecular point group: c1
    Full point group: C1

    Geometry (in Angstrom), charge = 0, multiplicity = 1:

       Center              X                  Y                   Z               Mass
    ------------   -----------------  -----------------  -----------------  -----------------
         C            1.785117692892     0.210051399951    -2.371599360809    12.000000000000
         C            0.547117692892    -0.402948600049    -3.026599360809    12.000000000000
         C            1.782117692892     1.745051399951    -2.391599360809    12.000000000000
         H            1.841117692892    -0.126948600049    -1.338599360809     1.007825032230
         H            2.674117692892    -0.149948600049    -2.890599360809     1.007825032230
         H           -0.343882307108    -0.027948600049    -2.520599360809     1.007825032230
         H            1.812117692892     2.088051399951    -3.425599360809     1.007825032230
         H            0.543327692892    -1.499298600049    -2.937132360809     1.007825032230
         H            0.488497692892    -0.102618600049    -4.083181360809     1.007825032230
         H            0.895677692892     2.185751399951    -1.912009360809     1.007825032230
         H            2.699037692892     2.107321399951    -1.903739360809     1.007825032230
         C           -3.379882307108     0.172051399951     0.418400639191    12.000000000000
         C            0.132117692892    -1.249948600049     0.501400639191    12.000000000000
         C           -1.204882307108    -1.043948600049     0.186400639191    12.000000000000
         C            0.765117692892    -0.403948600049     1.386400639191    12.000000000000
         C           -1.933882307108    -0.014948600049     0.753400639191    12.000000000000
         C            0.059117692892     0.652051399951     1.969400639191    12.000000000000
         C           -1.290882307108     0.822051399951     1.657400639191    12.000000000000
         O            2.081117692892    -0.578948600049     1.629400639191    15.994914619570
         H            0.670117692892    -2.065948600049     0.047400639191     1.007825032230
         H           -1.684882307108    -1.700948600049    -0.526599360809     1.007825032230
         H            2.472117692892    -0.944948600049     0.833400639191     1.007825032230
         H            0.561117692892     1.321051399951     2.649400639191     1.007825032230
         H           -3.467882307108     0.254051399951    -0.664599360809     1.007825032230
         H           -3.736882307108     1.103051399951     0.850400639191     1.007825032230
         H           -1.837882307108     1.633051399951     2.119400639191     1.007825032230
         H           -4.003986307108    -0.666318600049     0.761370639191     1.007825032230

  Running in c1 symmetry.

  Rotational constants: A =      0.03836  B =      0.02301  C =      0.01796 [cm^-1]
  Rotational constants: A =   1149.87619  B =    689.82790  C =    538.54833 [MHz]
  Nuclear repulsion =  597.663997955869604

  Charge       = 0
  Multiplicity = 1
  Electrons    = 84
  Nalpha       = 42
  Nbeta        = 42

  ==> Algorithm <==

  SCF Algorithm Type is PK.
  DIIS enabled.
  MOM disabled.
  Fractional occupation disabled.
  Guess Type is SAD.
  Energy threshold   = 1.00e-06
  Density threshold  = 1.00e-10
  Integral threshold = 0.00e+00

  ==> Primary Basis <==

  Basis Set: CC-PVDZ
    Blend: CC-PVDZ
    Number of shells: 114
    Number of basis function: 234
    Number of Cartesian functions: 245
    Spherical Harmonics?: true
    Max angular momentum: 2

  ==> Pre-Iterations <==

   -------------------------------------------------------
    Irrep   Nso     Nmo     Nalpha   Nbeta   Ndocc  Nsocc
   -------------------------------------------------------
     A        234     234       0       0       0       0
   -------------------------------------------------------
    Total     234     234      42      42      42       0
   -------------------------------------------------------

  ==> Integral Setup <==

  Using integral reordering PK algorithm.
  Sizing the integral batches needed.
  Building batch lookup table.
   Calculation information:
      Number of atoms:                  27
      Number of AO shells:             114
      Number of primitives:            322
      Number of atomic orbitals:       245
      Number of basis functions:       234

      Integral cutoff                 1.00e-12
      Number of threads:                 1

	Batch   1 pq = [       0,    9405] index = [             0,44231715] size =     44231715
	Batch   2 pq = [    9405,   13301] index = [      44231715,88464951] size =     44233236
	Batch   3 pq = [   13301,   16290] index = [      88464951,132690195] size =     44225244
	Batch   4 pq = [   16290,   18810] index = [     132690195,176917455] size =     44227260
	Batch   5 pq = [   18810,   21030] index = [     176917455,221140965] size =     44223510
	Batch   6 pq = [   21030,   23037] index = [     221140965,265363203] size =     44222238
	Batch   7 pq = [   23037,   24883] index = [     265363203,309594286] size =     44231083
	Batch   8 pq = [   24883,   26601] index = [     309594286,353819901] size =     44225615
	Batch   9 pq = [   26601,   27495] index = [     353819901,378001260] size =     24181359
  Task number: 35
  Buffer size: 11059200
  Buffer per thread: 2
  We computed 22159219 shell quartets total.
  Whereas there are 21487290 unique shell quartets.
     3.13 percent of shell quartets recomputed by reordering.

  ==> DiskJK: Disk-Based J/K Matrices <==

    J tasked:                  Yes
    K tasked:                  Yes
    wK tasked:                  No
    Memory [MiB]:              375
    Schwarz Cutoff:          1E-12

    OpenMP threads:              1

  Minimum eigenvalue in the overlap matrix is 3.0963799564E-04.
  Using Symmetric Orthogonalization.

  SCF Guess: Superposition of Atomic Densities via on-the-fly atomic UHF.

  ==> Iterations <==

                        Total Energy        Delta E     RMS |[F,P]|

   @RHF iter SAD:  -461.80697500722840   -4.61807e+02   0.00000e+00
   @RHF iter   1:  -462.60274256959872   -7.95768e-01   2.83424e-03 DIIS
   @RHF iter   2:  -462.84674890418768   -2.44006e-01   1.21887e-03 DIIS
   @RHF iter   3:  -462.88770946952320   -4.09606e-02   2.70915e-04 DIIS
   @RHF iter   4:  -462.89100915389088   -3.29968e-03   1.06338e-04 DIIS
   @RHF iter   5:  -462.89136932111381   -3.60167e-04   2.05609e-05 DIIS
   @RHF iter   6:  -462.89138858688762   -1.92658e-05   6.22576e-06 DIIS
   @RHF iter   7:  -462.89139040537623   -1.81849e-06   1.65663e-06 DIIS
   @RHF iter   8:  -462.89139059037024   -1.84994e-07   5.94608e-07 DIIS
   @RHF iter   9:  -462.89139061340609   -2.30359e-08   2.18516e-07 DIIS
   @RHF iter  10:  -462.89139061661928   -3.21319e-09   7.73999e-08 DIIS
   @RHF iter  11:  -462.89139061737001   -7.50731e-10   3.14772e-08 DIIS
   @RHF iter  12:  -462.89139061754787   -1.77863e-10   1.74707e-08 DIIS
   @RHF iter  13:  -462.89139061758937   -4.14957e-11   6.55536e-09 DIIS
   @RHF iter  14:  -462.89139061759539   -6.02540e-12   1.86508e-09 DIIS
   @RHF iter  15:  -462.89139061759539    0.00000e+00   6.57181e-10 DIIS
   @RHF iter  16:  -462.89139061759613   -7.38964e-13   2.12054e-10 DIIS
   @RHF iter  17:  -462.89139061759727   -1.13687e-12   9.89937e-11 DIIS
  Energy and wave function converged.

  ==> Post-Iterations <==

    Orbital Energies [Eh]
    ---------------------

    Doubly Occupied:

       1A    -20.582209     2A    -11.294373     3A    -11.237443
       4A    -11.235851     5A    -11.231544     6A    -11.230839
       7A    -11.229964     8A    -11.227913     9A    -11.222595
      10A    -11.217688    11A    -11.217430    12A     -1.408193
      13A     -1.153868    14A     -1.052629    15A     -1.040554
      16A     -1.018018    17A     -0.927430    18A     -0.923454
      19A     -0.846036    20A     -0.802496    21A     -0.798680
      22A     -0.732072    23A     -0.672389    24A     -0.643713
      25A     -0.627240    26A     -0.616762    27A     -0.594563
      28A     -0.587964    29A     -0.585640    30A     -0.576248
      31A     -0.561964    32A     -0.549696    33A     -0.529434
      34A     -0.523318    35A     -0.500702    36A     -0.485497
      37A     -0.473311    38A     -0.470690    39A     -0.469713
      40A     -0.465774    41A     -0.337830    42A     -0.305077

    Virtual:

      43A      0.127624    44A      0.151403    45A      0.169340
      46A      0.180385    47A      0.199998    48A      0.204190
      49A      0.211886    50A      0.234215    51A      0.248769
      52A      0.256521    53A      0.258038    54A      0.265674
      55A      0.275694    56A      0.279960    57A      0.293822
      58A      0.300937    59A      0.326862    60A      0.340344
      61A      0.368721    62A      0.375774    63A      0.377351
      64A      0.421793    65A      0.429294    66A      0.456919
      67A      0.486559    68A      0.497981    69A      0.517450
      70A      0.575769    71A      0.589366    72A      0.595692
      73A      0.615880    74A      0.621532    75A      0.634963
      76A      0.638058    77A      0.656833    78A      0.666150
      79A      0.690246    80A      0.710288    81A      0.722479
      82A      0.731591    83A      0.740039    84A      0.758610
      85A      0.775184    86A      0.784721    87A      0.788685
      88A      0.796059    89A      0.813691    90A      0.817546
      91A      0.834588    92A      0.845603    93A      0.856492
      94A      0.868021    95A      0.870997    96A      0.884217
      97A      0.888484    98A      0.894294    99A      0.900816
     100A      0.906594   101A      0.909197   102A      0.918536
     103A      0.922298   104A      0.933964   105A      0.940979
     106A      0.941855   107A      0.954105   108A      0.960608
     109A      0.976531   110A      0.985362   111A      1.014880
     112A      1.020063   113A      1.042512   114A      1.079424
     115A      1.118786   116A      1.123044   117A      1.134164
     118A      1.142892   119A      1.167928   120A      1.185821
     121A      1.198998   122A      1.238680   123A      1.243119
     124A      1.261310   125A      1.278928   126A      1.297734
     127A      1.306890   128A      1.313925   129A      1.328880
     130A      1.366969   131A      1.379573   132A      1.382045
     133A      1.394951   134A      1.459757   135A      1.471205
     136A      1.486713   137A      1.499537   138A      1.523336
     139A      1.534078   140A      1.560367   141A      1.613059
     142A      1.634089   143A      1.660778   144A      1.680114
     145A      1.683048   146A      1.687655   147A      1.691266
     148A      1.698954   149A      1.740018   150A      1.757547
     151A      1.788668   152A      1.806038   153A      1.813616
     154A      1.851636   155A      1.863928   156A      1.882917
     157A      1.887377   158A      1.897098   159A      1.902089
     160A      1.912145   161A      1.924244   162A      1.928816
     163A      1.934033   164A      1.942770   165A      1.952326
     166A      1.956571   167A      1.965967   168A      1.974894
     169A      1.978995   170A      1.984316   171A      1.987106
     172A      1.997736   173A      2.014277   174A      2.014780
     175A      2.034269   176A      2.041421   177A      2.053786
     178A      2.069712   179A      2.080446   180A      2.102279
     181A      2.119095   182A      2.129368   183A      2.151270
     184A      2.152990   185A      2.187277   186A      2.209202
     187A      2.225210   188A      2.266241   189A      2.272644
     190A      2.284517   191A      2.305934   192A      2.318455
     193A      2.330685   194A      2.345680   195A      2.358818
     196A      2.380093   197A      2.404584   198A      2.463167
     199A      2.476203   200A      2.501892   201A      2.525989
     202A      2.532206   203A      2.540146   204A      2.552613
     205A      2.581257   206A      2.604706   207A      2.621172
     208A      2.628037   209A      2.639408   210A      2.741666
     211A      2.754158   212A      2.761566   213A      2.774321
     214A      2.797018   215A      2.803784   216A      2.809864
     217A      2.819721   218A      2.848783   219A      2.897792
     220A      2.926359   221A      2.964875   222A      2.983009
     223A      3.004717   224A      3.011564   225A      3.080366
     226A      3.100107   227A      3.136339   228A      3.292208
     229A      3.313473   230A      3.376075   231A      3.595863
     232A      3.698198   233A      3.983204   234A      4.165711

    Final Occupation by Irrep:
              A
    DOCC [    42 ]

  @RHF Final Energy:  -462.89139061759727

   => Energetics <=

    Nuclear Repulsion Energy =            597.6639979558696041
    One-Electron Energy =               -1812.6931765329352402
    Two-Electron Energy =                 752.1377879594682554
    Total Energy =                       -462.8913906175972670

Computation Completed

Properties will be evaluated at   0.000000,   0.000000,   0.000000 [a0]

Properties computed using the SCF density matrix

  Nuclear Dipole Moment: [e a0]
     X:    -0.3820      Y:     3.1916      Z:   -13.9992

  Electronic Dipole Moment: [e a0]
     X:     0.1931      Y:    -3.3085      Z:    13.4464

  Dipole Moment: [e a0]
     X:    -0.1889      Y:    -0.1169      Z:    -0.5528     Total:     0.5957

  Dipole Moment: [D]
     X:    -0.4802      Y:    -0.2972      Z:    -1.4050     Total:     1.5142

*** tstop() called on ds3 at Mon Apr 27 13:59:05 2020
Module time:
	user time   =     162.36 seconds =       2.71 minutes
	system time =      59.13 seconds =       0.99 minutes
	total time  =        305 seconds =       5.08 minutes
Total time:
	user time   =     162.36 seconds =       2.71 minutes
	system time =      59.13 seconds =       0.99 minutes
	total time  =        305 seconds =       5.08 minutes
                                     G D M A

                                 by Anthony Stone

                           version 2.2.06, 22 June 2011

               Distributed Multipoles from Gaussian wavefunctions

Starting at 13:59:5 on 27 Apr 2020

Using SCF density matrix from file ./SSI/SSI-043LEU-161TYR-1-dimer.test.8155.fchk

                         Distributed Multipole Analysis

Standard DMA

Positions and radii in angstrom
Multipole moments in atomic units, ea_0^k for rank k

C          x =  1.785118  y =  0.210051  z = -2.371599 angstrom
           Maximum rank =  0   Radius =  0.650 angstrom
                   Q00  =  -0.057673

C          x =  0.547118  y = -0.402949  z = -3.026599 angstrom
           Maximum rank =  0   Radius =  0.650 angstrom
                   Q00  =  -0.243375

C          x =  1.782118  y =  1.745051  z = -2.391599 angstrom
           Maximum rank =  0   Radius =  0.650 angstrom
                   Q00  =  -0.256785

H          x =  1.841118  y = -0.126949  z = -1.338599 angstrom
           Maximum rank =  0   Radius =  0.325 angstrom
                   Q00  =   0.022713

H          x =  2.674118  y = -0.149949  z = -2.890599 angstrom
           Maximum rank =  0   Radius =  0.325 angstrom
                   Q00  =   0.044182

H          x = -0.343882  y = -0.027949  z = -2.520599 angstrom
           Maximum rank =  0   Radius =  0.325 angstrom
                   Q00  =   0.084198

H          x =  1.812118  y =  2.088051  z = -3.425599 angstrom
           Maximum rank =  0   Radius =  0.325 angstrom
                   Q00  =   0.075322

H          x =  0.543328  y = -1.499299  z = -2.937132 angstrom
           Maximum rank =  0   Radius =  0.325 angstrom
                   Q00  =   0.078076

H          x =  0.488498  y = -0.102619  z = -4.083181 angstrom
           Maximum rank =  0   Radius =  0.325 angstrom
                   Q00  =   0.076705

H          x =  0.895678  y =  2.185751  z = -1.912009 angstrom
           Maximum rank =  0   Radius =  0.325 angstrom
                   Q00  =   0.086714

H          x =  2.699038  y =  2.107321  z = -1.903739 angstrom
           Maximum rank =  0   Radius =  0.325 angstrom
                   Q00  =   0.083014

C          x = -3.379882  y =  0.172051  z =  0.418401 angstrom
           Maximum rank =  0   Radius =  0.650 angstrom
                   Q00  =  -0.198065

C          x =  0.132118  y = -1.249949  z =  0.501401 angstrom
           Maximum rank =  0   Radius =  0.650 angstrom
                   Q00  =  -0.161460

C          x = -1.204882  y = -1.043949  z =  0.186401 angstrom
           Maximum rank =  0   Radius =  0.650 angstrom
                   Q00  =   0.028463

C          x =  0.765118  y = -0.403949  z =  1.386401 angstrom
           Maximum rank =  0   Radius =  0.650 angstrom
                   Q00  =   0.258325

C          x = -1.933882  y = -0.014949  z =  0.753401 angstrom
           Maximum rank =  0   Radius =  0.650 angstrom
                   Q00  =  -0.131824

C          x =  0.059118  y =  0.652051  z =  1.969401 angstrom
           Maximum rank =  0   Radius =  0.650 angstrom
                   Q00  =  -0.123541

C          x = -1.290882  y =  0.822051  z =  1.657401 angstrom
           Maximum rank =  0   Radius =  0.650 angstrom
                   Q00  =  -0.019202

O          x =  2.081118  y = -0.578949  z =  1.629401 angstrom
           Maximum rank =  0   Radius =  0.650 angstrom
                   Q00  =  -0.623869

H          x =  0.670118  y = -2.065949  z =  0.047401 angstrom
           Maximum rank =  0   Radius =  0.325 angstrom
                   Q00  =   0.069997

H          x = -1.684882  y = -1.700949  z = -0.526599 angstrom
           Maximum rank =  0   Radius =  0.325 angstrom
                   Q00  =   0.063837

H          x =  2.472118  y = -0.944949  z =  0.833401 angstrom
           Maximum rank =  0   Radius =  0.325 angstrom
                   Q00  =   0.405955

H          x =  0.561118  y =  1.321051  z =  2.649401 angstrom
           Maximum rank =  0   Radius =  0.325 angstrom
                   Q00  =   0.081377

H          x = -3.467882  y =  0.254051  z = -0.664599 angstrom
           Maximum rank =  0   Radius =  0.325 angstrom
                   Q00  =   0.094827

H          x = -3.736882  y =  1.103051  z =  0.850401 angstrom
           Maximum rank =  0   Radius =  0.325 angstrom
                   Q00  =   0.098416

H          x = -1.837882  y =  1.633051  z =  2.119401 angstrom
           Maximum rank =  0   Radius =  0.325 angstrom
                   Q00  =   0.063573

H          x = -4.003986  y = -0.666319  z =  0.761371 angstrom
           Maximum rank =  0   Radius =  0.325 angstrom
                   Q00  =   0.100100

Total multipoles referred to origin at
           x =   0.000000,  y =    0.000000,  z =    0.000000 angstrom
                   Q00  =  -0.000000

Finished at 13:59:5 on 27 Apr 2020

  DMA results are available in the Python driver through the
	  variable('DMA DISTRIBUTED MULTIPOLES')
  and
	  variable('DMA TOTAL MULTIPOLES')
  commands.

    Psi4 stopped on: Monday, 27 April 2020 01:59PM
    Psi4 wall time for execution: 0:05:04.90

*** Psi4 exiting successfully. Buy a developer a beer!
