                               Psi4 1.3.2 release

  ==> Input File <==

--------------------------------------------------------------------------
import numpy as np
set {scf_type pk
basis cc-pvdz
d_convergence 10
gdma_switch   0
gdma_limit    0
gdma_origin   [ 0.0,  0.0,  0.0 ]
}
molecule test {
    units Angstrom
    0 1
    --
    0 1
    C               -0.360898517458333    -1.402150625320383     0.337697817693726
    C               -0.401898517458333    -2.811150625320383    -0.300302182306274
    C               -0.036898517458333    -1.435150625320383     1.839697817693726
    H                0.396101482541667    -0.812150625320383    -0.182302182306274
    H               -1.327898517458334    -0.914150625320383     0.205697817693726
    H               -1.122898517458333    -3.421150625320383     0.243697817693726
    H                0.897101482541667    -1.966150625320383     2.009697817693727
    H                0.596393982541667    -3.269764625320383    -0.244762182306274
    H               -0.756301317458333    -2.783171625320383    -1.341272182306274
    H                0.102163882541667    -0.397252625320383     2.176489817693727
    H               -0.822481617458333    -1.930639625320383     2.429061817693726
    C                0.264101482541667     2.059849374679617    -1.155302182306274
    C                0.507101482541667     3.493849374679617    -0.698302182306274
    H                0.057101482541667     2.027849374679617    -2.225302182306273
    H                1.153101482541667     1.457849374679617    -0.965302182306274
    H               -0.580898517458333     1.630849374679617    -0.613302182306274
    H                1.328101482541666     3.903849374679618    -1.286302182306274
    H               -0.389334117458333     4.114185374679617    -0.845222182306274
    H                0.809003682541667     3.488057374679617     0.359441817693726

}
e, wfn = energy('scf', return_wfn=True)
gdma(wfn)
dmavals = variable('DMA DISTRIBUTED MULTIPOLES')
charges = np.array(dmavals)
print(charges)
np.save('SSI-024LEU-054VAL-1-dimer.npy', np.array(charges))--------------------------------------------------------------------------

*** tstart() called on ds3
*** at Tue Apr 28 13:35:11 2020

   => Loading Basis Set <=

    Name: CC-PVDZ
    Role: ORBITAL
    Keyword: BASIS
    atoms 1-3, 12-13  entry C          line   138 file /theoryfs2/ds/metcalf/miniconda2/envs/tf2gpu/share/psi4/basis/cc-pvdz.gbs
    atoms 4-11, 14-19 entry H          line    22 file /theoryfs2/ds/metcalf/miniconda2/envs/tf2gpu/share/psi4/basis/cc-pvdz.gbs

         ---------------------------------------------------------
                                   SCF
               by Justin Turney, Rob Parrish, Andy Simmonett
                          and Daniel G. A. Smith
                              RHF Reference
                        1 Threads,    500 MiB Core
         ---------------------------------------------------------

  ==> Geometry <==

    Molecular point group: c1
    Full point group: C1

    Geometry (in Angstrom), charge = 0, multiplicity = 1:

       Center              X                  Y                   Z               Mass
    ------------   -----------------  -----------------  -----------------  -----------------
         C           -0.360898517458    -1.402150625320     0.337697817694    12.000000000000
         C           -0.401898517458    -2.811150625320    -0.300302182306    12.000000000000
         C           -0.036898517458    -1.435150625320     1.839697817694    12.000000000000
         H            0.396101482542    -0.812150625320    -0.182302182306     1.007825032230
         H           -1.327898517458    -0.914150625320     0.205697817694     1.007825032230
         H           -1.122898517458    -3.421150625320     0.243697817694     1.007825032230
         H            0.897101482542    -1.966150625320     2.009697817694     1.007825032230
         H            0.596393982542    -3.269764625320    -0.244762182306     1.007825032230
         H           -0.756301317458    -2.783171625320    -1.341272182306     1.007825032230
         H            0.102163882542    -0.397252625320     2.176489817694     1.007825032230
         H           -0.822481617458    -1.930639625320     2.429061817694     1.007825032230
         C            0.264101482542     2.059849374680    -1.155302182306    12.000000000000
         C            0.507101482542     3.493849374680    -0.698302182306    12.000000000000
         H            0.057101482542     2.027849374680    -2.225302182306     1.007825032230
         H            1.153101482542     1.457849374680    -0.965302182306     1.007825032230
         H           -0.580898517458     1.630849374680    -0.613302182306     1.007825032230
         H            1.328101482542     3.903849374680    -1.286302182306     1.007825032230
         H           -0.389334117458     4.114185374680    -0.845222182306     1.007825032230
         H            0.809003682542     3.488057374680     0.359441817694     1.007825032230

  Running in c1 symmetry.

  Rotational constants: A =      0.24038  B =      0.03511  C =      0.03161 [cm^-1]
  Rotational constants: A =   7206.46511  B =   1052.44157  C =    947.69135 [MHz]
  Nuclear repulsion =  174.305969780873937

  Charge       = 0
  Multiplicity = 1
  Electrons    = 44
  Nalpha       = 22
  Nbeta        = 22

  ==> Algorithm <==

  SCF Algorithm Type is PK.
  DIIS enabled.
  MOM disabled.
  Fractional occupation disabled.
  Guess Type is SAD.
  Energy threshold   = 1.00e-06
  Density threshold  = 1.00e-10
  Integral threshold = 0.00e+00

  ==> Primary Basis <==

  Basis Set: CC-PVDZ
    Blend: CC-PVDZ
    Number of shells: 72
    Number of basis function: 140
    Number of Cartesian functions: 145
    Spherical Harmonics?: true
    Max angular momentum: 2

  ==> Pre-Iterations <==

   -------------------------------------------------------
    Irrep   Nso     Nmo     Nalpha   Nbeta   Ndocc  Nsocc
   -------------------------------------------------------
     A        140     140       0       0       0       0
   -------------------------------------------------------
    Total     140     140      22      22      22       0
   -------------------------------------------------------

  ==> Integral Setup <==

  Using integral reordering PK algorithm.
  Sizing the integral batches needed.
  Building batch lookup table.
   Calculation information:
      Number of atoms:                  19
      Number of AO shells:              72
      Number of primitives:            180
      Number of atomic orbitals:       145
      Number of basis functions:       140

      Integral cutoff                 1.00e-12
      Number of threads:                 1

	Batch   1 pq = [       0,    9405] index = [             0,44231715] size =     44231715
	Batch   2 pq = [    9405,    9870] index = [      44231715,48713385] size =      4481670
  Task number: 5
  Buffer size: 11059200
  Buffer per thread: 2
  We computed 2686256 shell quartets total.
  Whereas there are 3454506 unique shell quartets.

  ==> DiskJK: Disk-Based J/K Matrices <==

    J tasked:                  Yes
    K tasked:                  Yes
    wK tasked:                  No
    Memory [MiB]:              375
    Schwarz Cutoff:          1E-12

    OpenMP threads:              1

  Minimum eigenvalue in the overlap matrix is 5.6484264817E-03.
  Using Symmetric Orthogonalization.

  SCF Guess: Superposition of Atomic Densities via on-the-fly atomic UHF.

  ==> Iterations <==

                        Total Energy        Delta E     RMS |[F,P]|

   @RHF iter SAD:  -196.30370217642857   -1.96304e+02   0.00000e+00
   @RHF iter   1:  -197.31453878294730   -1.01084e+00   3.77810e-03 DIIS
   @RHF iter   2:  -197.47304298403768   -1.58504e-01   1.62733e-03 DIIS
   @RHF iter   3:  -197.50104852898832   -2.80055e-02   3.24032e-04 DIIS
   @RHF iter   4:  -197.50325917120782   -2.21064e-03   4.74603e-05 DIIS
   @RHF iter   5:  -197.50329689847320   -3.77273e-05   1.46246e-05 DIIS
   @RHF iter   6:  -197.50330011351696   -3.21504e-06   2.43847e-06 DIIS
   @RHF iter   7:  -197.50330021887359   -1.05357e-07   4.37373e-07 DIIS
   @RHF iter   8:  -197.50330022291280   -4.03921e-09   1.11193e-07 DIIS
   @RHF iter   9:  -197.50330022316106   -2.48264e-10   3.59608e-08 DIIS
   @RHF iter  10:  -197.50330022319099   -2.99281e-11   8.05101e-09 DIIS
   @RHF iter  11:  -197.50330022319241   -1.42109e-12   1.52358e-09 DIIS
   @RHF iter  12:  -197.50330022319238    2.84217e-14   2.80825e-10 DIIS
   @RHF iter  13:  -197.50330022319247   -8.52651e-14   5.17490e-11 DIIS
  Energy and wave function converged.

  ==> Post-Iterations <==

    Orbital Energies [Eh]
    ---------------------

    Doubly Occupied:

       1A    -11.221109     2A    -11.219251     3A    -11.217768
       4A    -11.217607     5A    -11.216493     6A     -1.047622
       7A     -1.019397     8A     -0.922022     9A     -0.836168
      10A     -0.796235    11A     -0.623685    12A     -0.599181
      13A     -0.598864    14A     -0.589415    15A     -0.546222
      16A     -0.532379    17A     -0.501619    18A     -0.487068
      19A     -0.485677    20A     -0.469598    21A     -0.468202
      22A     -0.464242

    Virtual:

      23A      0.170151    24A      0.193301    25A      0.220871
      26A      0.223955    27A      0.227936    28A      0.248398
      29A      0.254663    30A      0.264042    31A      0.273003
      32A      0.282123    33A      0.296124    34A      0.304097
      35A      0.313385    36A      0.338262    37A      0.377282
      38A      0.397313    39A      0.423974    40A      0.570740
      41A      0.589426    42A      0.596159    43A      0.600422
      44A      0.606232    45A      0.618036    46A      0.621902
      47A      0.657074    48A      0.686428    49A      0.756988
      50A      0.786323    51A      0.817857    52A      0.838806
      53A      0.873321    54A      0.879219    55A      0.886066
      56A      0.893314    57A      0.893651    58A      0.896276
      59A      0.899776    60A      0.905268    61A      0.909117
      62A      0.910786    63A      0.917537    64A      0.924565
      65A      0.955516    66A      0.966593    67A      0.985094
      68A      0.996042    69A      1.122137    70A      1.124567
      71A      1.134092    72A      1.155040    73A      1.216173
      74A      1.236340    75A      1.375389    76A      1.462914
      77A      1.470247    78A      1.475758    79A      1.491148
      80A      1.520171    81A      1.575778    82A      1.625422
      83A      1.674768    84A      1.679440    85A      1.686078
      86A      1.697909    87A      1.705925    88A      1.848726
      89A      1.855940    90A      1.867901    91A      1.876454
      92A      1.886992    93A      1.901780    94A      1.916641
      95A      1.925358    96A      1.928794    97A      1.944864
      98A      1.947027    99A      1.953559   100A      1.959148
     101A      1.962230   102A      1.974961   103A      1.983847
     104A      1.991625   105A      1.997894   106A      2.008448
     107A      2.047840   108A      2.098267   109A      2.114563
     110A      2.130525   111A      2.143736   112A      2.282860
     113A      2.294004   114A      2.302934   115A      2.310198
     116A      2.328151   117A      2.343098   118A      2.452150
     119A      2.470331   120A      2.496154   121A      2.522089
     122A      2.559754   123A      2.571200   124A      2.576066
     125A      2.603054   126A      2.625285   127A      2.751423
     128A      2.754028   129A      2.760747   130A      2.781505
     131A      2.787926   132A      2.809548   133A      2.846028
     134A      2.856647   135A      2.900292   136A      2.945958
     137A      2.955128   138A      2.965262   139A      2.971943
     140A      3.070306

    Final Occupation by Irrep:
              A
    DOCC [    22 ]

  @RHF Final Energy:  -197.50330022319247

   => Energetics <=

    Nuclear Repulsion Energy =            174.3059697808739372
    One-Electron Energy =                -609.4588880645173958
    Two-Electron Energy =                 237.6496180604509618
    Total Energy =                       -197.5033002231924684

Computation Completed

Properties will be evaluated at   0.000000,   0.000000,   0.000000 [a0]

Properties computed using the SCF density matrix

  Nuclear Dipole Moment: [e a0]
     X:     0.3180      Y:     1.0577      Z:    -0.2622

  Electronic Dipole Moment: [e a0]
     X:    -0.3161      Y:    -1.0296      Z:     0.2375

  Dipole Moment: [e a0]
     X:     0.0020      Y:     0.0281      Z:    -0.0246     Total:     0.0374

  Dipole Moment: [D]
     X:     0.0051      Y:     0.0714      Z:    -0.0626     Total:     0.0951

*** tstop() called on ds3 at Tue Apr 28 13:35:59 2020
Module time:
	user time   =      14.19 seconds =       0.24 minutes
	system time =       5.80 seconds =       0.10 minutes
	total time  =         48 seconds =       0.80 minutes
Total time:
	user time   =      14.19 seconds =       0.24 minutes
	system time =       5.80 seconds =       0.10 minutes
	total time  =         48 seconds =       0.80 minutes
                                     G D M A

                                 by Anthony Stone

                           version 2.2.06, 22 June 2011

               Distributed Multipoles from Gaussian wavefunctions

Starting at 13:36:0 on 28 Apr 2020

Using SCF density matrix from file ./SSI/SSI-024LEU-054VAL-1-dimer.test.16404.fchk

                         Distributed Multipole Analysis

Standard DMA

Positions and radii in angstrom
Multipole moments in atomic units, ea_0^k for rank k

C          x = -0.360899  y = -1.402151  z =  0.337698 angstrom
           Maximum rank =  0   Radius =  0.650 angstrom
                   Q00  =  -0.066461

C          x = -0.401899  y = -2.811151  z = -0.300302 angstrom
           Maximum rank =  0   Radius =  0.650 angstrom
                   Q00  =  -0.257382

C          x = -0.036899  y = -1.435151  z =  1.839698 angstrom
           Maximum rank =  0   Radius =  0.650 angstrom
                   Q00  =  -0.256791

H          x =  0.396101  y = -0.812151  z = -0.182302 angstrom
           Maximum rank =  0   Radius =  0.325 angstrom
                   Q00  =   0.053432

H          x = -1.327899  y = -0.914151  z =  0.205698 angstrom
           Maximum rank =  0   Radius =  0.325 angstrom
                   Q00  =   0.048786

H          x = -1.122899  y = -3.421151  z =  0.243698 angstrom
           Maximum rank =  0   Radius =  0.325 angstrom
                   Q00  =   0.075345

H          x =  0.897101  y = -1.966151  z =  2.009698 angstrom
           Maximum rank =  0   Radius =  0.325 angstrom
                   Q00  =   0.076674

H          x =  0.596394  y = -3.269765  z = -0.244762 angstrom
           Maximum rank =  0   Radius =  0.325 angstrom
                   Q00  =   0.078539

H          x = -0.756301  y = -2.783172  z = -1.341272 angstrom
           Maximum rank =  0   Radius =  0.325 angstrom
                   Q00  =   0.085253

H          x =  0.102164  y = -0.397253  z =  2.176490 angstrom
           Maximum rank =  0   Radius =  0.325 angstrom
                   Q00  =   0.081114

H          x = -0.822482  y = -1.930640  z =  2.429062 angstrom
           Maximum rank =  0   Radius =  0.325 angstrom
                   Q00  =   0.080344

C          x =  0.264101  y =  2.059849  z = -1.155302 angstrom
           Maximum rank =  0   Radius =  0.650 angstrom
                   Q00  =  -0.236149

C          x =  0.507101  y =  3.493849  z = -0.698302 angstrom
           Maximum rank =  0   Radius =  0.650 angstrom
                   Q00  =  -0.233982

H          x =  0.057101  y =  2.027849  z = -2.225302 angstrom
           Maximum rank =  0   Radius =  0.325 angstrom
                   Q00  =   0.079034

H          x =  1.153101  y =  1.457849  z = -0.965302 angstrom
           Maximum rank =  0   Radius =  0.325 angstrom
                   Q00  =   0.076683

H          x = -0.580899  y =  1.630849  z = -0.613302 angstrom
           Maximum rank =  0   Radius =  0.325 angstrom
                   Q00  =   0.080202

H          x =  1.328101  y =  3.903849  z = -1.286302 angstrom
           Maximum rank =  0   Radius =  0.325 angstrom
                   Q00  =   0.077695

H          x = -0.389334  y =  4.114185  z = -0.845222 angstrom
           Maximum rank =  0   Radius =  0.325 angstrom
                   Q00  =   0.080470

H          x =  0.809004  y =  3.488057  z =  0.359442 angstrom
           Maximum rank =  0   Radius =  0.325 angstrom
                   Q00  =   0.077195

Total multipoles referred to origin at
           x =   0.000000,  y =    0.000000,  z =    0.000000 angstrom
                   Q00  =  -0.000000

Finished at 13:36:0 on 28 Apr 2020

  DMA results are available in the Python driver through the
	  variable('DMA DISTRIBUTED MULTIPOLES')
  and
	  variable('DMA TOTAL MULTIPOLES')
  commands.

    Psi4 stopped on: Tuesday, 28 April 2020 01:36PM
    Psi4 wall time for execution: 0:00:48.55

*** Psi4 exiting successfully. Buy a developer a beer!
