                               Psi4 1.3.2 release

  ==> Input File <==

--------------------------------------------------------------------------
import numpy as np
set {scf_type pk
basis cc-pvdz
d_convergence 10
gdma_switch   0
gdma_limit    0
gdma_origin   [ 0.0,  0.0,  0.0 ]
}
molecule test {
    units Angstrom
    0 1
    --
    0 1
    C               -0.132535775069328    -1.043751349818381     1.182695601149768
    C               -0.164535775069328    -2.181751349818382     2.223695601149767
    H               -1.106535775069328    -0.581751349818381     1.138695601149767
    H                0.597464224930672    -0.286751349818381     1.461695601149767
    H                0.105464224930672    -1.451751349818381     0.201695601149767
    H                0.788464224930672    -2.702751349818381     2.114695601149768
    H               -0.998585775069328    -2.865931349818381     2.008625601149767
    H               -0.186025775069328    -1.792141349818381     3.252155601149767
    C                0.015464224930672     0.913248650181619    -2.035304398850233
    C                0.280464224930672     2.315248650181619    -1.369304398850232
    H                0.876464224930672     0.259248650181619    -1.916304398850232
    H               -0.841535775069328     0.447248650181619    -1.549304398850233
    H               -0.194535775069328     1.027248650181619    -3.097304398850233
    H                0.686464224930672     2.175248650181619    -0.366304398850233
    H               -0.676535775069328     2.815248650181619    -1.286304398850233
    H                0.963044224930672     2.921178650181619    -1.983264398850233

}
e, wfn = energy('scf', return_wfn=True)
gdma(wfn)
dmavals = variable('DMA DISTRIBUTED MULTIPOLES')
charges = np.array(dmavals)
print(charges)
np.save('SSI-179ALA-250ILE-1-dimer.npy', np.array(charges))--------------------------------------------------------------------------

*** tstart() called on ds3
*** at Tue Apr 28 12:02:23 2020

   => Loading Basis Set <=

    Name: CC-PVDZ
    Role: ORBITAL
    Keyword: BASIS
    atoms 1-2, 9-10  entry C          line   138 file /theoryfs2/ds/metcalf/miniconda2/envs/tf2gpu/share/psi4/basis/cc-pvdz.gbs
    atoms 3-8, 11-16 entry H          line    22 file /theoryfs2/ds/metcalf/miniconda2/envs/tf2gpu/share/psi4/basis/cc-pvdz.gbs

         ---------------------------------------------------------
                                   SCF
               by Justin Turney, Rob Parrish, Andy Simmonett
                          and Daniel G. A. Smith
                              RHF Reference
                        1 Threads,    500 MiB Core
         ---------------------------------------------------------

  ==> Geometry <==

    Molecular point group: c1
    Full point group: C1

    Geometry (in Angstrom), charge = 0, multiplicity = 1:

       Center              X                  Y                   Z               Mass
    ------------   -----------------  -----------------  -----------------  -----------------
         C           -0.132535775069    -1.043751349818     1.182695601150    12.000000000000
         C           -0.164535775069    -2.181751349818     2.223695601150    12.000000000000
         H           -1.106535775069    -0.581751349818     1.138695601150     1.007825032230
         H            0.597464224931    -0.286751349818     1.461695601150     1.007825032230
         H            0.105464224931    -1.451751349818     0.201695601150     1.007825032230
         H            0.788464224931    -2.702751349818     2.114695601150     1.007825032230
         H           -0.998585775069    -2.865931349818     2.008625601150     1.007825032230
         H           -0.186025775069    -1.792141349818     3.252155601150     1.007825032230
         C            0.015464224931     0.913248650182    -2.035304398850    12.000000000000
         C            0.280464224931     2.315248650182    -1.369304398850    12.000000000000
         H            0.876464224931     0.259248650182    -1.916304398850     1.007825032230
         H           -0.841535775069     0.447248650182    -1.549304398850     1.007825032230
         H           -0.194535775069     1.027248650182    -3.097304398850     1.007825032230
         H            0.686464224931     2.175248650182    -0.366304398850     1.007825032230
         H           -0.676535775069     2.815248650182    -1.286304398850     1.007825032230
         H            0.963044224931     2.921178650182    -1.983264398850     1.007825032230

  Running in c1 symmetry.

  Rotational constants: A =      0.55271  B =      0.04615  C =      0.04401 [cm^-1]
  Rotational constants: A =  16569.83807  B =   1383.65381  C =   1319.26810 [MHz]
  Nuclear repulsion =  121.015019896672513

  Charge       = 0
  Multiplicity = 1
  Electrons    = 36
  Nalpha       = 18
  Nbeta        = 18

  ==> Algorithm <==

  SCF Algorithm Type is PK.
  DIIS enabled.
  MOM disabled.
  Fractional occupation disabled.
  Guess Type is SAD.
  Energy threshold   = 1.00e-06
  Density threshold  = 1.00e-10
  Integral threshold = 0.00e+00

  ==> Primary Basis <==

  Basis Set: CC-PVDZ
    Blend: CC-PVDZ
    Number of shells: 60
    Number of basis function: 116
    Number of Cartesian functions: 120
    Spherical Harmonics?: true
    Max angular momentum: 2

  ==> Pre-Iterations <==

   -------------------------------------------------------
    Irrep   Nso     Nmo     Nalpha   Nbeta   Ndocc  Nsocc
   -------------------------------------------------------
     A        116     116       0       0       0       0
   -------------------------------------------------------
    Total     116     116      18      18      18       0
   -------------------------------------------------------

  ==> Integral Setup <==

  Using integral reordering PK algorithm.
  Sizing the integral batches needed.
  Building batch lookup table.
   Calculation information:
      Number of atoms:                  16
      Number of AO shells:              60
      Number of primitives:            148
      Number of atomic orbitals:       120
      Number of basis functions:       116

      Integral cutoff                 1.00e-12
      Number of threads:                 1

	Batch   1 pq = [       0,    6786] index = [             0,23028291] size =     23028291
  Task number: 3
  Buffer size: 11059200
  Buffer per thread: 2
  We computed 1398787 shell quartets total.
  Whereas there are 1675365 unique shell quartets.

  ==> DiskJK: Disk-Based J/K Matrices <==

    J tasked:                  Yes
    K tasked:                  Yes
    wK tasked:                  No
    Memory [MiB]:              375
    Schwarz Cutoff:          1E-12

    OpenMP threads:              1

  Minimum eigenvalue in the overlap matrix is 6.9835682817E-03.
  Using Symmetric Orthogonalization.

  SCF Guess: Superposition of Atomic Densities via on-the-fly atomic UHF.

  ==> Iterations <==

                        Total Energy        Delta E     RMS |[F,P]|

   @RHF iter SAD:  -157.26578159067262   -1.57266e+02   0.00000e+00
   @RHF iter   1:  -158.30991266663625   -1.04413e+00   4.13847e-03 DIIS
   @RHF iter   2:  -158.43989276907115   -1.29980e-01   1.73768e-03 DIIS
   @RHF iter   3:  -158.46194108956661   -2.20483e-02   3.44053e-04 DIIS
   @RHF iter   4:  -158.46371220076793   -1.77111e-03   3.83056e-05 DIIS
   @RHF iter   5:  -158.46373528156965   -2.30808e-05   6.59872e-06 DIIS
   @RHF iter   6:  -158.46373592407329   -6.42504e-07   1.22800e-06 DIIS
   @RHF iter   7:  -158.46373593882501   -1.47517e-08   3.34998e-07 DIIS
   @RHF iter   8:  -158.46373593993482   -1.10981e-09   4.29883e-08 DIIS
   @RHF iter   9:  -158.46373593996307   -2.82512e-11   8.40488e-09 DIIS
   @RHF iter  10:  -158.46373593996415   -1.08002e-12   2.03129e-09 DIIS
   @RHF iter  11:  -158.46373593996429   -1.42109e-13   4.36349e-10 DIIS
   @RHF iter  12:  -158.46373593996429    0.00000e+00   1.38987e-10 DIIS
   @RHF iter  13:  -158.46373593996441   -1.13687e-13   2.76820e-11 DIIS
  Energy and wave function converged.

  ==> Post-Iterations <==

    Orbital Energies [Eh]
    ---------------------

    Doubly Occupied:

       1A    -11.220388     2A    -11.220272     3A    -11.218207
       4A    -11.216194     5A     -1.016384     6A     -1.007159
       7A     -0.841382     8A     -0.836994     9A     -0.601463
      10A     -0.596338    11A     -0.593686    12A     -0.592382
      13A     -0.498797    14A     -0.494337    15A     -0.490081
      16A     -0.488825    17A     -0.485504    18A     -0.480705

    Virtual:

      19A      0.171326    20A      0.194328    21A      0.224564
      22A      0.229680    23A      0.238574    24A      0.260185
      25A      0.266453    26A      0.275809    27A      0.281573
      28A      0.303929    29A      0.313928    30A      0.325407
      31A      0.383556    32A      0.393386    33A      0.559153
      34A      0.593496    35A      0.595952    36A      0.603638
      37A      0.618403    38A      0.650169    39A      0.673089
      40A      0.685624    41A      0.702206    42A      0.762198
      43A      0.821208    44A      0.852353    45A      0.884995
      46A      0.891150    47A      0.894701    48A      0.898905
      49A      0.903461    50A      0.912388    51A      0.914316
      52A      0.924304    53A      0.933081    54A      0.956704
      55A      0.973396    56A      0.997484    57A      1.116900
      58A      1.118594    59A      1.132374    60A      1.139358
      61A      1.219726    62A      1.250334    63A      1.459201
      64A      1.468552    65A      1.477180    66A      1.489064
      67A      1.571427    68A      1.588699    69A      1.674684
      70A      1.684427    71A      1.694050    72A      1.695497
      73A      1.843961    74A      1.853667    75A      1.866219
      76A      1.870532    77A      1.888586    78A      1.914570
      79A      1.926797    80A      1.930362    81A      1.933939
      82A      1.936233    83A      1.941710    84A      1.952843
      85A      1.958894    86A      1.965803    87A      1.980056
      88A      2.056758    89A      2.087722    90A      2.117896
      91A      2.142577    92A      2.156125    93A      2.280670
      94A      2.289093    95A      2.303468    96A      2.336077
      97A      2.433692    98A      2.437298    99A      2.451175
     100A      2.476102   101A      2.555908   102A      2.574650
     103A      2.586058   104A      2.593299   105A      2.763015
     106A      2.779426   107A      2.793866   108A      2.794125
     109A      2.826845   110A      2.838161   111A      2.850001
     112A      2.858001   113A      2.923462   114A      2.949911
     115A      2.956444   116A      2.968203

    Final Occupation by Irrep:
              A
    DOCC [    18 ]

  @RHF Final Energy:  -158.46373593996441

   => Energetics <=

    Nuclear Repulsion Energy =            121.0150198966725128
    One-Electron Energy =                -451.1593141347833580
    Two-Electron Energy =                 171.6805582981464227
    Total Energy =                       -158.4637359399644083

Computation Completed

Properties will be evaluated at   0.000000,   0.000000,   0.000000 [a0]

Properties computed using the SCF density matrix

  Nuclear Dipole Moment: [e a0]
     X:     0.0128      Y:    -0.0334      Z:    -0.0199

  Electronic Dipole Moment: [e a0]
     X:    -0.0171      Y:     0.0293      Z:     0.0200

  Dipole Moment: [e a0]
     X:    -0.0044      Y:    -0.0041      Z:     0.0001     Total:     0.0060

  Dipole Moment: [D]
     X:    -0.0111      Y:    -0.0105      Z:     0.0004     Total:     0.0153

*** tstop() called on ds3 at Tue Apr 28 12:02:34 2020
Module time:
	user time   =       8.03 seconds =       0.13 minutes
	system time =       3.67 seconds =       0.06 minutes
	total time  =         11 seconds =       0.18 minutes
Total time:
	user time   =       8.03 seconds =       0.13 minutes
	system time =       3.67 seconds =       0.06 minutes
	total time  =         11 seconds =       0.18 minutes
                                     G D M A

                                 by Anthony Stone

                           version 2.2.06, 22 June 2011

               Distributed Multipoles from Gaussian wavefunctions

Starting at 12:2:34 on 28 Apr 2020

Using SCF density matrix from file ./SSI/SSI-179ALA-250ILE-1-dimer.test.31308.fchk

                         Distributed Multipole Analysis

Standard DMA

Positions and radii in angstrom
Multipole moments in atomic units, ea_0^k for rank k

C          x = -0.132536  y = -1.043751  z =  1.182696 angstrom
           Maximum rank =  0   Radius =  0.650 angstrom
                   Q00  =  -0.252378

C          x = -0.164536  y = -2.181751  z =  2.223696 angstrom
           Maximum rank =  0   Radius =  0.650 angstrom
                   Q00  =  -0.228465

H          x = -1.106536  y = -0.581751  z =  1.138696 angstrom
           Maximum rank =  0   Radius =  0.325 angstrom
                   Q00  =   0.077405

H          x =  0.597464  y = -0.286751  z =  1.461696 angstrom
           Maximum rank =  0   Radius =  0.325 angstrom
                   Q00  =   0.081896

H          x =  0.105464  y = -1.451751  z =  0.201696 angstrom
           Maximum rank =  0   Radius =  0.325 angstrom
                   Q00  =   0.081239

H          x =  0.788464  y = -2.702751  z =  2.114696 angstrom
           Maximum rank =  0   Radius =  0.325 angstrom
                   Q00  =   0.074764

H          x = -0.998586  y = -2.865931  z =  2.008626 angstrom
           Maximum rank =  0   Radius =  0.325 angstrom
                   Q00  =   0.083356

H          x = -0.186026  y = -1.792141  z =  3.252156 angstrom
           Maximum rank =  0   Radius =  0.325 angstrom
                   Q00  =   0.082320

C          x =  0.015464  y =  0.913249  z = -2.035304 angstrom
           Maximum rank =  0   Radius =  0.650 angstrom
                   Q00  =  -0.253169

C          x =  0.280464  y =  2.315249  z = -1.369304 angstrom
           Maximum rank =  0   Radius =  0.650 angstrom
                   Q00  =  -0.244461

H          x =  0.876464  y =  0.259249  z = -1.916304 angstrom
           Maximum rank =  0   Radius =  0.325 angstrom
                   Q00  =   0.082285

H          x = -0.841536  y =  0.447249  z = -1.549304 angstrom
           Maximum rank =  0   Radius =  0.325 angstrom
                   Q00  =   0.083195

H          x = -0.194536  y =  1.027249  z = -3.097304 angstrom
           Maximum rank =  0   Radius =  0.325 angstrom
                   Q00  =   0.082689

H          x =  0.686464  y =  2.175249  z = -0.366304 angstrom
           Maximum rank =  0   Radius =  0.325 angstrom
                   Q00  =   0.084741

H          x = -0.676536  y =  2.815249  z = -1.286304 angstrom
           Maximum rank =  0   Radius =  0.325 angstrom
                   Q00  =   0.081589

H          x =  0.963044  y =  2.921179  z = -1.983264 angstrom
           Maximum rank =  0   Radius =  0.325 angstrom
                   Q00  =   0.082994

Total multipoles referred to origin at
           x =   0.000000,  y =    0.000000,  z =    0.000000 angstrom
                   Q00  =  -0.000000

Finished at 12:2:34 on 28 Apr 2020

  DMA results are available in the Python driver through the
	  variable('DMA DISTRIBUTED MULTIPOLES')
  and
	  variable('DMA TOTAL MULTIPOLES')
  commands.

    Psi4 stopped on: Tuesday, 28 April 2020 12:02PM
    Psi4 wall time for execution: 0:00:11.52

*** Psi4 exiting successfully. Buy a developer a beer!
