                               Psi4 1.3.2 release

  ==> Input File <==

--------------------------------------------------------------------------
import numpy as np
set {scf_type pk
basis cc-pvdz
d_convergence 10
gdma_switch   0
gdma_limit    0
gdma_origin   [ 0.0,  0.0,  0.0 ]
}
molecule test {
    units Angstrom
    0 1
    --
    0 1
    C               -0.014447246244662     5.310692063832571     0.276039122193663
    C                0.124552753755338     1.393692063832571     2.038039122193664
    C               -1.037447246244661     1.832692063832571     1.413039122193663
    C                1.242552753755338     2.222692063832571     2.090039122193663
    C               -1.080447246244661     3.101692063832571     0.843039122193663
    C                1.189552753755338     3.489692063832571     1.518039122193663
    C                0.033552753755338     3.935692063832571     0.883039122193663
    O                0.177552753755338     0.155692063832571     2.602039122193663
    H               -1.904447246244661     1.192692063832571     1.377039122193664
    H               -0.671447246244661    -0.343307936167429     2.593039122193663
    H                2.141552753755338     1.878692063832571     2.577039122193663
    H               -1.991447246244661     3.444692063832571     0.370039122193663
    H                2.060552753755339     4.131692063832570     1.567039122193663
    H               -0.763447246244662     5.339692063832571    -0.517960877806337
    H                0.956552753755339     5.508692063832570    -0.175960877806337
    H               -0.229347246244662     6.091692063832570     1.020258122193663
    C                1.899552753755339    -1.272307936167429    -0.108960877806337
    C                2.228552753755339    -2.175307936167429     1.075039122193663
    C                0.738552753755338    -1.814307936167429    -0.905960877806337
    C               -0.562447246244662    -1.674307936167429    -0.432960877806337
    C                0.951552753755339    -2.504307936167429    -2.096960877806337
    C               -1.638447246244662    -2.187307936167429    -1.144960877806336
    C               -0.119447246244662    -3.021307936167430    -2.819960877806337
    C               -1.415447246244662    -2.862307936167429    -2.339960877806337
    O               -2.472447246244661    -3.360307936167430    -3.030960877806337
    H                1.647552753755338    -0.274307936167429     0.250039122193663
    H                2.776552753755338    -1.180307936167429    -0.750960877806337
    H                1.316552753755339    -2.261307936167429     1.668039122193663
    H               -0.741447246244662    -1.147307936167429     0.493039122193663
    H                1.961552753755338    -2.643307936167429    -2.459960877806337
    H               -2.641447246244661    -2.067307936167429    -0.760960877806337
    H                0.036552753755338    -3.546307936167429    -3.748960877806337
    H               -3.291447246244662    -3.292307936167429    -2.538960877806337
    H                3.013000753755338    -1.745297936167429     1.715142122193663
    H                2.498882753755338    -3.180009936167429     0.717972122193663

}
e, wfn = energy('scf', return_wfn=True)
gdma(wfn)
dmavals = variable('DMA DISTRIBUTED MULTIPOLES')
charges = np.array(dmavals)
print(charges)
np.save('SSI-210TYR-286TYR-1-dimer.npy', np.array(charges))--------------------------------------------------------------------------

*** tstart() called on ds3
*** at Mon Apr 27 06:58:01 2020

   => Loading Basis Set <=

    Name: CC-PVDZ
    Role: ORBITAL
    Keyword: BASIS
    atoms 1-7, 17-24  entry C          line   138 file /theoryfs2/ds/metcalf/miniconda2/envs/tf2gpu/share/psi4/basis/cc-pvdz.gbs
    atoms 8, 25       entry O          line   198 file /theoryfs2/ds/metcalf/miniconda2/envs/tf2gpu/share/psi4/basis/cc-pvdz.gbs
    atoms 9-16, 26-35 entry H          line    22 file /theoryfs2/ds/metcalf/miniconda2/envs/tf2gpu/share/psi4/basis/cc-pvdz.gbs

         ---------------------------------------------------------
                                   SCF
               by Justin Turney, Rob Parrish, Andy Simmonett
                          and Daniel G. A. Smith
                              RHF Reference
                        1 Threads,    500 MiB Core
         ---------------------------------------------------------

  ==> Geometry <==

    Molecular point group: c1
    Full point group: C1

    Geometry (in Angstrom), charge = 0, multiplicity = 1:

       Center              X                  Y                   Z               Mass
    ------------   -----------------  -----------------  -----------------  -----------------
         C           -0.014447246245     5.310692063833     0.276039122194    12.000000000000
         C            0.124552753755     1.393692063833     2.038039122194    12.000000000000
         C           -1.037447246245     1.832692063833     1.413039122194    12.000000000000
         C            1.242552753755     2.222692063833     2.090039122194    12.000000000000
         C           -1.080447246245     3.101692063833     0.843039122194    12.000000000000
         C            1.189552753755     3.489692063833     1.518039122194    12.000000000000
         C            0.033552753755     3.935692063833     0.883039122194    12.000000000000
         O            0.177552753755     0.155692063833     2.602039122194    15.994914619570
         H           -1.904447246245     1.192692063833     1.377039122194     1.007825032230
         H           -0.671447246245    -0.343307936167     2.593039122194     1.007825032230
         H            2.141552753755     1.878692063833     2.577039122194     1.007825032230
         H           -1.991447246245     3.444692063833     0.370039122194     1.007825032230
         H            2.060552753755     4.131692063833     1.567039122194     1.007825032230
         H           -0.763447246245     5.339692063833    -0.517960877806     1.007825032230
         H            0.956552753755     5.508692063833    -0.175960877806     1.007825032230
         H           -0.229347246245     6.091692063833     1.020258122194     1.007825032230
         C            1.899552753755    -1.272307936167    -0.108960877806    12.000000000000
         C            2.228552753755    -2.175307936167     1.075039122194    12.000000000000
         C            0.738552753755    -1.814307936167    -0.905960877806    12.000000000000
         C           -0.562447246245    -1.674307936167    -0.432960877806    12.000000000000
         C            0.951552753755    -2.504307936167    -2.096960877806    12.000000000000
         C           -1.638447246245    -2.187307936167    -1.144960877806    12.000000000000
         C           -0.119447246245    -3.021307936167    -2.819960877806    12.000000000000
         C           -1.415447246245    -2.862307936167    -2.339960877806    12.000000000000
         O           -2.472447246245    -3.360307936167    -3.030960877806    15.994914619570
         H            1.647552753755    -0.274307936167     0.250039122194     1.007825032230
         H            2.776552753755    -1.180307936167    -0.750960877806     1.007825032230
         H            1.316552753755    -2.261307936167     1.668039122194     1.007825032230
         H           -0.741447246245    -1.147307936167     0.493039122194     1.007825032230
         H            1.961552753755    -2.643307936167    -2.459960877806     1.007825032230
         H           -2.641447246245    -2.067307936167    -0.760960877806     1.007825032230
         H            0.036552753755    -3.546307936167    -3.748960877806     1.007825032230
         H           -3.291447246245    -3.292307936167    -2.538960877806     1.007825032230
         H            3.013000753755    -1.745297936167     1.715142122194     1.007825032230
         H            2.498882753755    -3.180009936167     0.717972122194     1.007825032230

  Running in c1 symmetry.

  Rotational constants: A =      0.02350  B =      0.00700  C =      0.00623 [cm^-1]
  Rotational constants: A =    704.61249  B =    209.96241  C =    186.85853 [MHz]
  Nuclear repulsion = 1110.397695115395436

  Charge       = 0
  Multiplicity = 1
  Electrons    = 124
  Nalpha       = 62
  Nbeta        = 62

  ==> Algorithm <==

  SCF Algorithm Type is PK.
  DIIS enabled.
  MOM disabled.
  Fractional occupation disabled.
  Guess Type is SAD.
  Energy threshold   = 1.00e-06
  Density threshold  = 1.00e-10
  Integral threshold = 0.00e+00

  ==> Primary Basis <==

  Basis Set: CC-PVDZ
    Blend: CC-PVDZ
    Number of shells: 156
    Number of basis function: 328
    Number of Cartesian functions: 345
    Spherical Harmonics?: true
    Max angular momentum: 2

  ==> Pre-Iterations <==

   -------------------------------------------------------
    Irrep   Nso     Nmo     Nalpha   Nbeta   Ndocc  Nsocc
   -------------------------------------------------------
     A        328     328       0       0       0       0
   -------------------------------------------------------
    Total     328     328      62      62      62       0
   -------------------------------------------------------

  ==> Integral Setup <==

  Using integral reordering PK algorithm.
  Sizing the integral batches needed.
  Building batch lookup table.
   Calculation information:
      Number of atoms:                  35
      Number of AO shells:             156
      Number of primitives:            464
      Number of atomic orbitals:       345
      Number of basis functions:       328

      Integral cutoff                 1.00e-12
      Number of threads:                 1

	Batch   1 pq = [       0,    9405] index = [             0,44231715] size =     44231715
	Batch   2 pq = [    9405,   13301] index = [      44231715,88464951] size =     44233236
	Batch   3 pq = [   13301,   16290] index = [      88464951,132690195] size =     44225244
	Batch   4 pq = [   16290,   18810] index = [     132690195,176917455] size =     44227260
	Batch   5 pq = [   18810,   21030] index = [     176917455,221140965] size =     44223510
	Batch   6 pq = [   21030,   23037] index = [     221140965,265363203] size =     44222238
	Batch   7 pq = [   23037,   24883] index = [     265363203,309594286] size =     44231083
	Batch   8 pq = [   24883,   26601] index = [     309594286,353819901] size =     44225615
	Batch   9 pq = [   26601,   28214] index = [     353819901,398029005] size =     44209104
	Batch  10 pq = [   28214,   29740] index = [     398029005,442248670] size =     44219665
	Batch  11 pq = [   29740,   31191] index = [     442248670,486454836] size =     44206166
	Batch  12 pq = [   31191,   32578] index = [     486454836,530679331] size =     44224495
	Batch  13 pq = [   32578,   33908] index = [     530679331,574893186] size =     44213855
	Batch  14 pq = [   33908,   35188] index = [     574893186,619115266] size =     44222080
	Batch  15 pq = [   35188,   36423] index = [     619115266,663335676] size =     44220410
	Batch  16 pq = [   36423,   37617] index = [     663335676,707538153] size =     44202477
	Batch  17 pq = [   37617,   38775] index = [     707538153,751769700] size =     44231547
	Batch  18 pq = [   38775,   39899] index = [     751769700,795985050] size =     44215350
	Batch  19 pq = [   39899,   40992] index = [     795985050,840192528] size =     44207478
	Batch  20 pq = [   40992,   42057] index = [     840192528,884416653] size =     44224125
	Batch  21 pq = [   42057,   43095] index = [     884416653,928611060] size =     44194407
	Batch  22 pq = [   43095,   44109] index = [     928611060,972823995] size =     44212935
	Batch  23 pq = [   44109,   45100] index = [     972823995,1017027550] size =     44203555
	Batch  24 pq = [   45100,   46070] index = [    1017027550,1061245485] size =     44217935
	Batch  25 pq = [   46070,   47020] index = [    1061245485,1105463710] size =     44218225
	Batch  26 pq = [   47020,   47951] index = [    1105463710,1149673176] size =     44209466
	Batch  27 pq = [   47951,   48864] index = [    1149673176,1193869680] size =     44196504
	Batch  28 pq = [   48864,   49761] index = [    1193869680,1238103441] size =     44233761
	Batch  29 pq = [   49761,   50642] index = [    1238103441,1282331403] size =     44227962
	Batch  30 pq = [   50642,   51508] index = [    1282331403,1326562786] size =     44231383
	Batch  31 pq = [   51508,   52359] index = [    1326562786,1370758620] size =     44195834
	Batch  32 pq = [   52359,   53197] index = [    1370758620,1414987003] size =     44228383
	Batch  33 pq = [   53197,   53956] index = [    1414987003,1455651946] size =     40664943
  Task number: 132
  Buffer size: 11059200
  Buffer per thread: 2
  We computed 73516807 shell quartets total.
  Whereas there are 74988381 unique shell quartets.

  ==> DiskJK: Disk-Based J/K Matrices <==

    J tasked:                  Yes
    K tasked:                  Yes
    wK tasked:                  No
    Memory [MiB]:              375
    Schwarz Cutoff:          1E-12

    OpenMP threads:              1

  Minimum eigenvalue in the overlap matrix is 2.9816360959E-04.
  Using Symmetric Orthogonalization.

  SCF Guess: Superposition of Atomic Densities via on-the-fly atomic UHF.

  ==> Iterations <==

                        Total Energy        Delta E     RMS |[F,P]|

   @RHF iter SAD:  -727.09599715595323   -7.27096e+02   0.00000e+00
   @RHF iter   1:  -727.89764701599074   -8.01650e-01   2.34286e-03 DIIS
   @RHF iter   2:  -728.22339689714556   -3.25750e-01   1.00086e-03 DIIS
   @RHF iter   3:  -728.27635203053865   -5.29551e-02   2.40857e-04 DIIS
   @RHF iter   4:  -728.28090423090816   -4.55220e-03   1.03703e-04 DIIS
   @RHF iter   5:  -728.28158466568379   -6.80435e-04   1.59153e-05 DIIS
   @RHF iter   6:  -728.28161245427259   -2.77886e-05   5.40925e-06 DIIS
   @RHF iter   7:  -728.28161534333628   -2.88906e-06   1.82560e-06 DIIS
   @RHF iter   8:  -728.28161574226078   -3.98924e-07   5.95313e-07 DIIS
   @RHF iter   9:  -728.28161578692266   -4.46619e-08   1.86771e-07 DIIS
   @RHF iter  10:  -728.28161579161076   -4.68810e-09   6.55845e-08 DIIS
   @RHF iter  11:  -728.28161579267351   -1.06274e-09   3.03460e-08 DIIS
   @RHF iter  12:  -728.28161579294874   -2.75236e-10   1.63391e-08 DIIS
   @RHF iter  13:  -728.28161579302252   -7.37828e-11   6.70300e-09 DIIS
   @RHF iter  14:  -728.28161579303662   -1.40972e-11   2.06120e-09 DIIS
   @RHF iter  15:  -728.28161579304333   -6.70752e-12   6.47822e-10 DIIS
   @RHF iter  16:  -728.28161579304026    3.06954e-12   2.71753e-10 DIIS
   @RHF iter  17:  -728.28161579303469    5.57066e-12   1.11622e-10 DIIS
   @RHF iter  18:  -728.28161579304140   -6.70752e-12   5.28618e-11 DIIS
  Energy and wave function converged.

  ==> Post-Iterations <==

    Orbital Energies [Eh]
    ---------------------

    Doubly Occupied:

       1A    -20.592488     2A    -20.580645     3A    -11.303273
       4A    -11.296502     5A    -11.240823     6A    -11.240363
       7A    -11.236000     8A    -11.235869     9A    -11.234855
      10A    -11.234583    11A    -11.234135    12A    -11.230991
      13A    -11.229058    14A    -11.227145    15A    -11.225596
      16A    -11.217171    17A    -11.211793    18A     -1.402173
      19A     -1.401336    20A     -1.154528    21A     -1.150446
      22A     -1.053118    23A     -1.040888    24A     -1.021419
      25A     -1.016794    26A     -0.970190    27A     -0.928689
      28A     -0.853239    29A     -0.847995    30A     -0.841933
      31A     -0.806380    32A     -0.788277    33A     -0.736801
      34A     -0.732322    35A     -0.671406    36A     -0.669878
      37A     -0.645622    38A     -0.642782    39A     -0.611099
      40A     -0.609075    41A     -0.600766    42A     -0.590602
      43A     -0.583827    44A     -0.583492    45A     -0.582593
      46A     -0.573085    47A     -0.569932    48A     -0.565704
      49A     -0.539662    50A     -0.528394    51A     -0.510561
      52A     -0.499833    53A     -0.492141    54A     -0.487917
      55A     -0.472070    56A     -0.469241    57A     -0.466568
      58A     -0.460890    59A     -0.342191    60A     -0.336925
      61A     -0.305147    62A     -0.297868

    Virtual:

      63A      0.124495    64A      0.133857    65A      0.152681
      66A      0.156360    67A      0.159409    68A      0.182509
      69A      0.185959    70A      0.200340    71A      0.208732
      72A      0.211164    73A      0.227795    74A      0.243755
      75A      0.246736    76A      0.253337    77A      0.265110
      78A      0.273025    79A      0.278158    80A      0.289644
      81A      0.298807    82A      0.300762    83A      0.309078
      84A      0.337852    85A      0.356796    86A      0.369064
      87A      0.372635    88A      0.391317    89A      0.418713
      90A      0.430418    91A      0.436086    92A      0.452876
      93A      0.472772    94A      0.480337    95A      0.487428
      96A      0.495573    97A      0.498537    98A      0.513716
      99A      0.520920   100A      0.600611   101A      0.606061
     102A      0.610726   103A      0.632518   104A      0.640335
     105A      0.643459   106A      0.657349   107A      0.659612
     108A      0.671546   109A      0.677049   110A      0.685812
     111A      0.693629   112A      0.697126   113A      0.711361
     114A      0.717718   115A      0.722317   116A      0.727256
     117A      0.731099   118A      0.738328   119A      0.742038
     120A      0.747610   121A      0.755875   122A      0.766054
     123A      0.773799   124A      0.778098   125A      0.784929
     126A      0.790311   127A      0.814324   128A      0.817820
     129A      0.827880   130A      0.831505   131A      0.850792
     132A      0.855004   133A      0.864549   134A      0.868550
     135A      0.874111   136A      0.883541   137A      0.885648
     138A      0.889304   139A      0.894717   140A      0.896965
     141A      0.900180   142A      0.907462   143A      0.914421
     144A      0.926329   145A      0.929261   146A      0.937531
     147A      0.940909   148A      0.941452   149A      0.948754
     150A      0.965332   151A      0.974226   152A      0.980249
     153A      0.992337   154A      1.006145   155A      1.020881
     156A      1.034915   157A      1.038607   158A      1.054017
     159A      1.090278   160A      1.110884   161A      1.123564
     162A      1.129608   163A      1.143102   164A      1.147672
     165A      1.158090   166A      1.166242   167A      1.180128
     168A      1.184837   169A      1.203662   170A      1.218074
     171A      1.233466   172A      1.244220   173A      1.248209
     174A      1.250377   175A      1.264876   176A      1.270508
     177A      1.285588   178A      1.292761   179A      1.301378
     180A      1.306828   181A      1.313759   182A      1.318318
     183A      1.324102   184A      1.344959   185A      1.347519
     186A      1.357249   187A      1.362348   188A      1.384495
     189A      1.393159   190A      1.415326   191A      1.440167
     192A      1.461853   193A      1.482754   194A      1.498472
     195A      1.500823   196A      1.525910   197A      1.551491
     198A      1.553442   199A      1.562650   200A      1.614254
     201A      1.616459   202A      1.629314   203A      1.653456
     204A      1.671601   205A      1.681008   206A      1.698754
     207A      1.705570   208A      1.708408   209A      1.728769
     210A      1.734864   211A      1.744903   212A      1.754991
     213A      1.779401   214A      1.786083   215A      1.799197
     216A      1.804624   217A      1.807583   218A      1.845487
     219A      1.855474   220A      1.874864   221A      1.882395
     222A      1.886458   223A      1.887421   224A      1.899862
     225A      1.902875   226A      1.906172   227A      1.907503
     228A      1.913132   229A      1.920613   230A      1.925307
     231A      1.929486   232A      1.940998   233A      1.949259
     234A      1.954401   235A      1.967763   236A      1.970165
     237A      1.973812   238A      1.978770   239A      1.979705
     240A      2.001768   241A      2.005240   242A      2.030120
     243A      2.031978   244A      2.035081   245A      2.046608
     246A      2.051884   247A      2.059563   248A      2.062168
     249A      2.071245   250A      2.073395   251A      2.084014
     252A      2.100514   253A      2.108765   254A      2.131147
     255A      2.144930   256A      2.149868   257A      2.153845
     258A      2.155872   259A      2.182462   260A      2.198294
     261A      2.200285   262A      2.226445   263A      2.244838
     264A      2.259824   265A      2.261275   266A      2.277033
     267A      2.280523   268A      2.293427   269A      2.310861
     270A      2.316545   271A      2.337261   272A      2.358123
     273A      2.367005   274A      2.386163   275A      2.424618
     276A      2.430573   277A      2.462589   278A      2.465618
     279A      2.470972   280A      2.480598   281A      2.484475
     282A      2.505634   283A      2.524002   284A      2.537349
     285A      2.544996   286A      2.555283   287A      2.587920
     288A      2.592884   289A      2.605647   290A      2.639455
     291A      2.648908   292A      2.660982   293A      2.750048
     294A      2.766414   295A      2.769883   296A      2.784891
     297A      2.787934   298A      2.804388   299A      2.813230
     300A      2.829506   301A      2.840083   302A      2.872259
     303A      2.898232   304A      2.905360   305A      2.927479
     306A      2.965500   307A      2.975552   308A      2.995330
     309A      3.016454   310A      3.031416   311A      3.090041
     312A      3.105517   313A      3.111176   314A      3.182621
     315A      3.227124   316A      3.257914   317A      3.281853
     318A      3.299910   319A      3.346736   320A      3.356320
     321A      3.565867   322A      3.585205   323A      3.658419
     324A      3.680491   325A      3.984635   326A      3.990307
     327A      4.167444   328A      4.197621

    Final Occupation by Irrep:
              A
    DOCC [    62 ]

  @RHF Final Energy:  -728.28161579304140

   => Energetics <=

    Nuclear Repulsion Energy =           1110.3976951153954360
    One-Electron Energy =               -3194.9044475834889454
    Two-Electron Energy =                1356.2251366750519992
    Total Energy =                       -728.2816157930415102

Computation Completed

Properties will be evaluated at   0.000000,   0.000000,   0.000000 [a0]

Properties computed using the SCF density matrix

  Nuclear Dipole Moment: [e a0]
     X:     5.7777      Y:     5.5220      Z:     3.1806

  Electronic Dipole Moment: [e a0]
     X:    -6.4435      Y:    -5.0997      Z:    -2.7922

  Dipole Moment: [e a0]
     X:    -0.6658      Y:     0.4223      Z:     0.3884     Total:     0.8789

  Dipole Moment: [D]
     X:    -1.6923      Y:     1.0734      Z:     0.9872     Total:     2.2339

*** tstop() called on ds3 at Mon Apr 27 07:22:27 2020
Module time:
	user time   =     668.19 seconds =      11.14 minutes
	system time =     235.83 seconds =       3.93 minutes
	total time  =       1466 seconds =      24.43 minutes
Total time:
	user time   =     668.19 seconds =      11.14 minutes
	system time =     235.83 seconds =       3.93 minutes
	total time  =       1466 seconds =      24.43 minutes
                                     G D M A

                                 by Anthony Stone

                           version 2.2.06, 22 June 2011

               Distributed Multipoles from Gaussian wavefunctions

Starting at 7:22:27 on 27 Apr 2020

Using SCF density matrix from file ./SSI/SSI-210TYR-286TYR-1-dimer.test.12820.fchk

                         Distributed Multipole Analysis

Standard DMA

Positions and radii in angstrom
Multipole moments in atomic units, ea_0^k for rank k

C          x = -0.014447  y =  5.310692  z =  0.276039 angstrom
           Maximum rank =  0   Radius =  0.650 angstrom
                   Q00  =  -0.189933

C          x =  0.124553  y =  1.393692  z =  2.038039 angstrom
           Maximum rank =  0   Radius =  0.650 angstrom
                   Q00  =   0.309544

C          x = -1.037447  y =  1.832692  z =  1.413039 angstrom
           Maximum rank =  0   Radius =  0.650 angstrom
                   Q00  =  -0.190384

C          x =  1.242553  y =  2.222692  z =  2.090039 angstrom
           Maximum rank =  0   Radius =  0.650 angstrom
                   Q00  =  -0.107236

C          x = -1.080447  y =  3.101692  z =  0.843039 angstrom
           Maximum rank =  0   Radius =  0.650 angstrom
                   Q00  =   0.028225

C          x =  1.189553  y =  3.489692  z =  1.518039 angstrom
           Maximum rank =  0   Radius =  0.650 angstrom
                   Q00  =  -0.024878

C          x =  0.033553  y =  3.935692  z =  0.883039 angstrom
           Maximum rank =  0   Radius =  0.650 angstrom
                   Q00  =  -0.131645

O          x =  0.177553  y =  0.155692  z =  2.602039 angstrom
           Maximum rank =  0   Radius =  0.650 angstrom
                   Q00  =  -0.670231

H          x = -1.904447  y =  1.192692  z =  1.377039 angstrom
           Maximum rank =  0   Radius =  0.325 angstrom
                   Q00  =   0.070116

H          x = -0.671447  y = -0.343308  z =  2.593039 angstrom
           Maximum rank =  0   Radius =  0.325 angstrom
                   Q00  =   0.417913

H          x =  2.141553  y =  1.878692  z =  2.577039 angstrom
           Maximum rank =  0   Radius =  0.325 angstrom
                   Q00  =   0.081659

H          x = -1.991447  y =  3.444692  z =  0.370039 angstrom
           Maximum rank =  0   Radius =  0.325 angstrom
                   Q00  =   0.069883

H          x =  2.060553  y =  4.131692  z =  1.567039 angstrom
           Maximum rank =  0   Radius =  0.325 angstrom
                   Q00  =   0.063604

H          x = -0.763447  y =  5.339692  z = -0.517961 angstrom
           Maximum rank =  0   Radius =  0.325 angstrom
                   Q00  =   0.097403

H          x =  0.956553  y =  5.508692  z = -0.175961 angstrom
           Maximum rank =  0   Radius =  0.325 angstrom
                   Q00  =   0.095931

H          x = -0.229347  y =  6.091692  z =  1.020258 angstrom
           Maximum rank =  0   Radius =  0.325 angstrom
                   Q00  =   0.099966

C          x =  1.899553  y = -1.272308  z = -0.108961 angstrom
           Maximum rank =  0   Radius =  0.650 angstrom
                   Q00  =  -0.039663

C          x =  2.228553  y = -2.175308  z =  1.075039 angstrom
           Maximum rank =  0   Radius =  0.650 angstrom
                   Q00  =  -0.228297

C          x =  0.738553  y = -1.814308  z = -0.905961 angstrom
           Maximum rank =  0   Radius =  0.650 angstrom
                   Q00  =  -0.135564

C          x = -0.562447  y = -1.674308  z = -0.432961 angstrom
           Maximum rank =  0   Radius =  0.650 angstrom
                   Q00  =   0.050522

C          x =  0.951553  y = -2.504308  z = -2.096961 angstrom
           Maximum rank =  0   Radius =  0.650 angstrom
                   Q00  =  -0.008917

C          x = -1.638447  y = -2.187308  z = -1.144961 angstrom
           Maximum rank =  0   Radius =  0.650 angstrom
                   Q00  =  -0.181488

C          x = -0.119447  y = -3.021308  z = -2.819961 angstrom
           Maximum rank =  0   Radius =  0.650 angstrom
                   Q00  =  -0.125099

C          x = -1.415447  y = -2.862308  z = -2.339961 angstrom
           Maximum rank =  0   Radius =  0.650 angstrom
                   Q00  =   0.315605

O          x = -2.472447  y = -3.360308  z = -3.030961 angstrom
           Maximum rank =  0   Radius =  0.650 angstrom
                   Q00  =  -0.669737

H          x =  1.647553  y = -0.274308  z =  0.250039 angstrom
           Maximum rank =  0   Radius =  0.325 angstrom
                   Q00  =   0.082695

H          x =  2.776553  y = -1.180308  z = -0.750961 angstrom
           Maximum rank =  0   Radius =  0.325 angstrom
                   Q00  =   0.058567

H          x =  1.316553  y = -2.261308  z =  1.668039 angstrom
           Maximum rank =  0   Radius =  0.325 angstrom
                   Q00  =   0.076088

H          x = -0.741447  y = -1.147308  z =  0.493039 angstrom
           Maximum rank =  0   Radius =  0.325 angstrom
                   Q00  =   0.018791

H          x =  1.961553  y = -2.643308  z = -2.459961 angstrom
           Maximum rank =  0   Radius =  0.325 angstrom
                   Q00  =   0.062856

H          x = -2.641447  y = -2.067308  z = -0.760961 angstrom
           Maximum rank =  0   Radius =  0.325 angstrom
                   Q00  =   0.062579

H          x =  0.036553  y = -3.546308  z = -3.748961 angstrom
           Maximum rank =  0   Radius =  0.325 angstrom
                   Q00  =   0.080152

H          x = -3.291447  y = -3.292308  z = -2.538961 angstrom
           Maximum rank =  0   Radius =  0.325 angstrom
                   Q00  =   0.403683

H          x =  3.013001  y = -1.745298  z =  1.715142 angstrom
           Maximum rank =  0   Radius =  0.325 angstrom
                   Q00  =   0.083256

H          x =  2.498883  y = -3.180010  z =  0.717972 angstrom
           Maximum rank =  0   Radius =  0.325 angstrom
                   Q00  =   0.074034

Total multipoles referred to origin at
           x =   0.000000,  y =    0.000000,  z =    0.000000 angstrom
                   Q00  =  -0.000000

Finished at 7:22:27 on 27 Apr 2020

  DMA results are available in the Python driver through the
	  variable('DMA DISTRIBUTED MULTIPOLES')
  and
	  variable('DMA TOTAL MULTIPOLES')
  commands.

    Psi4 stopped on: Monday, 27 April 2020 07:22AM
    Psi4 wall time for execution: 0:24:25.92

*** Psi4 exiting successfully. Buy a developer a beer!
