                               Psi4 1.3.2 release

  ==> Input File <==

--------------------------------------------------------------------------
import numpy as np
set {scf_type pk
basis cc-pvdz
d_convergence 10
gdma_switch   0
gdma_limit    0
gdma_origin   [ 0.0,  0.0,  0.0 ]
}
molecule test {
    units Angstrom
    0 1
    --
    0 1
    C               -1.600570473128867    -0.920173175930096     2.467791668128195
    C               -1.168570473128867    -2.175173175930095     3.229791668128195
    H               -0.771570473128867    -0.219173175930096     2.381791668128195
    H               -1.942570473128867    -1.198173175930096     1.471791668128196
    H               -2.423570473128867    -0.435173175930096     2.987791668128195
    H               -1.989570473128867    -2.884173175930095     3.279791668128196
    H               -0.854090473128867    -1.914363175930096     4.251101668128196
    H               -0.342920473128867    -2.679253175930095     2.706151668128195
    C               -0.271570473128867    -0.026173175930096    -0.668208331871805
    C               -1.180570473128867    -0.310173175930096    -1.868208331871805
    C                1.264429526871133     2.301826824069904    -0.921208331871805
    S                1.416429526871133     0.510826824069904    -1.087208331871805
    H               -0.723570473128867     0.719826824069905    -0.020208331871805
    H               -0.189570473128867    -0.952173175930096    -0.100208331871805
    H               -2.175570473128867    -0.574173175930096    -1.508208331871805
    H               -0.774570473128867    -1.165173175930096    -2.407208331871805
    H                0.874429526871133     2.551826824069904     0.065791668128195
    H                2.243429526871133     2.763826824069905    -1.045208331871805
    H                0.591429526871133     2.697826824069904    -1.676208331871805
    H               -1.249550473128867     0.536256824069904    -2.567348331871805

}
e, wfn = energy('scf', return_wfn=True)
gdma(wfn)
dmavals = variable('DMA DISTRIBUTED MULTIPOLES')
charges = np.array(dmavals)
print(charges)
np.save('SSI-008ALA-038MET-1-dimer.npy', np.array(charges))--------------------------------------------------------------------------

*** tstart() called on ds3
*** at Mon Apr 27 20:50:38 2020

   => Loading Basis Set <=

    Name: CC-PVDZ
    Role: ORBITAL
    Keyword: BASIS
    atoms 1-2, 9-11  entry C          line   138 file /theoryfs2/ds/metcalf/miniconda2/envs/tf2gpu/share/psi4/basis/cc-pvdz.gbs
    atoms 3-8, 13-20 entry H          line    22 file /theoryfs2/ds/metcalf/miniconda2/envs/tf2gpu/share/psi4/basis/cc-pvdz.gbs
    atoms 12         entry S          line   598 file /theoryfs2/ds/metcalf/miniconda2/envs/tf2gpu/share/psi4/basis/cc-pvdz.gbs

         ---------------------------------------------------------
                                   SCF
               by Justin Turney, Rob Parrish, Andy Simmonett
                          and Daniel G. A. Smith
                              RHF Reference
                        1 Threads,    500 MiB Core
         ---------------------------------------------------------

  ==> Geometry <==

    Molecular point group: c1
    Full point group: C1

    Geometry (in Angstrom), charge = 0, multiplicity = 1:

       Center              X                  Y                   Z               Mass
    ------------   -----------------  -----------------  -----------------  -----------------
         C           -1.600570473129    -0.920173175930     2.467791668128    12.000000000000
         C           -1.168570473129    -2.175173175930     3.229791668128    12.000000000000
         H           -0.771570473129    -0.219173175930     2.381791668128     1.007825032230
         H           -1.942570473129    -1.198173175930     1.471791668128     1.007825032230
         H           -2.423570473129    -0.435173175930     2.987791668128     1.007825032230
         H           -1.989570473129    -2.884173175930     3.279791668128     1.007825032230
         H           -0.854090473129    -1.914363175930     4.251101668128     1.007825032230
         H           -0.342920473129    -2.679253175930     2.706151668128     1.007825032230
         C           -0.271570473129    -0.026173175930    -0.668208331872    12.000000000000
         C           -1.180570473129    -0.310173175930    -1.868208331872    12.000000000000
         C            1.264429526871     2.301826824070    -0.921208331872    12.000000000000
         S            1.416429526871     0.510826824070    -1.087208331872    31.972071174400
         H           -0.723570473129     0.719826824070    -0.020208331872     1.007825032230
         H           -0.189570473129    -0.952173175930    -0.100208331872     1.007825032230
         H           -2.175570473129    -0.574173175930    -1.508208331872     1.007825032230
         H           -0.774570473129    -1.165173175930    -2.407208331872     1.007825032230
         H            0.874429526871     2.551826824070     0.065791668128     1.007825032230
         H            2.243429526871     2.763826824070    -1.045208331872     1.007825032230
         H            0.591429526871     2.697826824070    -1.676208331872     1.007825032230
         H           -1.249550473129     0.536256824070    -2.567348331872     1.007825032230

  Running in c1 symmetry.

  Rotational constants: A =      0.10880  B =      0.02730  C =      0.02462 [cm^-1]
  Rotational constants: A =   3261.88300  B =    818.54029  C =    738.12248 [MHz]
  Nuclear repulsion =  292.218177202120614

  Charge       = 0
  Multiplicity = 1
  Electrons    = 60
  Nalpha       = 30
  Nbeta        = 30

  ==> Algorithm <==

  SCF Algorithm Type is PK.
  DIIS enabled.
  MOM disabled.
  Fractional occupation disabled.
  Guess Type is SAD.
  Energy threshold   = 1.00e-06
  Density threshold  = 1.00e-10
  Integral threshold = 0.00e+00

  ==> Primary Basis <==

  Basis Set: CC-PVDZ
    Blend: CC-PVDZ
    Number of shells: 80
    Number of basis function: 158
    Number of Cartesian functions: 164
    Spherical Harmonics?: true
    Max angular momentum: 2

  ==> Pre-Iterations <==

   -------------------------------------------------------
    Irrep   Nso     Nmo     Nalpha   Nbeta   Ndocc  Nsocc
   -------------------------------------------------------
     A        158     158       0       0       0       0
   -------------------------------------------------------
    Total     158     158      30      30      30       0
   -------------------------------------------------------

  ==> Integral Setup <==

  Using integral reordering PK algorithm.
  Sizing the integral batches needed.
  Building batch lookup table.
   Calculation information:
      Number of atoms:                  20
      Number of AO shells:              80
      Number of primitives:            230
      Number of atomic orbitals:       164
      Number of basis functions:       158

      Integral cutoff                 1.00e-12
      Number of threads:                 1

	Batch   1 pq = [       0,    9405] index = [             0,44231715] size =     44231715
	Batch   2 pq = [    9405,   12561] index = [      44231715,78895641] size =     34663926
  Task number: 8
  Buffer size: 11059200
  Buffer per thread: 2
  We computed 4460292 shell quartets total.
  Whereas there are 5250420 unique shell quartets.

  ==> DiskJK: Disk-Based J/K Matrices <==

    J tasked:                  Yes
    K tasked:                  Yes
    wK tasked:                  No
    Memory [MiB]:              375
    Schwarz Cutoff:          1E-12

    OpenMP threads:              1

  Minimum eigenvalue in the overlap matrix is 6.6947304869E-03.
  Using Symmetric Orthogonalization.

  SCF Guess: Superposition of Atomic Densities via on-the-fly atomic UHF.

  ==> Iterations <==

                        Total Energy        Delta E     RMS |[F,P]|

   @RHF iter SAD:  -593.86920245183455   -5.93869e+02   0.00000e+00
   @RHF iter   1:  -594.84906670307657   -9.79864e-01   3.18114e-03 DIIS
   @RHF iter   2:  -595.00017176057963   -1.51105e-01   1.28505e-03 DIIS
   @RHF iter   3:  -595.02306840694098   -2.28966e-02   2.95808e-04 DIIS
   @RHF iter   4:  -595.02535192169080   -2.28351e-03   5.14044e-05 DIIS
   @RHF iter   5:  -595.02540563417460   -5.37125e-05   1.56613e-05 DIIS
   @RHF iter   6:  -595.02541029353154   -4.65936e-06   3.45452e-06 DIIS
   @RHF iter   7:  -595.02541056939435   -2.75863e-07   8.35135e-07 DIIS
   @RHF iter   8:  -595.02541058951988   -2.01255e-08   2.66851e-07 DIIS
   @RHF iter   9:  -595.02541059177531   -2.25543e-09   8.05816e-08 DIIS
   @RHF iter  10:  -595.02541059199575   -2.20439e-10   2.27967e-08 DIIS
   @RHF iter  11:  -595.02541059201587   -2.01226e-11   5.06988e-09 DIIS
   @RHF iter  12:  -595.02541059201781   -1.93268e-12   1.53179e-09 DIIS
   @RHF iter  13:  -595.02541059201769    1.13687e-13   4.71781e-10 DIIS
   @RHF iter  14:  -595.02541059201644    1.25056e-12   1.06439e-10 DIIS
   @RHF iter  15:  -595.02541059201644    0.00000e+00   3.23019e-11 DIIS
  Energy and wave function converged.

  ==> Post-Iterations <==

    Orbital Energies [Eh]
    ---------------------

    Doubly Occupied:

       1A    -91.932014     2A    -11.256069     3A    -11.254479
       4A    -11.227053     5A    -11.221407     6A    -11.220182
       7A     -8.935714     8A     -6.617760     9A     -6.616183
      10A     -6.614040    11A     -1.074884    12A     -1.021013
      13A     -0.996551    14A     -0.881456    15A     -0.841905
      16A     -0.786112    17A     -0.629031    18A     -0.603341
      19A     -0.600936    20A     -0.595447    21A     -0.583985
      22A     -0.565288    23A     -0.524671    24A     -0.511562
      25A     -0.503239    26A     -0.491171    27A     -0.487641
      28A     -0.474605    29A     -0.418075    30A     -0.329069

    Virtual:

      31A      0.166015    32A      0.181846    33A      0.190806
      34A      0.204259    35A      0.221540    36A      0.235392
      37A      0.242725    38A      0.248741    39A      0.259583
      40A      0.268029    41A      0.269462    42A      0.291882
      43A      0.299586    44A      0.306746    45A      0.321299
      46A      0.333172    47A      0.379311    48A      0.402031
      49A      0.534854    50A      0.567664    51A      0.577081
      52A      0.594111    53A      0.602906    54A      0.613045
      55A      0.614866    56A      0.624652    57A      0.636865
      58A      0.660306    59A      0.685225    60A      0.699729
      61A      0.742813    62A      0.794533    63A      0.810000
      64A      0.817208    65A      0.842669    66A      0.859724
      67A      0.861270    68A      0.868065    69A      0.872794
      70A      0.878698    71A      0.889706    72A      0.890319
      73A      0.892897    74A      0.899722    75A      0.911895
      76A      0.915883    77A      0.923662    78A      0.937922
      79A      0.953835    80A      0.962015    81A      0.965377
      82A      0.986046    83A      1.002244    84A      1.019152
      85A      1.121808    86A      1.148663    87A      1.162448
      88A      1.225954    89A      1.241437    90A      1.263165
      91A      1.318995    92A      1.327845    93A      1.344807
      94A      1.393438    95A      1.446426    96A      1.470853
      97A      1.482238    98A      1.539121    99A      1.572089
     100A      1.651310   101A      1.656064   102A      1.675164
     103A      1.683902   104A      1.686488   105A      1.707921
     106A      1.852759   107A      1.861670   108A      1.868690
     109A      1.879447   110A      1.892688   111A      1.895054
     112A      1.909907   113A      1.923939   114A      1.930485
     115A      1.940249   116A      1.944651   117A      1.946752
     118A      1.952407   119A      1.963685   120A      1.966532
     121A      1.977162   122A      1.998880   123A      2.011131
     124A      2.027972   125A      2.039324   126A      2.073161
     127A      2.099940   128A      2.115671   129A      2.134563
     130A      2.221326   131A      2.250820   132A      2.304759
     133A      2.314035   134A      2.319070   135A      2.326520
     136A      2.419552   137A      2.449287   138A      2.453618
     139A      2.466394   140A      2.477240   141A      2.537929
     142A      2.556628   143A      2.564146   144A      2.580609
     145A      2.751414   146A      2.759249   147A      2.765124
     148A      2.790300   149A      2.794798   150A      2.799440
     151A      2.812815   152A      2.835468   153A      2.854403
     154A      2.868160   155A      2.894672   156A      2.955655
     157A      2.970902   158A      2.987671

    Final Occupation by Irrep:
              A
    DOCC [    30 ]

  @RHF Final Energy:  -595.02541059201644

   => Energetics <=

    Nuclear Repulsion Energy =            292.2181772021206143
    One-Electron Energy =               -1394.8574118695671586
    Two-Electron Energy =                 507.6138240754301592
    Total Energy =                       -595.0254105920164420

Computation Completed

Properties will be evaluated at   0.000000,   0.000000,   0.000000 [a0]

Properties computed using the SCF density matrix

  Nuclear Dipole Moment: [e a0]
     X:    -9.0822      Y:    -2.5667      Z:     7.3020

  Electronic Dipole Moment: [e a0]
     X:     8.5093      Y:     2.9080      Z:    -7.1122

  Dipole Moment: [e a0]
     X:    -0.5729      Y:     0.3413      Z:     0.1898     Total:     0.6933

  Dipole Moment: [D]
     X:    -1.4561      Y:     0.8676      Z:     0.4824     Total:     1.7623

*** tstop() called on ds3 at Mon Apr 27 20:51:20 2020
Module time:
	user time   =      32.20 seconds =       0.54 minutes
	system time =      11.40 seconds =       0.19 minutes
	total time  =         42 seconds =       0.70 minutes
Total time:
	user time   =      32.20 seconds =       0.54 minutes
	system time =      11.40 seconds =       0.19 minutes
	total time  =         42 seconds =       0.70 minutes
                                     G D M A

                                 by Anthony Stone

                           version 2.2.06, 22 June 2011

               Distributed Multipoles from Gaussian wavefunctions

Starting at 20:51:20 on 27 Apr 2020

Using SCF density matrix from file ./SSI/SSI-008ALA-038MET-1-dimer.test.19275.fchk

                         Distributed Multipole Analysis

Standard DMA

Positions and radii in angstrom
Multipole moments in atomic units, ea_0^k for rank k

C          x = -1.600570  y = -0.920173  z =  2.467792 angstrom
           Maximum rank =  0   Radius =  0.650 angstrom
                   Q00  =  -0.244546

C          x = -1.168570  y = -2.175173  z =  3.229792 angstrom
           Maximum rank =  0   Radius =  0.650 angstrom
                   Q00  =  -0.231777

H          x = -0.771570  y = -0.219173  z =  2.381792 angstrom
           Maximum rank =  0   Radius =  0.325 angstrom
                   Q00  =   0.080962

H          x = -1.942570  y = -1.198173  z =  1.471792 angstrom
           Maximum rank =  0   Radius =  0.325 angstrom
                   Q00  =   0.074644

H          x = -2.423570  y = -0.435173  z =  2.987792 angstrom
           Maximum rank =  0   Radius =  0.325 angstrom
                   Q00  =   0.080619

H          x = -1.989570  y = -2.884173  z =  3.279792 angstrom
           Maximum rank =  0   Radius =  0.325 angstrom
                   Q00  =   0.080390

H          x = -0.854090  y = -1.914363  z =  4.251102 angstrom
           Maximum rank =  0   Radius =  0.325 angstrom
                   Q00  =   0.081369

H          x = -0.342920  y = -2.679253  z =  2.706152 angstrom
           Maximum rank =  0   Radius =  0.325 angstrom
                   Q00  =   0.078560

C          x = -0.271570  y = -0.026173  z = -0.668208 angstrom
           Maximum rank =  0   Radius =  0.650 angstrom
                   Q00  =  -0.215168

C          x = -1.180570  y = -0.310173  z = -1.868208 angstrom
           Maximum rank =  0   Radius =  0.650 angstrom
                   Q00  =  -0.234001

C          x =  1.264430  y =  2.301827  z = -0.921208 angstrom
           Maximum rank =  0   Radius =  0.650 angstrom
                   Q00  =  -0.356217

S          x =  1.416430  y =  0.510827  z = -1.087208 angstrom
           Maximum rank =  0   Radius =  0.650 angstrom
                   Q00  =   0.102238

H          x = -0.723570  y =  0.719827  z = -0.020208 angstrom
           Maximum rank =  0   Radius =  0.325 angstrom
                   Q00  =   0.069818

H          x = -0.189570  y = -0.952173  z = -0.100208 angstrom
           Maximum rank =  0   Radius =  0.325 angstrom
                   Q00  =   0.080361

H          x = -2.175570  y = -0.574173  z = -1.508208 angstrom
           Maximum rank =  0   Radius =  0.325 angstrom
                   Q00  =   0.084037

H          x = -0.774570  y = -1.165173  z = -2.407208 angstrom
           Maximum rank =  0   Radius =  0.325 angstrom
                   Q00  =   0.087301

H          x =  0.874430  y =  2.551827  z =  0.065792 angstrom
           Maximum rank =  0   Radius =  0.325 angstrom
                   Q00  =   0.086795

H          x =  2.243430  y =  2.763827  z = -1.045208 angstrom
           Maximum rank =  0   Radius =  0.325 angstrom
                   Q00  =   0.121061

H          x =  0.591430  y =  2.697827  z = -1.676208 angstrom
           Maximum rank =  0   Radius =  0.325 angstrom
                   Q00  =   0.085689

H          x = -1.249550  y =  0.536257  z = -2.567348 angstrom
           Maximum rank =  0   Radius =  0.325 angstrom
                   Q00  =   0.087865

Total multipoles referred to origin at
           x =   0.000000,  y =    0.000000,  z =    0.000000 angstrom
                   Q00  =  -0.000000

Finished at 20:51:20 on 27 Apr 2020

  DMA results are available in the Python driver through the
	  variable('DMA DISTRIBUTED MULTIPOLES')
  and
	  variable('DMA TOTAL MULTIPOLES')
  commands.

    Psi4 stopped on: Monday, 27 April 2020 08:51PM
    Psi4 wall time for execution: 0:00:42.70

*** Psi4 exiting successfully. Buy a developer a beer!
