                               Psi4 1.3.2 release

  ==> Input File <==

--------------------------------------------------------------------------
import numpy as np
set {scf_type pk
basis cc-pvdz
d_convergence 10
gdma_switch   0
gdma_limit    0
gdma_origin   [ 0.0,  0.0,  0.0 ]
}
molecule test {
    units Angstrom
    -1 1
    --
    -1 1
    C               -0.130800391122310    -2.791913380173816    -0.492838505859234
    S                1.211579608877690    -1.618843380173816    -0.196138505859234
    C                1.735719608877690    -1.303333380173815    -1.889908505859234
    H               -0.778070391122310    -2.801713380173816     0.359121494140766
    H                0.428529608877690    -3.703463380173816    -0.526328505859234
    H               -0.715660391122310    -2.699383380173815    -1.384058505859234
    H                2.508129608877690    -0.527913380173815    -1.885218505859234
    H                0.899069608877690    -0.959193380173815    -2.500168505859234
    H                2.164389608877690    -2.210913380173816    -2.323108505859234
    C               -1.376800391122310     0.605086619826185     0.432161494140766
    C               -2.706800391122310     0.980086619826185     1.041161494140766
    C               -0.353800391122310     1.762086619826184     0.475161494140766
    O               -0.327800391122310     2.575086619826185     1.408161494140766
    O                0.478199608877690     1.826086619826185    -0.426838505859234
    H               -0.981800391122310    -0.193913380173815     1.047161494140766
    H               -1.522800391122310     0.239086619826185    -0.587838505859234
    H               -3.317800391122310     1.487086619826185     0.293161494140766
    H               -2.548800391122310     1.673086619826185     1.865161494140766
    H               -3.232200391122310     0.109486619826185     1.460761494140766

}
e, wfn = energy('scf', return_wfn=True)
gdma(wfn)
dmavals = variable('DMA DISTRIBUTED MULTIPOLES')
charges = np.array(dmavals)
print(charges)
np.save('SSI-060MET-070GLU-1-dimer.npy', np.array(charges))--------------------------------------------------------------------------

*** tstart() called on ds3
*** at Mon Apr 27 09:43:53 2020

   => Loading Basis Set <=

    Name: CC-PVDZ
    Role: ORBITAL
    Keyword: BASIS
    atoms 1, 3, 10-12 entry C          line   138 file /theoryfs2/ds/metcalf/miniconda2/envs/tf2gpu/share/psi4/basis/cc-pvdz.gbs
    atoms 2           entry S          line   598 file /theoryfs2/ds/metcalf/miniconda2/envs/tf2gpu/share/psi4/basis/cc-pvdz.gbs
    atoms 4-9, 15-19  entry H          line    22 file /theoryfs2/ds/metcalf/miniconda2/envs/tf2gpu/share/psi4/basis/cc-pvdz.gbs
    atoms 13-14       entry O          line   198 file /theoryfs2/ds/metcalf/miniconda2/envs/tf2gpu/share/psi4/basis/cc-pvdz.gbs

         ---------------------------------------------------------
                                   SCF
               by Justin Turney, Rob Parrish, Andy Simmonett
                          and Daniel G. A. Smith
                              RHF Reference
                        1 Threads,    500 MiB Core
         ---------------------------------------------------------

  ==> Geometry <==

    Molecular point group: c1
    Full point group: C1

    Geometry (in Angstrom), charge = -1, multiplicity = 1:

       Center              X                  Y                   Z               Mass
    ------------   -----------------  -----------------  -----------------  -----------------
         C           -0.130800391122    -2.791913380174    -0.492838505859    12.000000000000
         S            1.211579608878    -1.618843380174    -0.196138505859    31.972071174400
         C            1.735719608878    -1.303333380174    -1.889908505859    12.000000000000
         H           -0.778070391122    -2.801713380174     0.359121494141     1.007825032230
         H            0.428529608878    -3.703463380174    -0.526328505859     1.007825032230
         H           -0.715660391122    -2.699383380174    -1.384058505859     1.007825032230
         H            2.508129608878    -0.527913380174    -1.885218505859     1.007825032230
         H            0.899069608878    -0.959193380174    -2.500168505859     1.007825032230
         H            2.164389608878    -2.210913380174    -2.323108505859     1.007825032230
         C           -1.376800391122     0.605086619826     0.432161494141    12.000000000000
         C           -2.706800391122     0.980086619826     1.041161494141    12.000000000000
         C           -0.353800391122     1.762086619826     0.475161494141    12.000000000000
         O           -0.327800391122     2.575086619826     1.408161494141    15.994914619570
         O            0.478199608878     1.826086619826    -0.426838505859    15.994914619570
         H           -0.981800391122    -0.193913380174     1.047161494141     1.007825032230
         H           -1.522800391122     0.239086619826    -0.587838505859     1.007825032230
         H           -3.317800391122     1.487086619826     0.293161494141     1.007825032230
         H           -2.548800391122     1.673086619826     1.865161494141     1.007825032230
         H           -3.232200391122     0.109486619826     1.460761494141     1.007825032230

  Running in c1 symmetry.

  Rotational constants: A =      0.07658  B =      0.02626  C =      0.02163 [cm^-1]
  Rotational constants: A =   2295.77899  B =    787.36579  C =    648.55958 [MHz]
  Nuclear repulsion =  442.493711104741578

  Charge       = -1
  Multiplicity = 1
  Electrons    = 74
  Nalpha       = 37
  Nbeta        = 37

  ==> Algorithm <==

  SCF Algorithm Type is PK.
  DIIS enabled.
  MOM disabled.
  Fractional occupation disabled.
  Guess Type is SAD.
  Energy threshold   = 1.00e-06
  Density threshold  = 1.00e-10
  Integral threshold = 0.00e+00

  ==> Primary Basis <==

  Basis Set: CC-PVDZ
    Blend: CC-PVDZ
    Number of shells: 83
    Number of basis function: 171
    Number of Cartesian functions: 179
    Spherical Harmonics?: true
    Max angular momentum: 2

  ==> Pre-Iterations <==

   -------------------------------------------------------
    Irrep   Nso     Nmo     Nalpha   Nbeta   Ndocc  Nsocc
   -------------------------------------------------------
     A        171     171       0       0       0       0
   -------------------------------------------------------
    Total     171     171      37      37      37       0
   -------------------------------------------------------

  ==> Integral Setup <==

  Using integral reordering PK algorithm.
  Sizing the integral batches needed.
  Building batch lookup table.
   Calculation information:
      Number of atoms:                  19
      Number of AO shells:              83
      Number of primitives:            259
      Number of atomic orbitals:       179
      Number of basis functions:       171

      Integral cutoff                 1.00e-12
      Number of threads:                 1

	Batch   1 pq = [       0,    9405] index = [             0,44231715] size =     44231715
	Batch   2 pq = [    9405,   13301] index = [      44231715,88464951] size =     44233236
	Batch   3 pq = [   13301,   14706] index = [      88464951,108140571] size =     19675620
  Task number: 10
  Buffer size: 11059200
  Buffer per thread: 2
  We computed 5313539 shell quartets total.
  Whereas there are 6077841 unique shell quartets.

  ==> DiskJK: Disk-Based J/K Matrices <==

    J tasked:                  Yes
    K tasked:                  Yes
    wK tasked:                  No
    Memory [MiB]:              375
    Schwarz Cutoff:          1E-12

    OpenMP threads:              1

  Minimum eigenvalue in the overlap matrix is 3.9148979183E-03.
  Using Symmetric Orthogonalization.

  SCF Guess: Superposition of Atomic Densities via on-the-fly atomic UHF.

  ==> Iterations <==

                        Total Energy        Delta E     RMS |[F,P]|

   @RHF iter SAD:  -741.52966580118573   -7.41530e+02   0.00000e+00
   @RHF iter   1:  -742.73497484814288   -1.20531e+00   4.29563e-03 DIIS
   @RHF iter   2:  -742.95507817237535   -2.20103e-01   2.30733e-03 DIIS
   @RHF iter   3:  -743.01240937591103   -5.73312e-02   3.80525e-04 DIIS
   @RHF iter   4:  -743.01546829352390   -3.05892e-03   1.39959e-04 DIIS
   @RHF iter   5:  -743.01586126901202   -3.92975e-04   2.33251e-05 DIIS
   @RHF iter   6:  -743.01587612424316   -1.48552e-05   5.53018e-06 DIIS
   @RHF iter   7:  -743.01587703338964   -9.09146e-07   1.83133e-06 DIIS
   @RHF iter   8:  -743.01587712346520   -9.00756e-08   6.81376e-07 DIIS
   @RHF iter   9:  -743.01587713551999   -1.20548e-08   2.89920e-07 DIIS
   @RHF iter  10:  -743.01587713757795   -2.05796e-09   7.10513e-08 DIIS
   @RHF iter  11:  -743.01587713781544   -2.37492e-10   2.53094e-08 DIIS
   @RHF iter  12:  -743.01587713784443   -2.89901e-11   8.69090e-09 DIIS
   @RHF iter  13:  -743.01587713784056    3.86535e-12   3.21340e-09 DIIS
   @RHF iter  14:  -743.01587713784375   -3.18323e-12   9.58576e-10 DIIS
   @RHF iter  15:  -743.01587713785489   -1.11413e-11   2.79636e-10 DIIS
   @RHF iter  16:  -743.01587713784556    9.32232e-12   8.43560e-11 DIIS
  Energy and wave function converged.

  ==> Post-Iterations <==

    Orbital Energies [Eh]
    ---------------------

    Doubly Occupied:

       1A    -91.815562     2A    -20.248409     3A    -20.244564
       4A    -11.142455     5A    -11.141172     6A    -11.101608
       7A    -11.062399     8A    -11.044282     9A     -8.819443
      10A     -6.501491    11A     -6.499861    12A     -6.497441
      13A     -1.152778    14A     -1.029321    15A     -0.949428
      16A     -0.868457    17A     -0.844219    18A     -0.695037
      19A     -0.689489    20A     -0.503116    21A     -0.495196
      22A     -0.491225    23A     -0.464462    24A     -0.456494
      25A     -0.454754    26A     -0.425213    27A     -0.384246
      28A     -0.378134    29A     -0.356172    30A     -0.349973
      31A     -0.322030    32A     -0.314013    33A     -0.294731
      34A     -0.208218    35A     -0.174558    36A     -0.156722
      37A     -0.150121

    Virtual:

      38A      0.278302    39A      0.294874    40A      0.324532
      41A      0.331675    42A      0.351828    43A      0.361272
      44A      0.371032    45A      0.377386    46A      0.399455
      47A      0.407686    48A      0.429728    49A      0.438827
      50A      0.450679    51A      0.500355    52A      0.561354
      53A      0.595847    54A      0.627411    55A      0.669399
      56A      0.689964    57A      0.696668    58A      0.716467
      59A      0.747962    60A      0.752532    61A      0.768780
      62A      0.815937    63A      0.819578    64A      0.836308
      65A      0.885190    66A      0.906979    67A      0.924784
      68A      0.946401    69A      0.953128    70A      0.962040
      71A      0.977939    72A      0.992507    73A      0.994354
      74A      1.003924    75A      1.010570    76A      1.016335
      77A      1.019436    78A      1.039337    79A      1.045241
      80A      1.051134    81A      1.069052    82A      1.077796
      83A      1.088372    84A      1.095170    85A      1.114238
      86A      1.128989    87A      1.170093    88A      1.197691
      89A      1.253561    90A      1.279779    91A      1.303111
      92A      1.330318    93A      1.360334    94A      1.409296
      95A      1.416770    96A      1.448712    97A      1.473637
      98A      1.491128    99A      1.514411   100A      1.541203
     101A      1.556966   102A      1.588294   103A      1.605357
     104A      1.634659   105A      1.653412   106A      1.666390
     107A      1.692389   108A      1.709945   109A      1.779313
     110A      1.784152   111A      1.790653   112A      1.848140
     113A      1.916510   114A      1.920798   115A      1.980281
     116A      2.003487   117A      2.011672   118A      2.025656
     119A      2.038421   120A      2.049517   121A      2.061817
     122A      2.082600   123A      2.101599   124A      2.108361
     125A      2.120902   126A      2.127054   127A      2.132751
     128A      2.143035   129A      2.157473   130A      2.182635
     131A      2.222696   132A      2.231825   133A      2.258546
     134A      2.280657   135A      2.344143   136A      2.349910
     137A      2.399238   138A      2.430829   139A      2.452668
     140A      2.510093   141A      2.531289   142A      2.555322
     143A      2.561098   144A      2.569637   145A      2.576305
     146A      2.579969   147A      2.668494   148A      2.749107
     149A      2.777355   150A      2.855840   151A      2.883807
     152A      2.887632   153A      2.897914   154A      2.922545
     155A      2.931714   156A      2.959288   157A      2.963567
     158A      2.998923   159A      3.009064   160A      3.070868
     161A      3.142484   162A      3.256648   163A      3.306538
     164A      3.312156   165A      3.382959   166A      3.683827
     167A      3.782982   168A      3.846117   169A      4.096129
     170A      4.112898   171A      4.251362

    Final Occupation by Irrep:
              A
    DOCC [    37 ]

  @RHF Final Energy:  -743.01587713784556

   => Energetics <=

    Nuclear Repulsion Energy =            442.4937111047415783
    One-Electron Energy =               -1913.5655897842561899
    Two-Electron Energy =                 728.0560015416690476
    Total Energy =                       -743.0158771378455640

Computation Completed

Properties will be evaluated at   0.000000,   0.000000,   0.000000 [a0]

Properties computed using the SCF density matrix

  Nuclear Dipole Moment: [e a0]
     X:    -6.6205      Y:    -9.0098      Z:    -3.9204

  Electronic Dipole Moment: [e a0]
     X:     6.3693      Y:     4.9105      Z:     2.5281

  Dipole Moment: [e a0]
     X:    -0.2512      Y:    -4.0993      Z:    -1.3922     Total:     4.3365

  Dipole Moment: [D]
     X:    -0.6385      Y:   -10.4193      Z:    -3.5387     Total:    11.0224

*** tstop() called on ds3 at Mon Apr 27 09:47:56 2020
Module time:
	user time   =      46.80 seconds =       0.78 minutes
	system time =      14.15 seconds =       0.24 minutes
	total time  =        243 seconds =       4.05 minutes
Total time:
	user time   =      46.80 seconds =       0.78 minutes
	system time =      14.15 seconds =       0.24 minutes
	total time  =        243 seconds =       4.05 minutes
                                     G D M A

                                 by Anthony Stone

                           version 2.2.06, 22 June 2011

               Distributed Multipoles from Gaussian wavefunctions

Starting at 9:47:56 on 27 Apr 2020

Using SCF density matrix from file ./SSI/SSI-060MET-070GLU-1-dimer.test.1928.fchk

                         Distributed Multipole Analysis

Standard DMA

Positions and radii in angstrom
Multipole moments in atomic units, ea_0^k for rank k

C          x = -0.130800  y = -2.791913  z = -0.492839 angstrom
           Maximum rank =  0   Radius =  0.650 angstrom
                   Q00  =  -0.335162

S          x =  1.211580  y = -1.618843  z = -0.196139 angstrom
           Maximum rank =  0   Radius =  0.650 angstrom
                   Q00  =   0.135493

C          x =  1.735720  y = -1.303333  z = -1.889909 angstrom
           Maximum rank =  0   Radius =  0.650 angstrom
                   Q00  =  -0.341584

H          x = -0.778070  y = -2.801713  z =  0.359121 angstrom
           Maximum rank =  0   Radius =  0.325 angstrom
                   Q00  =   0.110116

H          x =  0.428530  y = -3.703463  z = -0.526329 angstrom
           Maximum rank =  0   Radius =  0.325 angstrom
                   Q00  =   0.055264

H          x = -0.715660  y = -2.699383  z = -1.384059 angstrom
           Maximum rank =  0   Radius =  0.325 angstrom
                   Q00  =   0.093684

H          x =  2.508130  y = -0.527913  z = -1.885219 angstrom
           Maximum rank =  0   Radius =  0.325 angstrom
                   Q00  =   0.130316

H          x =  0.899070  y = -0.959193  z = -2.500169 angstrom
           Maximum rank =  0   Radius =  0.325 angstrom
                   Q00  =   0.096377

H          x =  2.164390  y = -2.210913  z = -2.323109 angstrom
           Maximum rank =  0   Radius =  0.325 angstrom
                   Q00  =   0.038483

C          x = -1.376800  y =  0.605087  z =  0.432161 angstrom
           Maximum rank =  0   Radius =  0.650 angstrom
                   Q00  =  -0.114430

C          x = -2.706800  y =  0.980087  z =  1.041161 angstrom
           Maximum rank =  0   Radius =  0.650 angstrom
                   Q00  =  -0.213061

C          x = -0.353800  y =  1.762087  z =  0.475161 angstrom
           Maximum rank =  0   Radius =  0.650 angstrom
                   Q00  =   0.990641

O          x = -0.327800  y =  2.575087  z =  1.408161 angstrom
           Maximum rank =  0   Radius =  0.650 angstrom
                   Q00  =  -0.949211

O          x =  0.478200  y =  1.826087  z = -0.426839 angstrom
           Maximum rank =  0   Radius =  0.650 angstrom
                   Q00  =  -0.918817

H          x = -0.981800  y = -0.193913  z =  1.047161 angstrom
           Maximum rank =  0   Radius =  0.325 angstrom
                   Q00  =   0.056904

H          x = -1.522800  y =  0.239087  z = -0.587839 angstrom
           Maximum rank =  0   Radius =  0.325 angstrom
                   Q00  =   0.015947

H          x = -3.317800  y =  1.487087  z =  0.293161 angstrom
           Maximum rank =  0   Radius =  0.325 angstrom
                   Q00  =   0.043970

H          x = -2.548800  y =  1.673087  z =  1.865161 angstrom
           Maximum rank =  0   Radius =  0.325 angstrom
                   Q00  =   0.093655

H          x = -3.232200  y =  0.109487  z =  1.460761 angstrom
           Maximum rank =  0   Radius =  0.325 angstrom
                   Q00  =   0.011413

Total multipoles referred to origin at
           x =   0.000000,  y =    0.000000,  z =    0.000000 angstrom
                   Q00  =  -1.000000

Finished at 9:47:56 on 27 Apr 2020

  DMA results are available in the Python driver through the
	  variable('DMA DISTRIBUTED MULTIPOLES')
  and
	  variable('DMA TOTAL MULTIPOLES')
  commands.

    Psi4 stopped on: Monday, 27 April 2020 09:47AM
    Psi4 wall time for execution: 0:04:02.84

*** Psi4 exiting successfully. Buy a developer a beer!
