                               Psi4 1.3.2 release

  ==> Input File <==

--------------------------------------------------------------------------
import numpy as np
set {scf_type pk
basis cc-pvdz
d_convergence 10
gdma_switch   0
gdma_limit    0
gdma_origin   [ 0.0,  0.0,  0.0 ]
}
molecule test {
    units Angstrom
    -1 1
    --
    -1 1
    C               -0.438299285958993    -2.331168472885595    -0.024808691882684
    C                0.562700714041007    -3.487168472885596    -0.147808691882684
    C               -1.845299285958993    -2.890168472885595     0.242191308117316
    C               -0.052299285958993    -1.234168472885596     1.013191308117316
    H               -0.488299285958993    -1.841168472885595    -0.993808691882684
    H                0.159700714041007    -4.230168472885595    -0.834808691882684
    H                0.666700714041007    -3.943168472885596     0.837191308117316
    H               -1.883299285958993    -3.349168472885595     1.231191308117316
    H               -2.575299285958993    -2.083168472885595     0.186191308117316
    H               -2.090299285958993    -3.637168472885596    -0.509808691882684
    H                0.963700714041007    -0.878168472885595     0.863191308117316
    H               -0.754299285958993    -0.409168472885595     0.939191308117316
    H               -0.114299285958993    -1.659168472885595     2.015191308117316
    H                1.552120714041007    -3.182126922885596    -0.519288691882684
    C                0.356700714041007     1.287831527114405    -1.054808691882684
    C               -0.980299285958993     1.617831527114405    -1.734808691882684
    C                0.711700714041007     2.107831527114405     0.210191308117316
    O                0.049700714041007     3.140831527114405     0.478191308117316
    O                1.653700714041007     1.722831527114405     0.972191308117316
    H                0.428700714041007     0.224831527114405    -0.904808691882684
    H                1.123700714041007     1.504831527114405    -1.787808691882684
    H               -1.736299285958993     1.843831527114405    -0.982808691882684
    H               -1.303299285958993     0.715831527114405    -2.256808691882684
    H               -0.919309285958993     2.424348527114404    -2.480338691882684

}
e, wfn = energy('scf', return_wfn=True)
gdma(wfn)
dmavals = variable('DMA DISTRIBUTED MULTIPOLES')
charges = np.array(dmavals)
print(charges)
np.save('SSI-031LEU-213GLU-1-dimer.npy', np.array(charges))--------------------------------------------------------------------------

*** tstart() called on ds3
*** at Tue Apr 28 04:49:11 2020

   => Loading Basis Set <=

    Name: CC-PVDZ
    Role: ORBITAL
    Keyword: BASIS
    atoms 1-4, 15-17  entry C          line   138 file /theoryfs2/ds/metcalf/miniconda2/envs/tf2gpu/share/psi4/basis/cc-pvdz.gbs
    atoms 5-14, 20-24 entry H          line    22 file /theoryfs2/ds/metcalf/miniconda2/envs/tf2gpu/share/psi4/basis/cc-pvdz.gbs
    atoms 18-19       entry O          line   198 file /theoryfs2/ds/metcalf/miniconda2/envs/tf2gpu/share/psi4/basis/cc-pvdz.gbs

         ---------------------------------------------------------
                                   SCF
               by Justin Turney, Rob Parrish, Andy Simmonett
                          and Daniel G. A. Smith
                              RHF Reference
                        1 Threads,    500 MiB Core
         ---------------------------------------------------------

  ==> Geometry <==

    Molecular point group: c1
    Full point group: C1

    Geometry (in Angstrom), charge = -1, multiplicity = 1:

       Center              X                  Y                   Z               Mass
    ------------   -----------------  -----------------  -----------------  -----------------
         C           -0.438299285959    -2.331168472886    -0.024808691883    12.000000000000
         C            0.562700714041    -3.487168472886    -0.147808691883    12.000000000000
         C           -1.845299285959    -2.890168472886     0.242191308117    12.000000000000
         C           -0.052299285959    -1.234168472886     1.013191308117    12.000000000000
         H           -0.488299285959    -1.841168472886    -0.993808691883     1.007825032230
         H            0.159700714041    -4.230168472886    -0.834808691883     1.007825032230
         H            0.666700714041    -3.943168472886     0.837191308117     1.007825032230
         H           -1.883299285959    -3.349168472886     1.231191308117     1.007825032230
         H           -2.575299285959    -2.083168472886     0.186191308117     1.007825032230
         H           -2.090299285959    -3.637168472886    -0.509808691883     1.007825032230
         H            0.963700714041    -0.878168472886     0.863191308117     1.007825032230
         H           -0.754299285959    -0.409168472886     0.939191308117     1.007825032230
         H           -0.114299285959    -1.659168472886     2.015191308117     1.007825032230
         H            1.552120714041    -3.182126922886    -0.519288691883     1.007825032230
         C            0.356700714041     1.287831527114    -1.054808691883    12.000000000000
         C           -0.980299285959     1.617831527114    -1.734808691883    12.000000000000
         C            0.711700714041     2.107831527114     0.210191308117    12.000000000000
         O            0.049700714041     3.140831527114     0.478191308117    15.994914619570
         O            1.653700714041     1.722831527114     0.972191308117    15.994914619570
         H            0.428700714041     0.224831527114    -0.904808691883     1.007825032230
         H            1.123700714041     1.504831527114    -1.787808691883     1.007825032230
         H           -1.736299285959     1.843831527114    -0.982808691883     1.007825032230
         H           -1.303299285959     0.715831527114    -2.256808691883     1.007825032230
         H           -0.919309285959     2.424348527114    -2.480338691883     1.007825032230

  Running in c1 symmetry.

  Rotational constants: A =      0.07537  B =      0.02053  C =      0.01855 [cm^-1]
  Rotational constants: A =   2259.64714  B =    615.59425  C =    556.04306 [MHz]
  Nuclear repulsion =  450.634412361616626

  Charge       = -1
  Multiplicity = 1
  Electrons    = 74
  Nalpha       = 37
  Nbeta        = 37

  ==> Algorithm <==

  SCF Algorithm Type is PK.
  DIIS enabled.
  MOM disabled.
  Fractional occupation disabled.
  Guess Type is SAD.
  Energy threshold   = 1.00e-06
  Density threshold  = 1.00e-10
  Integral threshold = 0.00e+00

  ==> Primary Basis <==

  Basis Set: CC-PVDZ
    Blend: CC-PVDZ
    Number of shells: 99
    Number of basis function: 201
    Number of Cartesian functions: 210
    Spherical Harmonics?: true
    Max angular momentum: 2

  ==> Pre-Iterations <==

   -------------------------------------------------------
    Irrep   Nso     Nmo     Nalpha   Nbeta   Ndocc  Nsocc
   -------------------------------------------------------
     A        201     201       0       0       0       0
   -------------------------------------------------------
    Total     201     201      37      37      37       0
   -------------------------------------------------------

  ==> Integral Setup <==

  Using integral reordering PK algorithm.
  Sizing the integral batches needed.
  Building batch lookup table.
   Calculation information:
      Number of atoms:                  24
      Number of AO shells:              99
      Number of primitives:            273
      Number of atomic orbitals:       210
      Number of basis functions:       201

      Integral cutoff                 1.00e-12
      Number of threads:                 1

	Batch   1 pq = [       0,    9405] index = [             0,44231715] size =     44231715
	Batch   2 pq = [    9405,   13301] index = [      44231715,88464951] size =     44233236
	Batch   3 pq = [   13301,   16290] index = [      88464951,132690195] size =     44225244
	Batch   4 pq = [   16290,   18810] index = [     132690195,176917455] size =     44227260
	Batch   5 pq = [   18810,   20301] index = [     176917455,206075451] size =     29157996
  Task number: 19
  Buffer size: 11059200
  Buffer per thread: 2
  We computed 11243092 shell quartets total.
  Whereas there are 12253725 unique shell quartets.

  ==> DiskJK: Disk-Based J/K Matrices <==

    J tasked:                  Yes
    K tasked:                  Yes
    wK tasked:                  No
    Memory [MiB]:              375
    Schwarz Cutoff:          1E-12

    OpenMP threads:              1

  Minimum eigenvalue in the overlap matrix is 3.8127668881E-03.
  Using Symmetric Orthogonalization.

  SCF Guess: Superposition of Atomic Densities via on-the-fly atomic UHF.

  ==> Iterations <==

                        Total Energy        Delta E     RMS |[F,P]|

   @RHF iter SAD:  -421.82990195739944   -4.21830e+02   0.00000e+00
   @RHF iter   1:  -423.21541374309379   -1.38551e+00   4.04768e-03 DIIS
   @RHF iter   2:  -423.49361269243184   -2.78199e-01   2.21856e-03 DIIS
   @RHF iter   3:  -423.57034057010054   -7.67279e-02   3.84451e-04 DIIS
   @RHF iter   4:  -423.57440942249025   -4.06885e-03   1.44223e-04 DIIS
   @RHF iter   5:  -423.57496079571888   -5.51373e-04   2.15562e-05 DIIS
   @RHF iter   6:  -423.57497677546689   -1.59797e-05   6.23165e-06 DIIS
   @RHF iter   7:  -423.57497806614487   -1.29068e-06   1.70398e-06 DIIS
   @RHF iter   8:  -423.57497819722624   -1.31081e-07   5.67445e-07 DIIS
   @RHF iter   9:  -423.57497821605949   -1.88332e-08   2.13021e-07 DIIS
   @RHF iter  10:  -423.57497821925375   -3.19426e-09   1.21186e-07 DIIS
   @RHF iter  11:  -423.57497821995906   -7.05313e-10   3.75468e-08 DIIS
   @RHF iter  12:  -423.57497822004933   -9.02673e-11   1.56171e-08 DIIS
   @RHF iter  13:  -423.57497822006468   -1.53477e-11   3.56564e-09 DIIS
   @RHF iter  14:  -423.57497822006263    2.04636e-12   9.58760e-10 DIIS
   @RHF iter  15:  -423.57497822006297   -3.41061e-13   2.90025e-10 DIIS
   @RHF iter  16:  -423.57497822006360   -6.25278e-13   1.15716e-10 DIIS
   @RHF iter  17:  -423.57497822006303    5.68434e-13   4.83436e-11 DIIS
  Energy and wave function converged.

  ==> Post-Iterations <==

    Orbital Energies [Eh]
    ---------------------

    Doubly Occupied:

       1A    -20.264122     2A    -20.258794     3A    -11.124605
       4A    -11.123326     5A    -11.122624     6A    -11.121256
       7A    -11.090886     8A    -11.077015     9A    -11.057584
      10A     -1.143029    11A     -1.027318    12A     -0.975248
      13A     -0.874182    14A     -0.832725    15A     -0.815626
      16A     -0.707520    17A     -0.662027    18A     -0.530931
      19A     -0.511288    20A     -0.495665    21A     -0.477043
      22A     -0.463329    23A     -0.444623    24A     -0.431332
      25A     -0.420859    26A     -0.409089    27A     -0.386757
      28A     -0.362509    29A     -0.359546    30A     -0.358258
      31A     -0.349367    32A     -0.345667    33A     -0.329971
      34A     -0.296411    35A     -0.185027    36A     -0.168808
      37A     -0.158463

    Virtual:

      38A      0.269747    39A      0.303722    40A      0.318875
      41A      0.325407    42A      0.343474    43A      0.351779
      44A      0.366169    45A      0.370454    46A      0.392013
      47A      0.394965    48A      0.408092    49A      0.423848
      50A      0.435134    51A      0.443257    52A      0.464417
      53A      0.477942    54A      0.497286    55A      0.511437
      56A      0.533640    57A      0.551600    58A      0.608785
      59A      0.659913    60A      0.672690    61A      0.684798
      62A      0.706744    63A      0.722735    64A      0.740998
      65A      0.770172    66A      0.797379    67A      0.830380
      68A      0.850889    69A      0.870136    70A      0.881483
      71A      0.900826    72A      0.930320    73A      0.937615
      74A      0.957263    75A      0.969567    76A      0.980585
      77A      0.987092    78A      0.991696    79A      1.001300
      80A      1.002597    81A      1.015449    82A      1.018663
      83A      1.021674    84A      1.028790    85A      1.037546
      86A      1.042328    87A      1.058956    88A      1.066288
      89A      1.071676    90A      1.075807    91A      1.086045
      92A      1.099837    93A      1.117152    94A      1.141292
      95A      1.170510    96A      1.200179    97A      1.230959
      98A      1.240795    99A      1.268996   100A      1.293359
     101A      1.301163   102A      1.333514   103A      1.403717
     104A      1.448027   105A      1.472091   106A      1.498273
     107A      1.516018   108A      1.545595   109A      1.548790
     110A      1.607367   111A      1.620733   112A      1.634808
     113A      1.644431   114A      1.660045   115A      1.681706
     116A      1.729763   117A      1.756303   118A      1.773283
     119A      1.777580   120A      1.787356   121A      1.796093
     122A      1.819948   123A      1.827268   124A      1.837714
     125A      1.850238   126A      1.892927   127A      1.932932
     128A      1.946443   129A      1.958957   130A      1.969657
     131A      1.996938   132A      2.022149   133A      2.025515
     134A      2.038653   135A      2.051946   136A      2.053687
     137A      2.059505   138A      2.082492   139A      2.090815
     140A      2.102219   141A      2.107953   142A      2.114646
     143A      2.132210   144A      2.144419   145A      2.172384
     146A      2.186156   147A      2.215610   148A      2.225783
     149A      2.229159   150A      2.241087   151A      2.247226
     152A      2.287251   153A      2.320686   154A      2.325172
     155A      2.364988   156A      2.380574   157A      2.390257
     158A      2.406247   159A      2.421408   160A      2.456869
     161A      2.458355   162A      2.469169   163A      2.481172
     164A      2.502287   165A      2.538713   166A      2.572629
     167A      2.589545   168A      2.621075   169A      2.671952
     170A      2.721500   171A      2.739295   172A      2.778477
     173A      2.787978   174A      2.823272   175A      2.833578
     176A      2.851889   177A      2.857940   178A      2.881377
     179A      2.883875   180A      2.916905   181A      2.928531
     182A      2.930573   183A      2.959939   184A      2.977252
     185A      2.986271   186A      3.009752   187A      3.069926
     188A      3.117630   189A      3.132261   190A      3.174533
     191A      3.216873   192A      3.249129   193A      3.291612
     194A      3.301342   195A      3.354889   196A      3.636956
     197A      3.748082   198A      3.799460   199A      4.037811
     200A      4.066470   201A      4.185393

    Final Occupation by Irrep:
              A
    DOCC [    37 ]

  @RHF Final Energy:  -423.57497822006303

   => Energetics <=

    Nuclear Repulsion Energy =            450.6344123616166257
    One-Electron Energy =               -1482.8931210703369743
    Two-Electron Energy =                 608.6837304886573747
    Total Energy =                       -423.5749782200630307

Computation Completed

Properties will be evaluated at   0.000000,   0.000000,   0.000000 [a0]

Properties computed using the SCF density matrix

  Nuclear Dipole Moment: [e a0]
     X:    -6.5261      Y:   -17.3188      Z:    -4.8661

  Electronic Dipole Moment: [e a0]
     X:     5.1517      Y:    13.1854      Z:     3.4094

  Dipole Moment: [e a0]
     X:    -1.3743      Y:    -4.1335      Z:    -1.4567     Total:     4.5931

  Dipole Moment: [D]
     X:    -3.4932      Y:   -10.5062      Z:    -3.7026     Total:    11.6745

*** tstop() called on ds3 at Tue Apr 28 04:54:33 2020
Module time:
	user time   =      71.63 seconds =       1.19 minutes
	system time =      27.95 seconds =       0.47 minutes
	total time  =        322 seconds =       5.37 minutes
Total time:
	user time   =      71.63 seconds =       1.19 minutes
	system time =      27.95 seconds =       0.47 minutes
	total time  =        322 seconds =       5.37 minutes
                                     G D M A

                                 by Anthony Stone

                           version 2.2.06, 22 June 2011

               Distributed Multipoles from Gaussian wavefunctions

Starting at 4:54:33 on 28 Apr 2020

Using SCF density matrix from file ./SSI/SSI-031LEU-213GLU-1-dimer.test.27833.fchk

                         Distributed Multipole Analysis

Standard DMA

Positions and radii in angstrom
Multipole moments in atomic units, ea_0^k for rank k

C          x = -0.438299  y = -2.331168  z = -0.024809 angstrom
           Maximum rank =  0   Radius =  0.650 angstrom
                   Q00  =   0.016736

C          x =  0.562701  y = -3.487168  z = -0.147809 angstrom
           Maximum rank =  0   Radius =  0.650 angstrom
                   Q00  =  -0.242121

C          x = -1.845299  y = -2.890168  z =  0.242191 angstrom
           Maximum rank =  0   Radius =  0.650 angstrom
                   Q00  =  -0.253813

C          x = -0.052299  y = -1.234168  z =  1.013191 angstrom
           Maximum rank =  0   Radius =  0.650 angstrom
                   Q00  =  -0.191573

H          x = -0.488299  y = -1.841168  z = -0.993809 angstrom
           Maximum rank =  0   Radius =  0.325 angstrom
                   Q00  =   0.006098

H          x =  0.159701  y = -4.230168  z = -0.834809 angstrom
           Maximum rank =  0   Radius =  0.325 angstrom
                   Q00  =   0.057740

H          x =  0.666701  y = -3.943168  z =  0.837191 angstrom
           Maximum rank =  0   Radius =  0.325 angstrom
                   Q00  =   0.064005

H          x = -1.883299  y = -3.349168  z =  1.231191 angstrom
           Maximum rank =  0   Radius =  0.325 angstrom
                   Q00  =   0.064064

H          x = -2.575299  y = -2.083168  z =  0.186191 angstrom
           Maximum rank =  0   Radius =  0.325 angstrom
                   Q00  =   0.085100

H          x = -2.090299  y = -3.637168  z = -0.509809 angstrom
           Maximum rank =  0   Radius =  0.325 angstrom
                   Q00  =   0.060399

H          x =  0.963701  y = -0.878168  z =  0.863191 angstrom
           Maximum rank =  0   Radius =  0.325 angstrom
                   Q00  =   0.099713

H          x = -0.754299  y = -0.409168  z =  0.939191 angstrom
           Maximum rank =  0   Radius =  0.325 angstrom
                   Q00  =   0.095724

H          x = -0.114299  y = -1.659168  z =  2.015191 angstrom
           Maximum rank =  0   Radius =  0.325 angstrom
                   Q00  =   0.048315

H          x =  1.552121  y = -3.182127  z = -0.519289 angstrom
           Maximum rank =  0   Radius =  0.325 angstrom
                   Q00  =   0.087182

C          x =  0.356701  y =  1.287832  z = -1.054809 angstrom
           Maximum rank =  0   Radius =  0.650 angstrom
                   Q00  =  -0.151967

C          x = -0.980299  y =  1.617832  z = -1.734809 angstrom
           Maximum rank =  0   Radius =  0.650 angstrom
                   Q00  =  -0.244107

C          x =  0.711701  y =  2.107832  z =  0.210191 angstrom
           Maximum rank =  0   Radius =  0.650 angstrom
                   Q00  =   1.001803

O          x =  0.049701  y =  3.140832  z =  0.478191 angstrom
           Maximum rank =  0   Radius =  0.650 angstrom
                   Q00  =  -0.946222

O          x =  1.653701  y =  1.722832  z =  0.972191 angstrom
           Maximum rank =  0   Radius =  0.650 angstrom
                   Q00  =  -0.938429

H          x =  0.428701  y =  0.224832  z = -0.904809 angstrom
           Maximum rank =  0   Radius =  0.325 angstrom
                   Q00  =   0.043159

H          x =  1.123701  y =  1.504832  z = -1.787809 angstrom
           Maximum rank =  0   Radius =  0.325 angstrom
                   Q00  =   0.057739

H          x = -1.736299  y =  1.843832  z = -0.982809 angstrom
           Maximum rank =  0   Radius =  0.325 angstrom
                   Q00  =   0.092298

H          x = -1.303299  y =  0.715832  z = -2.256809 angstrom
           Maximum rank =  0   Radius =  0.325 angstrom
                   Q00  =   0.022244

H          x = -0.919309  y =  2.424349  z = -2.480339 angstrom
           Maximum rank =  0   Radius =  0.325 angstrom
                   Q00  =   0.065913

Total multipoles referred to origin at
           x =   0.000000,  y =    0.000000,  z =    0.000000 angstrom
                   Q00  =  -1.000000

Finished at 4:54:33 on 28 Apr 2020

  DMA results are available in the Python driver through the
	  variable('DMA DISTRIBUTED MULTIPOLES')
  and
	  variable('DMA TOTAL MULTIPOLES')
  commands.

    Psi4 stopped on: Tuesday, 28 April 2020 04:54AM
    Psi4 wall time for execution: 0:05:21.59

*** Psi4 exiting successfully. Buy a developer a beer!
