                               Psi4 1.3.2 release

  ==> Input File <==

--------------------------------------------------------------------------
import numpy as np
set {scf_type pk
basis cc-pvdz
d_convergence 10
gdma_switch   0
gdma_limit    0
gdma_origin   [ 0.0,  0.0,  0.0 ]
}
molecule test {
    units Angstrom
    -2 1
    --
    -2 1
    C               -0.432544574594736     1.269356782575298    -2.328860074435638
    C               -0.496544574594736    -0.239643217424702    -2.104860074435638
    O               -0.014544574594736    -0.980643217424702    -2.981860074435638
    O               -1.022544574594736    -0.685643217424702    -1.059860074435638
    H               -0.377544574594736     1.501356782575299    -3.395860074435638
    H                0.487455425405264     1.655356782575298    -1.880860074435638
    H               -1.281864574594736     1.811536782575298    -1.887620074435638
    C                0.981455425405264    -0.726643217424702     1.397139925564362
    C                0.162455425405264    -1.806643217424702     2.103139925564362
    C                0.429455425405264     0.678356782575298     1.618139925564362
    O               -0.518544574594736     0.845356782575298     2.419139925564362
    O                0.961455425405264     1.625356782575298     0.994139925564362
    H                1.997455425405264    -0.772643217424702     1.797139925564362
    H                1.068455425405264    -0.933643217424702     0.331139925564362
    H               -0.904544574594736    -1.622643217424702     1.970139925564362
    H                0.389455425405264    -1.766643217424702     3.169139925564362
    H                0.379875425405264    -2.813813217424702     1.717982925564362

}
e, wfn = energy('scf', return_wfn=True)
gdma(wfn)
dmavals = variable('DMA DISTRIBUTED MULTIPOLES')
charges = np.array(dmavals)
print(charges)
np.save('SSI-115GLU-160GLU-1-dimer.npy', np.array(charges))--------------------------------------------------------------------------

*** tstart() called on ds3
*** at Tue Apr 28 03:51:30 2020

   => Loading Basis Set <=

    Name: CC-PVDZ
    Role: ORBITAL
    Keyword: BASIS
    atoms 1-2, 8-10  entry C          line   138 file /theoryfs2/ds/metcalf/miniconda2/envs/tf2gpu/share/psi4/basis/cc-pvdz.gbs
    atoms 3-4, 11-12 entry O          line   198 file /theoryfs2/ds/metcalf/miniconda2/envs/tf2gpu/share/psi4/basis/cc-pvdz.gbs
    atoms 5-7, 13-17 entry H          line    22 file /theoryfs2/ds/metcalf/miniconda2/envs/tf2gpu/share/psi4/basis/cc-pvdz.gbs

         ---------------------------------------------------------
                                   SCF
               by Justin Turney, Rob Parrish, Andy Simmonett
                          and Daniel G. A. Smith
                              RHF Reference
                        1 Threads,    500 MiB Core
         ---------------------------------------------------------

  ==> Geometry <==

    Molecular point group: c1
    Full point group: C1

    Geometry (in Angstrom), charge = -2, multiplicity = 1:

       Center              X                  Y                   Z               Mass
    ------------   -----------------  -----------------  -----------------  -----------------
         C           -0.432544574595     1.269356782575    -2.328860074436    12.000000000000
         C           -0.496544574595    -0.239643217425    -2.104860074436    12.000000000000
         O           -0.014544574595    -0.980643217425    -2.981860074436    15.994914619570
         O           -1.022544574595    -0.685643217425    -1.059860074436    15.994914619570
         H           -0.377544574595     1.501356782575    -3.395860074436     1.007825032230
         H            0.487455425405     1.655356782575    -1.880860074436     1.007825032230
         H           -1.281864574595     1.811536782575    -1.887620074436     1.007825032230
         C            0.981455425405    -0.726643217425     1.397139925564    12.000000000000
         C            0.162455425405    -1.806643217425     2.103139925564    12.000000000000
         C            0.429455425405     0.678356782575     1.618139925564    12.000000000000
         O           -0.518544574595     0.845356782575     2.419139925564    15.994914619570
         O            0.961455425405     1.625356782575     0.994139925564    15.994914619570
         H            1.997455425405    -0.772643217425     1.797139925564     1.007825032230
         H            1.068455425405    -0.933643217425     0.331139925564     1.007825032230
         H           -0.904544574595    -1.622643217425     1.970139925564     1.007825032230
         H            0.389455425405    -1.766643217425     3.169139925564     1.007825032230
         H            0.379875425405    -2.813813217425     1.717982925564     1.007825032230

  Running in c1 symmetry.

  Rotational constants: A =      0.07571  B =      0.02816  C =      0.02348 [cm^-1]
  Rotational constants: A =   2269.84829  B =    844.29450  C =    703.90057 [MHz]
  Nuclear repulsion =  433.031496377194003

  Charge       = -2
  Multiplicity = 1
  Electrons    = 72
  Nalpha       = 36
  Nbeta        = 36

  ==> Algorithm <==

  SCF Algorithm Type is PK.
  DIIS enabled.
  MOM disabled.
  Fractional occupation disabled.
  Guess Type is SAD.
  Energy threshold   = 1.00e-06
  Density threshold  = 1.00e-10
  Integral threshold = 0.00e+00

  ==> Primary Basis <==

  Basis Set: CC-PVDZ
    Blend: CC-PVDZ
    Number of shells: 78
    Number of basis function: 166
    Number of Cartesian functions: 175
    Spherical Harmonics?: true
    Max angular momentum: 2

  ==> Pre-Iterations <==

   -------------------------------------------------------
    Irrep   Nso     Nmo     Nalpha   Nbeta   Ndocc  Nsocc
   -------------------------------------------------------
     A        166     166       0       0       0       0
   -------------------------------------------------------
    Total     166     166      36      36      36       0
   -------------------------------------------------------

  ==> Integral Setup <==

  Using integral reordering PK algorithm.
  Sizing the integral batches needed.
  Building batch lookup table.
   Calculation information:
      Number of atoms:                  17
      Number of AO shells:              78
      Number of primitives:            238
      Number of atomic orbitals:       175
      Number of basis functions:       166

      Integral cutoff                 1.00e-12
      Number of threads:                 1

	Batch   1 pq = [       0,    9405] index = [             0,44231715] size =     44231715
	Batch   2 pq = [    9405,   13301] index = [      44231715,88464951] size =     44233236
	Batch   3 pq = [   13301,   13861] index = [      88464951,96070591] size =      7605640
  Task number: 9
  Buffer size: 11059200
  Buffer per thread: 2
  We computed 4031250 shell quartets total.
  Whereas there are 4747821 unique shell quartets.

  ==> DiskJK: Disk-Based J/K Matrices <==

    J tasked:                  Yes
    K tasked:                  Yes
    wK tasked:                  No
    Memory [MiB]:              375
    Schwarz Cutoff:          1E-12

    OpenMP threads:              1

  Minimum eigenvalue in the overlap matrix is 3.5969185178E-03.
  Using Symmetric Orthogonalization.

  SCF Guess: Superposition of Atomic Densities via on-the-fly atomic UHF.

  ==> Iterations <==

                        Total Energy        Delta E     RMS |[F,P]|

   @RHF iter SAD:  -491.34888397795288   -4.91349e+02   0.00000e+00
   @RHF iter   1:  -493.01889277052010   -1.67001e+00   5.55833e-03 DIIS
   @RHF iter   2:  -493.30844760847231   -2.89555e-01   3.21551e-03 DIIS
   @RHF iter   3:  -493.40839403264727   -9.99464e-02   4.23674e-04 DIIS
   @RHF iter   4:  -493.41168237113317   -3.28834e-03   1.58668e-04 DIIS
   @RHF iter   5:  -493.41220492968046   -5.22559e-04   2.69816e-05 DIIS
   @RHF iter   6:  -493.41222131082515   -1.63811e-05   1.13865e-05 DIIS
   @RHF iter   7:  -493.41222315187230   -1.84105e-06   2.98357e-06 DIIS
   @RHF iter   8:  -493.41222331473375   -1.62861e-07   7.14942e-07 DIIS
   @RHF iter   9:  -493.41222332780643   -1.30727e-08   2.36522e-07 DIIS
   @RHF iter  10:  -493.41222332987132   -2.06489e-09   8.00705e-08 DIIS
   @RHF iter  11:  -493.41222333020579   -3.34467e-10   3.70834e-08 DIIS
   @RHF iter  12:  -493.41222333025979   -5.40012e-11   1.49610e-08 DIIS
   @RHF iter  13:  -493.41222333026889   -9.09495e-12   3.85908e-09 DIIS
   @RHF iter  14:  -493.41222333027139   -2.50111e-12   1.17318e-09 DIIS
   @RHF iter  15:  -493.41222333026923    2.16005e-12   4.57498e-10 DIIS
   @RHF iter  16:  -493.41222333026906    1.70530e-13   1.77325e-10 DIIS
   @RHF iter  17:  -493.41222333026872    3.41061e-13   5.73876e-11 DIIS
  Energy and wave function converged.

  ==> Post-Iterations <==

    Orbital Energies [Eh]
    ---------------------

    Doubly Occupied:

       1A    -20.143623     2A    -20.138208     3A    -20.137703
       4A    -20.131996     5A    -10.998397     6A    -10.990258
       7A    -10.943744     8A    -10.927637     9A    -10.918996
      10A     -1.033587    11A     -1.024165    12A     -0.917844
      13A     -0.910532    14A     -0.738529    15A     -0.671933
      16A     -0.572385    17A     -0.382798    18A     -0.378769
      19A     -0.326272    20A     -0.307277    21A     -0.286778
      22A     -0.285214    23A     -0.283242    24A     -0.264224
      25A     -0.236380    26A     -0.224942    27A     -0.221662
      28A     -0.199580    29A     -0.186017    30A     -0.167923
      31A     -0.067269    32A     -0.059406    33A     -0.052431
      34A     -0.047700    35A     -0.043514    36A     -0.037812

    Virtual:

      37A      0.454541    38A      0.476577    39A      0.495090
      40A      0.511311    41A      0.526643    42A      0.530506
      43A      0.550324    44A      0.567436    45A      0.620102
      46A      0.632274    47A      0.679823    48A      0.694907
      49A      0.738380    50A      0.796646    51A      0.831318
      52A      0.835807    53A      0.854724    54A      0.899945
      55A      0.929538    56A      0.945929    57A      0.999705
      58A      1.030111    59A      1.054980    60A      1.082447
      61A      1.095351    62A      1.101109    63A      1.132030
      64A      1.142042    65A      1.150566    66A      1.161816
      67A      1.168486    68A      1.177051    69A      1.181664
      70A      1.188597    71A      1.200580    72A      1.207571
      73A      1.221082    74A      1.250573    75A      1.262419
      76A      1.292906    77A      1.357430    78A      1.380051
      79A      1.433565    80A      1.442587    81A      1.449299
      82A      1.482882    83A      1.520664    84A      1.539618
      85A      1.572964    86A      1.614092    87A      1.648207
      88A      1.679378    89A      1.687946    90A      1.705009
      91A      1.714960    92A      1.725075    93A      1.751707
      94A      1.770831    95A      1.791453    96A      1.806557
      97A      1.860375    98A      1.873147    99A      1.885697
     100A      1.944499   101A      1.961624   102A      1.967907
     103A      1.978070   104A      2.003549   105A      2.087904
     106A      2.161195   107A      2.168713   108A      2.180006
     109A      2.198590   110A      2.204716   111A      2.208450
     112A      2.220402   113A      2.262780   114A      2.272512
     115A      2.303037   116A      2.319652   117A      2.325059
     118A      2.360826   119A      2.366452   120A      2.374019
     121A      2.397282   122A      2.462903   123A      2.513639
     124A      2.532615   125A      2.548882   126A      2.574523
     127A      2.594214   128A      2.637660   129A      2.650420
     130A      2.683052   131A      2.735030   132A      2.773542
     133A      2.806018   134A      2.831780   135A      2.875008
     136A      2.907223   137A      2.908553   138A      2.942243
     139A      3.034556   140A      3.041230   141A      3.101361
     142A      3.111185   143A      3.118579   144A      3.142647
     145A      3.199506   146A      3.266282   147A      3.359787
     148A      3.366968   149A      3.398271   150A      3.413338
     151A      3.415902   152A      3.428781   153A      3.485487
     154A      3.487343   155A      3.758575   156A      3.763346
     157A      3.903055   158A      3.908689   159A      3.952069
     160A      3.954741   161A      4.175767   162A      4.185516
     163A      4.208070   164A      4.215837   165A      4.316570
     166A      4.331827

    Final Occupation by Irrep:
              A
    DOCC [    36 ]

  @RHF Final Energy:  -493.41222333026872

   => Energetics <=

    Nuclear Repulsion Energy =            433.0314963771940029
    One-Electron Energy =               -1562.3699414179984615
    Two-Electron Energy =                 635.9262217105356285
    Total Energy =                       -493.4122233302687164

Computation Completed

Properties will be evaluated at   0.000000,   0.000000,   0.000000 [a0]

Properties computed using the SCF density matrix

  Nuclear Dipole Moment: [e a0]
     X:     1.6459      Y:    -2.7534      Z:     1.7043

  Electronic Dipole Moment: [e a0]
     X:    -1.0936      Y:     2.2752      Z:    -1.3706

  Dipole Moment: [e a0]
     X:     0.5523      Y:    -0.4782      Z:     0.3337     Total:     0.8032

  Dipole Moment: [D]
     X:     1.4039      Y:    -1.2154      Z:     0.8483     Total:     2.0415

*** tstop() called on ds3 at Tue Apr 28 03:52:15 2020
Module time:
	user time   =      32.77 seconds =       0.55 minutes
	system time =      13.33 seconds =       0.22 minutes
	total time  =         45 seconds =       0.75 minutes
Total time:
	user time   =      32.77 seconds =       0.55 minutes
	system time =      13.33 seconds =       0.22 minutes
	total time  =         45 seconds =       0.75 minutes
                                     G D M A

                                 by Anthony Stone

                           version 2.2.06, 22 June 2011

               Distributed Multipoles from Gaussian wavefunctions

Starting at 3:52:15 on 28 Apr 2020

Using SCF density matrix from file ./SSI/SSI-115GLU-160GLU-1-dimer.test.26025.fchk

                         Distributed Multipole Analysis

Standard DMA

Positions and radii in angstrom
Multipole moments in atomic units, ea_0^k for rank k

C          x = -0.432545  y =  1.269357  z = -2.328860 angstrom
           Maximum rank =  0   Radius =  0.650 angstrom
                   Q00  =  -0.278111

C          x = -0.496545  y = -0.239643  z = -2.104860 angstrom
           Maximum rank =  0   Radius =  0.650 angstrom
                   Q00  =   0.987286

O          x = -0.014545  y = -0.980643  z = -2.981860 angstrom
           Maximum rank =  0   Radius =  0.650 angstrom
                   Q00  =  -0.952097

O          x = -1.022545  y = -0.685643  z = -1.059860 angstrom
           Maximum rank =  0   Radius =  0.650 angstrom
                   Q00  =  -0.920872

H          x = -0.377545  y =  1.501357  z = -3.395860 angstrom
           Maximum rank =  0   Radius =  0.325 angstrom
                   Q00  =  -0.002669

H          x =  0.487455  y =  1.655357  z = -1.880860 angstrom
           Maximum rank =  0   Radius =  0.325 angstrom
                   Q00  =   0.113816

H          x = -1.281865  y =  1.811537  z = -1.887620 angstrom
           Maximum rank =  0   Radius =  0.325 angstrom
                   Q00  =   0.059859

C          x =  0.981455  y = -0.726643  z =  1.397140 angstrom
           Maximum rank =  0   Radius =  0.650 angstrom
                   Q00  =  -0.146552

C          x =  0.162455  y = -1.806643  z =  2.103140 angstrom
           Maximum rank =  0   Radius =  0.650 angstrom
                   Q00  =  -0.203475

C          x =  0.429455  y =  0.678357  z =  1.618140 angstrom
           Maximum rank =  0   Radius =  0.650 angstrom
                   Q00  =   1.040052

O          x = -0.518545  y =  0.845357  z =  2.419140 angstrom
           Maximum rank =  0   Radius =  0.650 angstrom
                   Q00  =  -0.979927

O          x =  0.961455  y =  1.625357  z =  0.994140 angstrom
           Maximum rank =  0   Radius =  0.650 angstrom
                   Q00  =  -0.946261

H          x =  1.997455  y = -0.772643  z =  1.797140 angstrom
           Maximum rank =  0   Radius =  0.325 angstrom
                   Q00  =  -0.022195

H          x =  1.068455  y = -0.933643  z =  0.331140 angstrom
           Maximum rank =  0   Radius =  0.325 angstrom
                   Q00  =   0.115268

H          x = -0.904545  y = -1.622643  z =  1.970140 angstrom
           Maximum rank =  0   Radius =  0.325 angstrom
                   Q00  =   0.115004

H          x =  0.389455  y = -1.766643  z =  3.169140 angstrom
           Maximum rank =  0   Radius =  0.325 angstrom
                   Q00  =   0.015364

H          x =  0.379875  y = -2.813813  z =  1.717983 angstrom
           Maximum rank =  0   Radius =  0.325 angstrom
                   Q00  =   0.005511

Total multipoles referred to origin at
           x =   0.000000,  y =    0.000000,  z =    0.000000 angstrom
                   Q00  =  -2.000000

Finished at 3:52:15 on 28 Apr 2020

  DMA results are available in the Python driver through the
	  variable('DMA DISTRIBUTED MULTIPOLES')
  and
	  variable('DMA TOTAL MULTIPOLES')
  commands.

    Psi4 stopped on: Tuesday, 28 April 2020 03:52AM
    Psi4 wall time for execution: 0:00:45.55

*** Psi4 exiting successfully. Buy a developer a beer!
