                               Psi4 1.3.2 release

  ==> Input File <==

--------------------------------------------------------------------------
import numpy as np
set {scf_type pk
basis cc-pvdz
d_convergence 10
gdma_switch   0
gdma_limit    0
gdma_origin   [ 0.0,  0.0,  0.0 ]
}
molecule test {
    units Angstrom
    0 1
    --
    0 1
    C                0.750808124802738     0.425760775411721     1.452622084441672
    C                2.183808124802738     0.164760775411721     0.962622084441672
    C               -0.028191875197262    -0.838239224588279     1.808622084441672
    H                0.759808124802738     1.093760775411721     2.309622084441672
    H                0.199808124802738     0.927760775411721     0.658622084441672
    H                2.120808124802738    -0.450239224588279     0.062622084441672
    H                0.328808124802738    -1.252239224588279     2.751622084441672
    H               -1.083191875197262    -0.587239224588279     1.921622084441672
    H                0.081808124802738    -1.583239224588279     1.019622084441672
    H                2.687567124802738     1.110200775411721     0.712882084441672
    H                2.768631124802738    -0.383511224588279     1.715872084441672
    C               -0.763191875197262    -0.247239224588279    -2.036377915558328
    C               -2.082191875197262     0.527760775411721    -2.088377915558328
    H                0.079808124802738     0.416760775411721    -2.217377915558328
    H               -0.651191875197262    -0.711239224588279    -1.059377915558328
    H               -0.773191875197262    -1.031239224588279    -2.793377915558328
    H               -2.868191875197262    -0.175239224588279    -1.811377915558328
    H               -2.291564875197262     0.894696775411721    -3.104017915558329
    H               -2.086514875197262     1.340415775411721    -1.347047915558328

}
e, wfn = energy('scf', return_wfn=True)
gdma(wfn)
dmavals = variable('DMA DISTRIBUTED MULTIPOLES')
charges = np.array(dmavals)
print(charges)
np.save('SSI-016ILE-021VAL-1-dimer.npy', np.array(charges))--------------------------------------------------------------------------

*** tstart() called on ds3
*** at Mon Apr 27 05:48:06 2020

   => Loading Basis Set <=

    Name: CC-PVDZ
    Role: ORBITAL
    Keyword: BASIS
    atoms 1-3, 12-13  entry C          line   138 file /theoryfs2/ds/metcalf/miniconda2/envs/tf2gpu/share/psi4/basis/cc-pvdz.gbs
    atoms 4-11, 14-19 entry H          line    22 file /theoryfs2/ds/metcalf/miniconda2/envs/tf2gpu/share/psi4/basis/cc-pvdz.gbs

         ---------------------------------------------------------
                                   SCF
               by Justin Turney, Rob Parrish, Andy Simmonett
                          and Daniel G. A. Smith
                              RHF Reference
                        1 Threads,    500 MiB Core
         ---------------------------------------------------------

  ==> Geometry <==

    Molecular point group: c1
    Full point group: C1

    Geometry (in Angstrom), charge = 0, multiplicity = 1:

       Center              X                  Y                   Z               Mass
    ------------   -----------------  -----------------  -----------------  -----------------
         C            0.750808124803     0.425760775412     1.452622084442    12.000000000000
         C            2.183808124803     0.164760775412     0.962622084442    12.000000000000
         C           -0.028191875197    -0.838239224588     1.808622084442    12.000000000000
         H            0.759808124803     1.093760775412     2.309622084442     1.007825032230
         H            0.199808124803     0.927760775412     0.658622084442     1.007825032230
         H            2.120808124803    -0.450239224588     0.062622084442     1.007825032230
         H            0.328808124803    -1.252239224588     2.751622084442     1.007825032230
         H           -1.083191875197    -0.587239224588     1.921622084442     1.007825032230
         H            0.081808124803    -1.583239224588     1.019622084442     1.007825032230
         H            2.687567124803     1.110200775412     0.712882084442     1.007825032230
         H            2.768631124803    -0.383511224588     1.715872084442     1.007825032230
         C           -0.763191875197    -0.247239224588    -2.036377915558    12.000000000000
         C           -2.082191875197     0.527760775412    -2.088377915558    12.000000000000
         H            0.079808124803     0.416760775412    -2.217377915558     1.007825032230
         H           -0.651191875197    -0.711239224588    -1.059377915558     1.007825032230
         H           -0.773191875197    -1.031239224588    -2.793377915558     1.007825032230
         H           -2.868191875197    -0.175239224588    -1.811377915558     1.007825032230
         H           -2.291564875197     0.894696775412    -3.104017915558     1.007825032230
         H           -2.086514875197     1.340415775412    -1.347047915558     1.007825032230

  Running in c1 symmetry.

  Rotational constants: A =      0.19985  B =      0.04702  C =      0.04259 [cm^-1]
  Rotational constants: A =   5991.23860  B =   1409.74700  C =   1276.96293 [MHz]
  Nuclear repulsion =  181.282265425434304

  Charge       = 0
  Multiplicity = 1
  Electrons    = 44
  Nalpha       = 22
  Nbeta        = 22

  ==> Algorithm <==

  SCF Algorithm Type is PK.
  DIIS enabled.
  MOM disabled.
  Fractional occupation disabled.
  Guess Type is SAD.
  Energy threshold   = 1.00e-06
  Density threshold  = 1.00e-10
  Integral threshold = 0.00e+00

  ==> Primary Basis <==

  Basis Set: CC-PVDZ
    Blend: CC-PVDZ
    Number of shells: 72
    Number of basis function: 140
    Number of Cartesian functions: 145
    Spherical Harmonics?: true
    Max angular momentum: 2

  ==> Pre-Iterations <==

   -------------------------------------------------------
    Irrep   Nso     Nmo     Nalpha   Nbeta   Ndocc  Nsocc
   -------------------------------------------------------
     A        140     140       0       0       0       0
   -------------------------------------------------------
    Total     140     140      22      22      22       0
   -------------------------------------------------------

  ==> Integral Setup <==

  Using integral reordering PK algorithm.
  Sizing the integral batches needed.
  Building batch lookup table.
   Calculation information:
      Number of atoms:                  19
      Number of AO shells:              72
      Number of primitives:            180
      Number of atomic orbitals:       145
      Number of basis functions:       140

      Integral cutoff                 1.00e-12
      Number of threads:                 1

	Batch   1 pq = [       0,    9405] index = [             0,44231715] size =     44231715
	Batch   2 pq = [    9405,    9870] index = [      44231715,48713385] size =      4481670
  Task number: 5
  Buffer size: 11059200
  Buffer per thread: 2
  We computed 3058829 shell quartets total.
  Whereas there are 3454506 unique shell quartets.

  ==> DiskJK: Disk-Based J/K Matrices <==

    J tasked:                  Yes
    K tasked:                  Yes
    wK tasked:                  No
    Memory [MiB]:              375
    Schwarz Cutoff:          1E-12

    OpenMP threads:              1

  Minimum eigenvalue in the overlap matrix is 5.6263422171E-03.
  Using Symmetric Orthogonalization.

  SCF Guess: Superposition of Atomic Densities via on-the-fly atomic UHF.

  ==> Iterations <==

                        Total Energy        Delta E     RMS |[F,P]|

   @RHF iter SAD:  -196.35924322758393   -1.96359e+02   0.00000e+00
   @RHF iter   1:  -197.31306474313990   -9.53822e-01   3.78936e-03 DIIS
   @RHF iter   2:  -197.47238766472296   -1.59323e-01   1.62764e-03 DIIS
   @RHF iter   3:  -197.50041499257125   -2.80273e-02   3.25032e-04 DIIS
   @RHF iter   4:  -197.50263314204821   -2.21815e-03   4.89999e-05 DIIS
   @RHF iter   5:  -197.50267232767010   -3.91856e-05   1.51444e-05 DIIS
   @RHF iter   6:  -197.50267580357394   -3.47590e-06   2.32936e-06 DIIS
   @RHF iter   7:  -197.50267590597915   -1.02405e-07   4.45530e-07 DIIS
   @RHF iter   8:  -197.50267590996316   -3.98401e-09   1.20938e-07 DIIS
   @RHF iter   9:  -197.50267591024004   -2.76884e-10   3.66173e-08 DIIS
   @RHF iter  10:  -197.50267591027128   -3.12355e-11   7.77933e-09 DIIS
   @RHF iter  11:  -197.50267591027290   -1.62004e-12   1.44023e-09 DIIS
   @RHF iter  12:  -197.50267591027313   -2.27374e-13   2.60174e-10 DIIS
   @RHF iter  13:  -197.50267591027307    5.68434e-14   4.39906e-11 DIIS
  Energy and wave function converged.

  ==> Post-Iterations <==

    Orbital Energies [Eh]
    ---------------------

    Doubly Occupied:

       1A    -11.220026     2A    -11.219200     3A    -11.218181
       4A    -11.216675     5A    -11.215669     6A     -1.052405
       7A     -1.018771     8A     -0.925322     9A     -0.837307
      10A     -0.797022    11A     -0.628084    12A     -0.598417
      13A     -0.597994    14A     -0.594347    15A     -0.549726
      16A     -0.533131    17A     -0.499607    18A     -0.489132
      19A     -0.483905    20A     -0.472251    21A     -0.470146
      22A     -0.466084

    Virtual:

      23A      0.165906    24A      0.198023    25A      0.217080
      26A      0.219471    27A      0.238508    28A      0.252028
      29A      0.258424    30A      0.267769    31A      0.277788
      32A      0.282999    33A      0.291885    34A      0.303065
      35A      0.329651    36A      0.338497    37A      0.376096
      38A      0.395728    39A      0.432416    40A      0.576051
      41A      0.584361    42A      0.599236    43A      0.611787
      44A      0.616951    45A      0.627369    46A      0.641411
      47A      0.674025    48A      0.682560    49A      0.765295
      50A      0.793774    51A      0.804531    52A      0.841874
      53A      0.851648    54A      0.873792    55A      0.885423
      56A      0.888503    57A      0.891652    58A      0.900311
      59A      0.905963    60A      0.908016    61A      0.913475
      62A      0.918695    63A      0.943838    64A      0.944819
      65A      0.960344    66A      0.979733    67A      1.009063
      68A      1.052381    69A      1.121807    70A      1.125836
      71A      1.127109    72A      1.136892    73A      1.212916
      74A      1.287736    75A      1.374537    76A      1.459203
      77A      1.469021    78A      1.472190    79A      1.501113
      80A      1.524230    81A      1.595174    82A      1.628076
      83A      1.666647    84A      1.682319    85A      1.686872
      86A      1.702165    87A      1.715331    88A      1.844773
      89A      1.855767    90A      1.867339    91A      1.877412
      92A      1.880430    93A      1.897670    94A      1.920302
      95A      1.931363    96A      1.938301    97A      1.945683
      98A      1.953052    99A      1.958115   100A      1.968275
     101A      1.970800   102A      1.985058   103A      1.989238
     104A      1.996633   105A      2.004828   106A      2.029609
     107A      2.055362   108A      2.101349   109A      2.128254
     110A      2.136202   111A      2.167051   112A      2.285984
     113A      2.295091   114A      2.307046   115A      2.315315
     116A      2.319784   117A      2.342427   118A      2.449765
     119A      2.469595   120A      2.493826   121A      2.534142
     122A      2.561052   123A      2.579444   124A      2.582312
     125A      2.618642   126A      2.627828   127A      2.752197
     128A      2.762156   129A      2.768949   130A      2.797376
     131A      2.808843   132A      2.822353   133A      2.840638
     134A      2.864197   135A      2.920736   136A      2.948877
     137A      2.970756   138A      2.977346   139A      2.982473
     140A      3.069967

    Final Occupation by Irrep:
              A
    DOCC [    22 ]

  @RHF Final Energy:  -197.50267591027307

   => Energetics <=

    Nuclear Repulsion Energy =            181.2822654254343036
    One-Electron Energy =                -623.3630774525547622
    Two-Electron Energy =                 244.5781361168474177
    Total Energy =                       -197.5026759102730693

Computation Completed

Properties will be evaluated at   0.000000,   0.000000,   0.000000 [a0]

Properties computed using the SCF density matrix

  Nuclear Dipole Moment: [e a0]
     X:    -0.6814      Y:    -0.3662      Z:    -1.1063

  Electronic Dipole Moment: [e a0]
     X:     0.6600      Y:     0.3742      Z:     1.1113

  Dipole Moment: [e a0]
     X:    -0.0214      Y:     0.0080      Z:     0.0050     Total:     0.0234

  Dipole Moment: [D]
     X:    -0.0544      Y:     0.0203      Z:     0.0128     Total:     0.0594

*** tstop() called on ds3 at Mon Apr 27 05:48:26 2020
Module time:
	user time   =      14.71 seconds =       0.25 minutes
	system time =       5.64 seconds =       0.09 minutes
	total time  =         20 seconds =       0.33 minutes
Total time:
	user time   =      14.71 seconds =       0.25 minutes
	system time =       5.64 seconds =       0.09 minutes
	total time  =         20 seconds =       0.33 minutes
                                     G D M A

                                 by Anthony Stone

                           version 2.2.06, 22 June 2011

               Distributed Multipoles from Gaussian wavefunctions

Starting at 5:48:26 on 27 Apr 2020

Using SCF density matrix from file ./SSI/SSI-016ILE-021VAL-1-dimer.test.30995.fchk

                         Distributed Multipole Analysis

Standard DMA

Positions and radii in angstrom
Multipole moments in atomic units, ea_0^k for rank k

C          x =  0.750808  y =  0.425761  z =  1.452622 angstrom
           Maximum rank =  0   Radius =  0.650 angstrom
                   Q00  =  -0.080866

C          x =  2.183808  y =  0.164761  z =  0.962622 angstrom
           Maximum rank =  0   Radius =  0.650 angstrom
                   Q00  =  -0.242031

C          x = -0.028192  y = -0.838239  z =  1.808622 angstrom
           Maximum rank =  0   Radius =  0.650 angstrom
                   Q00  =  -0.251183

H          x =  0.759808  y =  1.093761  z =  2.309622 angstrom
           Maximum rank =  0   Radius =  0.325 angstrom
                   Q00  =   0.050000

H          x =  0.199808  y =  0.927761  z =  0.658622 angstrom
           Maximum rank =  0   Radius =  0.325 angstrom
                   Q00  =   0.044874

H          x =  2.120808  y = -0.450239  z =  0.062622 angstrom
           Maximum rank =  0   Radius =  0.325 angstrom
                   Q00  =   0.078173

H          x =  0.328808  y = -1.252239  z =  2.751622 angstrom
           Maximum rank =  0   Radius =  0.325 angstrom
                   Q00  =   0.080085

H          x = -1.083192  y = -0.587239  z =  1.921622 angstrom
           Maximum rank =  0   Radius =  0.325 angstrom
                   Q00  =   0.082654

H          x =  0.081808  y = -1.583239  z =  1.019622 angstrom
           Maximum rank =  0   Radius =  0.325 angstrom
                   Q00  =   0.076060

H          x =  2.687567  y =  1.110201  z =  0.712882 angstrom
           Maximum rank =  0   Radius =  0.325 angstrom
                   Q00  =   0.085983

H          x =  2.768631  y = -0.383511  z =  1.715872 angstrom
           Maximum rank =  0   Radius =  0.325 angstrom
                   Q00  =   0.077031

C          x = -0.763192  y = -0.247239  z = -2.036378 angstrom
           Maximum rank =  0   Radius =  0.650 angstrom
                   Q00  =  -0.240582

C          x = -2.082192  y =  0.527761  z = -2.088378 angstrom
           Maximum rank =  0   Radius =  0.650 angstrom
                   Q00  =  -0.237795

H          x =  0.079808  y =  0.416761  z = -2.217378 angstrom
           Maximum rank =  0   Radius =  0.325 angstrom
                   Q00  =   0.078653

H          x = -0.651192  y = -0.711239  z = -1.059378 angstrom
           Maximum rank =  0   Radius =  0.325 angstrom
                   Q00  =   0.082485

H          x = -0.773192  y = -1.031239  z = -2.793378 angstrom
           Maximum rank =  0   Radius =  0.325 angstrom
                   Q00  =   0.079474

H          x = -2.868192  y = -0.175239  z = -1.811378 angstrom
           Maximum rank =  0   Radius =  0.325 angstrom
                   Q00  =   0.075532

H          x = -2.291565  y =  0.894697  z = -3.104018 angstrom
           Maximum rank =  0   Radius =  0.325 angstrom
                   Q00  =   0.082122

H          x = -2.086515  y =  1.340416  z = -1.347048 angstrom
           Maximum rank =  0   Radius =  0.325 angstrom
                   Q00  =   0.079333

Total multipoles referred to origin at
           x =   0.000000,  y =    0.000000,  z =    0.000000 angstrom
                   Q00  =  -0.000000

Finished at 5:48:26 on 27 Apr 2020

  DMA results are available in the Python driver through the
	  variable('DMA DISTRIBUTED MULTIPOLES')
  and
	  variable('DMA TOTAL MULTIPOLES')
  commands.

    Psi4 stopped on: Monday, 27 April 2020 05:48AM
    Psi4 wall time for execution: 0:00:20.46

*** Psi4 exiting successfully. Buy a developer a beer!
