                               Psi4 1.3.2 release

  ==> Input File <==

--------------------------------------------------------------------------
import numpy as np
set {scf_type pk
basis cc-pvdz
d_convergence 10
gdma_switch   0
gdma_limit    0
gdma_origin   [ 0.0,  0.0,  0.0 ]
}
molecule test {
    units Angstrom
    0 1
    --
    0 1
    C                0.095826961896031    -2.229669304717314    -2.279088767957638
    C                0.998826961896031    -0.198669304717313     0.751911232042362
    C                0.232826961896031    -1.223669304717313     0.141911232042362
    C                0.629826961896031    -1.294669304717313    -1.237088767957638
    C                1.587826961896031    -0.343669304717313    -1.405088767957638
    C                0.862826961896031     0.137330695282687     2.089911232042362
    C               -0.057173038103969    -0.567669304717313     2.840911232042362
    C               -0.695173038103969    -1.922669304717313     0.923911232042362
    C               -0.830173038103968    -1.587669304717313     2.268911232042362
    N                1.814826961896032     0.316330695282687    -0.220088767957638
    H                2.503826961896032     1.049330695282687    -0.089088767957638
    H                1.461826961896031     0.920330695282687     2.526911232042361
    H                2.084826961896032    -0.129669304717313    -2.341088767957638
    H               -0.165173038103969    -0.333669304717313     3.890911232042362
    H               -1.294173038103968    -2.704669304717314     0.481911232042362
    H                0.337826961896031    -1.826669304717313    -3.264088767957638
    H               -0.992173038103969    -2.251669304717313    -2.191088767957638
    H               -1.543173038103969    -2.121669304717313     2.884911232042362
    H                0.478720961896031    -3.258159304717313    -2.204238767957639
    C               -1.418173038103968     2.257330695282687    -0.641088767957638
    C               -0.803173038103969     3.643330695282687    -0.425088767957638
    C               -2.008173038103969     2.048330695282687    -2.026088767957638
    H               -0.665173038103969     1.495330695282687    -0.467088767957638
    H               -2.220173038103969     2.104330695282687     0.075911232042362
    H               -1.531173038103969     4.399330695282687    -0.721088767957638
    H               -1.253173038103968     2.146330695282687    -2.799088767957638
    H               -2.436173038103969     1.047330695282687    -2.087088767957638
    H               -2.794173038103968     2.778330695282687    -2.180088767957638
    H               -0.561935038103968     3.782510695282686     0.639071232042362
    H                0.091892961896031     3.772740695282687    -1.051278767957638

}
e, wfn = energy('scf', return_wfn=True)
gdma(wfn)
dmavals = variable('DMA DISTRIBUTED MULTIPOLES')
charges = np.array(dmavals)
print(charges)
np.save('SSI-029TRP-305ILE-1-dimer.npy', np.array(charges))--------------------------------------------------------------------------

*** tstart() called on ds3
*** at Tue Apr 28 12:20:57 2020

   => Loading Basis Set <=

    Name: CC-PVDZ
    Role: ORBITAL
    Keyword: BASIS
    atoms 1-9, 20-22   entry C          line   138 file /theoryfs2/ds/metcalf/miniconda2/envs/tf2gpu/share/psi4/basis/cc-pvdz.gbs
    atoms 10           entry N          line   168 file /theoryfs2/ds/metcalf/miniconda2/envs/tf2gpu/share/psi4/basis/cc-pvdz.gbs
    atoms 11-19, 23-30 entry H          line    22 file /theoryfs2/ds/metcalf/miniconda2/envs/tf2gpu/share/psi4/basis/cc-pvdz.gbs

         ---------------------------------------------------------
                                   SCF
               by Justin Turney, Rob Parrish, Andy Simmonett
                          and Daniel G. A. Smith
                              RHF Reference
                        1 Threads,    500 MiB Core
         ---------------------------------------------------------

  ==> Geometry <==

    Molecular point group: c1
    Full point group: C1

    Geometry (in Angstrom), charge = 0, multiplicity = 1:

       Center              X                  Y                   Z               Mass
    ------------   -----------------  -----------------  -----------------  -----------------
         C            0.095826961896    -2.229669304717    -2.279088767958    12.000000000000
         C            0.998826961896    -0.198669304717     0.751911232042    12.000000000000
         C            0.232826961896    -1.223669304717     0.141911232042    12.000000000000
         C            0.629826961896    -1.294669304717    -1.237088767958    12.000000000000
         C            1.587826961896    -0.343669304717    -1.405088767958    12.000000000000
         C            0.862826961896     0.137330695283     2.089911232042    12.000000000000
         C           -0.057173038104    -0.567669304717     2.840911232042    12.000000000000
         C           -0.695173038104    -1.922669304717     0.923911232042    12.000000000000
         C           -0.830173038104    -1.587669304717     2.268911232042    12.000000000000
         N            1.814826961896     0.316330695283    -0.220088767958    14.003074004430
         H            2.503826961896     1.049330695283    -0.089088767958     1.007825032230
         H            1.461826961896     0.920330695283     2.526911232042     1.007825032230
         H            2.084826961896    -0.129669304717    -2.341088767958     1.007825032230
         H           -0.165173038104    -0.333669304717     3.890911232042     1.007825032230
         H           -1.294173038104    -2.704669304717     0.481911232042     1.007825032230
         H            0.337826961896    -1.826669304717    -3.264088767958     1.007825032230
         H           -0.992173038104    -2.251669304717    -2.191088767958     1.007825032230
         H           -1.543173038104    -2.121669304717     2.884911232042     1.007825032230
         H            0.478720961896    -3.258159304717    -2.204238767958     1.007825032230
         C           -1.418173038104     2.257330695283    -0.641088767958    12.000000000000
         C           -0.803173038104     3.643330695283    -0.425088767958    12.000000000000
         C           -2.008173038104     2.048330695283    -2.026088767958    12.000000000000
         H           -0.665173038104     1.495330695283    -0.467088767958     1.007825032230
         H           -2.220173038104     2.104330695283     0.075911232042     1.007825032230
         H           -1.531173038104     4.399330695283    -0.721088767958     1.007825032230
         H           -1.253173038104     2.146330695283    -2.799088767958     1.007825032230
         H           -2.436173038104     1.047330695283    -2.087088767958     1.007825032230
         H           -2.794173038104     2.778330695283    -2.180088767958     1.007825032230
         H           -0.561935038104     3.782510695283     0.639071232042     1.007825032230
         H            0.091892961896     3.772740695283    -1.051278767958     1.007825032230

  Running in c1 symmetry.

  Rotational constants: A =      0.02761  B =      0.02001  C =      0.01590 [cm^-1]
  Rotational constants: A =    827.58458  B =    599.79525  C =    476.77442 [MHz]
  Nuclear repulsion =  769.201644042535463

  Charge       = 0
  Multiplicity = 1
  Electrons    = 96
  Nalpha       = 48
  Nbeta        = 48

  ==> Algorithm <==

  SCF Algorithm Type is PK.
  DIIS enabled.
  MOM disabled.
  Fractional occupation disabled.
  Guess Type is SAD.
  Energy threshold   = 1.00e-06
  Density threshold  = 1.00e-10
  Integral threshold = 0.00e+00

  ==> Primary Basis <==

  Basis Set: CC-PVDZ
    Blend: CC-PVDZ
    Number of shells: 129
    Number of basis function: 267
    Number of Cartesian functions: 280
    Spherical Harmonics?: true
    Max angular momentum: 2

  ==> Pre-Iterations <==

   -------------------------------------------------------
    Irrep   Nso     Nmo     Nalpha   Nbeta   Ndocc  Nsocc
   -------------------------------------------------------
     A        267     267       0       0       0       0
   -------------------------------------------------------
    Total     267     267      48      48      48       0
   -------------------------------------------------------

  ==> Integral Setup <==

  Using integral reordering PK algorithm.
  Sizing the integral batches needed.
  Building batch lookup table.
   Calculation information:
      Number of atoms:                  30
      Number of AO shells:             129
      Number of primitives:            371
      Number of atomic orbitals:       280
      Number of basis functions:       267

      Integral cutoff                 1.00e-12
      Number of threads:                 1

	Batch   1 pq = [       0,    9405] index = [             0,44231715] size =     44231715
	Batch   2 pq = [    9405,   13301] index = [      44231715,88464951] size =     44233236
	Batch   3 pq = [   13301,   16290] index = [      88464951,132690195] size =     44225244
	Batch   4 pq = [   16290,   18810] index = [     132690195,176917455] size =     44227260
	Batch   5 pq = [   18810,   21030] index = [     176917455,221140965] size =     44223510
	Batch   6 pq = [   21030,   23037] index = [     221140965,265363203] size =     44222238
	Batch   7 pq = [   23037,   24883] index = [     265363203,309594286] size =     44231083
	Batch   8 pq = [   24883,   26601] index = [     309594286,353819901] size =     44225615
	Batch   9 pq = [   26601,   28214] index = [     353819901,398029005] size =     44209104
	Batch  10 pq = [   28214,   29740] index = [     398029005,442248670] size =     44219665
	Batch  11 pq = [   29740,   31191] index = [     442248670,486454836] size =     44206166
	Batch  12 pq = [   31191,   32578] index = [     486454836,530679331] size =     44224495
	Batch  13 pq = [   32578,   33908] index = [     530679331,574893186] size =     44213855
	Batch  14 pq = [   33908,   35188] index = [     574893186,619115266] size =     44222080
	Batch  15 pq = [   35188,   35778] index = [     619115266,640050531] size =     20935265
  Task number: 58
  Buffer size: 11059200
  Buffer per thread: 2
  We computed 39339182 shell quartets total.
  Whereas there are 35158305 unique shell quartets.
    11.89 percent of shell quartets recomputed by reordering.

  ==> DiskJK: Disk-Based J/K Matrices <==

    J tasked:                  Yes
    K tasked:                  Yes
    wK tasked:                  No
    Memory [MiB]:              375
    Schwarz Cutoff:          1E-12

    OpenMP threads:              1

  Minimum eigenvalue in the overlap matrix is 2.3609618423E-04.
  Using Symmetric Orthogonalization.

  SCF Guess: Superposition of Atomic Densities via on-the-fly atomic UHF.

  ==> Iterations <==

                        Total Energy        Delta E     RMS |[F,P]|

   @RHF iter SAD:  -518.09078711124857   -5.18091e+02   0.00000e+00
   @RHF iter   1:  -518.49409931603077   -4.03312e-01   2.50925e-03 DIIS
   @RHF iter   2:  -518.75458156163813   -2.60482e-01   1.11741e-03 DIIS
   @RHF iter   3:  -518.80165809288394   -4.70765e-02   2.85343e-04 DIIS
   @RHF iter   4:  -518.80578291932795   -4.12483e-03   1.31361e-04 DIIS
   @RHF iter   5:  -518.80646986559225   -6.86946e-04   1.94756e-05 DIIS
   @RHF iter   6:  -518.80650083243029   -3.09668e-05   8.58791e-06 DIIS
   @RHF iter   7:  -518.80650705282994   -6.22040e-06   3.45374e-06 DIIS
   @RHF iter   8:  -518.80650868831481   -1.63548e-06   1.45111e-06 DIIS
   @RHF iter   9:  -518.80650904441893   -3.56104e-07   6.29475e-07 DIIS
   @RHF iter  10:  -518.80650911680539   -7.23865e-08   2.73290e-07 DIIS
   @RHF iter  11:  -518.80650913323905   -1.64337e-08   1.07596e-07 DIIS
   @RHF iter  12:  -518.80650913559225   -2.35320e-09   3.72216e-08 DIIS
   @RHF iter  13:  -518.80650913576551   -1.73259e-10   1.00361e-08 DIIS
   @RHF iter  14:  -518.80650913578188   -1.63709e-11   3.60580e-09 DIIS
   @RHF iter  15:  -518.80650913578165    2.27374e-13   1.82164e-09 DIIS
   @RHF iter  16:  -518.80650913578893   -7.27596e-12   1.00457e-09 DIIS
   @RHF iter  17:  -518.80650913578279    6.13909e-12   3.55763e-10 DIIS
   @RHF iter  18:  -518.80650913578370   -9.09495e-13   1.41007e-10 DIIS
   @RHF iter  19:  -518.80650913579052   -6.82121e-12   5.09772e-11 DIIS
  Energy and wave function converged.

  ==> Post-Iterations <==

    Orbital Energies [Eh]
    ---------------------

    Doubly Occupied:

       1A    -15.602584     2A    -11.265089     3A    -11.263794
       4A    -11.231560     5A    -11.230268     6A    -11.229012
       7A    -11.228101     8A    -11.222284     9A    -11.220809
      10A    -11.218800    11A    -11.211809    12A    -11.204682
      13A    -11.204063    14A     -1.296933    15A     -1.129803
      16A     -1.074893    17A     -1.045102    18A     -0.998342
      19A     -0.988802    20A     -0.932494    21A     -0.918558
      22A     -0.840697    23A     -0.804991    24A     -0.786897
      25A     -0.754237    26A     -0.721158    27A     -0.663863
      28A     -0.642927    29A     -0.621045    30A     -0.604046
      31A     -0.593645    32A     -0.591356    33A     -0.584738
      34A     -0.568257    35A     -0.553718    36A     -0.543273
      37A     -0.538985    38A     -0.528312    39A     -0.526431
      40A     -0.495356    41A     -0.472325    42A     -0.463592
      43A     -0.462801    44A     -0.459218    45A     -0.456559
      46A     -0.374278    47A     -0.296269    48A     -0.277015

    Virtual:

      49A      0.124886    50A      0.166606    51A      0.168593
      52A      0.179796    53A      0.198528    54A      0.203488
      55A      0.218134    56A      0.228176    57A      0.231129
      58A      0.243195    59A      0.247410    60A      0.254480
      61A      0.264166    62A      0.269064    63A      0.276441
      64A      0.287868    65A      0.294133    66A      0.310833
      67A      0.316787    68A      0.324096    69A      0.372264
      70A      0.382114    71A      0.384023    72A      0.410593
      73A      0.419684    74A      0.435360    75A      0.446594
      76A      0.471335    77A      0.480991    78A      0.501652
      79A      0.535240    80A      0.578897    81A      0.584048
      82A      0.594730    83A      0.611771    84A      0.617683
      85A      0.624146    86A      0.632616    87A      0.641793
      88A      0.659573    89A      0.681473    90A      0.698619
      91A      0.713650    92A      0.724087    93A      0.732114
      94A      0.741131    95A      0.742755    96A      0.746126
      97A      0.758855    98A      0.769376    99A      0.773917
     100A      0.784867   101A      0.790452   102A      0.797750
     103A      0.808338   104A      0.834006   105A      0.837046
     106A      0.863375   107A      0.866666   108A      0.879722
     109A      0.886492   110A      0.888887   111A      0.891933
     112A      0.901377   113A      0.903433   114A      0.907198
     115A      0.910838   116A      0.918597   117A      0.924321
     118A      0.929823   119A      0.944355   120A      0.949362
     121A      0.953626   122A      0.957602   123A      0.966935
     124A      0.977622   125A      0.991744   126A      0.998447
     127A      1.011733   128A      1.040585   129A      1.070931
     130A      1.093591   131A      1.115333   132A      1.127206
     133A      1.133714   134A      1.139854   135A      1.143034
     136A      1.153034   137A      1.166682   138A      1.173933
     139A      1.212737   140A      1.225579   141A      1.230165
     142A      1.234644   143A      1.248000   144A      1.272331
     145A      1.288484   146A      1.300127   147A      1.326035
     148A      1.330490   149A      1.352079   150A      1.367476
     151A      1.383470   152A      1.401835   153A      1.421071
     154A      1.449069   155A      1.476056   156A      1.511665
     157A      1.524844   158A      1.533602   159A      1.553132
     160A      1.575693   161A      1.597146   162A      1.632115
     163A      1.636084   164A      1.649300   165A      1.675196
     166A      1.682868   167A      1.686572   168A      1.697099
     169A      1.702216   170A      1.706629   171A      1.743464
     172A      1.761787   173A      1.775891   174A      1.801958
     175A      1.809285   176A      1.830425   177A      1.846494
     178A      1.871968   179A      1.874370   180A      1.881182
     181A      1.890459   182A      1.898590   183A      1.906570
     184A      1.909455   185A      1.919728   186A      1.925269
     187A      1.936210   188A      1.940287   189A      1.950806
     190A      1.956234   191A      1.965715   192A      1.974390
     193A      1.985893   194A      1.994794   195A      1.999192
     196A      2.005579   197A      2.008720   198A      2.013089
     199A      2.031613   200A      2.038493   201A      2.052714
     202A      2.059486   203A      2.081008   204A      2.084640
     205A      2.102983   206A      2.109127   207A      2.115483
     208A      2.124378   209A      2.142311   210A      2.146092
     211A      2.161801   212A      2.171137   213A      2.179302
     214A      2.184719   215A      2.226355   216A      2.247955
     217A      2.289444   218A      2.298938   219A      2.307583
     220A      2.311258   221A      2.318630   222A      2.330149
     223A      2.341952   224A      2.358843   225A      2.362644
     226A      2.400131   227A      2.418441   228A      2.451533
     229A      2.465782   230A      2.512933   231A      2.545741
     232A      2.553294   233A      2.590435   234A      2.598901
     235A      2.606881   236A      2.636092   237A      2.640763
     238A      2.668879   239A      2.681693   240A      2.686701
     241A      2.699837   242A      2.762155   243A      2.768645
     244A      2.771848   245A      2.781741   246A      2.789055
     247A      2.803821   248A      2.812278   249A      2.830635
     250A      2.831936   251A      2.873339   252A      2.879203
     253A      2.910153   254A      2.951087   255A      2.969686
     256A      2.985008   257A      2.995329   258A      3.035341
     259A      3.068805   260A      3.091709   261A      3.131158
     262A      3.142632   263A      3.208536   264A      3.308309
     265A      3.381460   266A      3.752104   267A      3.957087

    Final Occupation by Irrep:
              A
    DOCC [    48 ]

  @RHF Final Energy:  -518.80650913579052

   => Energetics <=

    Nuclear Repulsion Energy =            769.2016440425354631
    One-Electron Energy =               -2228.1287646386567758
    Two-Electron Energy =                 940.1206114603307924
    Total Energy =                       -518.8065091357905203

Computation Completed

Properties will be evaluated at   0.000000,   0.000000,   0.000000 [a0]

Properties computed using the SCF density matrix

  Nuclear Dipole Moment: [e a0]
     X:    -7.9716      Y:    10.1891      Z:    -8.3388

  Electronic Dipole Moment: [e a0]
     X:     8.5482      Y:    -9.8661      Z:     8.0823

  Dipole Moment: [e a0]
     X:     0.5765      Y:     0.3230      Z:    -0.2565     Total:     0.7089

  Dipole Moment: [D]
     X:     1.4654      Y:     0.8210      Z:    -0.6520     Total:     1.8018

*** tstop() called on ds3 at Tue Apr 28 12:35:31 2020
Module time:
	user time   =     305.36 seconds =       5.09 minutes
	system time =     101.17 seconds =       1.69 minutes
	total time  =        874 seconds =      14.57 minutes
Total time:
	user time   =     305.36 seconds =       5.09 minutes
	system time =     101.17 seconds =       1.69 minutes
	total time  =        874 seconds =      14.57 minutes
                                     G D M A

                                 by Anthony Stone

                           version 2.2.06, 22 June 2011

               Distributed Multipoles from Gaussian wavefunctions

Starting at 12:35:31 on 28 Apr 2020

Using SCF density matrix from file ./SSI/SSI-029TRP-305ILE-1-dimer.test.14733.fchk

                         Distributed Multipole Analysis

Standard DMA

Positions and radii in angstrom
Multipole moments in atomic units, ea_0^k for rank k

C          x =  0.095827  y = -2.229669  z = -2.279089 angstrom
           Maximum rank =  0   Radius =  0.650 angstrom
                   Q00  =  -0.208012

C          x =  0.998827  y = -0.198669  z =  0.751911 angstrom
           Maximum rank =  0   Radius =  0.650 angstrom
                   Q00  =   0.293821

C          x =  0.232827  y = -1.223669  z =  0.141911 angstrom
           Maximum rank =  0   Radius =  0.650 angstrom
                   Q00  =  -0.045194

C          x =  0.629827  y = -1.294669  z = -1.237089 angstrom
           Maximum rank =  0   Radius =  0.650 angstrom
                   Q00  =  -0.121593

C          x =  1.587827  y = -0.343669  z = -1.405089 angstrom
           Maximum rank =  0   Radius =  0.650 angstrom
                   Q00  =   0.071828

C          x =  0.862827  y =  0.137331  z =  2.089911 angstrom
           Maximum rank =  0   Radius =  0.650 angstrom
                   Q00  =  -0.119188

C          x = -0.057173  y = -0.567669  z =  2.840911 angstrom
           Maximum rank =  0   Radius =  0.650 angstrom
                   Q00  =  -0.068460

C          x = -0.695173  y = -1.922669  z =  0.923911 angstrom
           Maximum rank =  0   Radius =  0.650 angstrom
                   Q00  =  -0.097063

C          x = -0.830173  y = -1.587669  z =  2.268911 angstrom
           Maximum rank =  0   Radius =  0.650 angstrom
                   Q00  =  -0.087825

N          x =  1.814827  y =  0.316331  z = -0.220089 angstrom
           Maximum rank =  0   Radius =  0.650 angstrom
                   Q00  =  -0.494556

H          x =  2.503827  y =  1.049331  z = -0.089089 angstrom
           Maximum rank =  0   Radius =  0.325 angstrom
                   Q00  =   0.219881

H          x =  1.461827  y =  0.920331  z =  2.526911 angstrom
           Maximum rank =  0   Radius =  0.325 angstrom
                   Q00  =   0.070954

H          x =  2.084827  y = -0.129669  z = -2.341089 angstrom
           Maximum rank =  0   Radius =  0.325 angstrom
                   Q00  =   0.100625

H          x = -0.165173  y = -0.333669  z =  3.890911 angstrom
           Maximum rank =  0   Radius =  0.325 angstrom
                   Q00  =   0.064498

H          x = -1.294173  y = -2.704669  z =  0.481911 angstrom
           Maximum rank =  0   Radius =  0.325 angstrom
                   Q00  =   0.071350

H          x =  0.337827  y = -1.826669  z = -3.264089 angstrom
           Maximum rank =  0   Radius =  0.325 angstrom
                   Q00  =   0.103611

H          x = -0.992173  y = -2.251669  z = -2.191089 angstrom
           Maximum rank =  0   Radius =  0.325 angstrom
                   Q00  =   0.099155

H          x = -1.543173  y = -2.121669  z =  2.884911 angstrom
           Maximum rank =  0   Radius =  0.325 angstrom
                   Q00  =   0.060781

H          x =  0.478721  y = -3.258159  z = -2.204239 angstrom
           Maximum rank =  0   Radius =  0.325 angstrom
                   Q00  =   0.099729

C          x = -1.418173  y =  2.257331  z = -0.641089 angstrom
           Maximum rank =  0   Radius =  0.650 angstrom
                   Q00  =  -0.087085

C          x = -0.803173  y =  3.643331  z = -0.425089 angstrom
           Maximum rank =  0   Radius =  0.650 angstrom
                   Q00  =  -0.243158

C          x = -2.008173  y =  2.048331  z = -2.026089 angstrom
           Maximum rank =  0   Radius =  0.650 angstrom
                   Q00  =  -0.229993

H          x = -0.665173  y =  1.495331  z = -0.467089 angstrom
           Maximum rank =  0   Radius =  0.325 angstrom
                   Q00  =   0.053443

H          x = -2.220173  y =  2.104331  z =  0.075911 angstrom
           Maximum rank =  0   Radius =  0.325 angstrom
                   Q00  =   0.044697

H          x = -1.531173  y =  4.399331  z = -0.721089 angstrom
           Maximum rank =  0   Radius =  0.325 angstrom
                   Q00  =   0.073547

H          x = -1.253173  y =  2.146331  z = -2.799089 angstrom
           Maximum rank =  0   Radius =  0.325 angstrom
                   Q00  =   0.071128

H          x = -2.436173  y =  1.047331  z = -2.087089 angstrom
           Maximum rank =  0   Radius =  0.325 angstrom
                   Q00  =   0.083605

H          x = -2.794173  y =  2.778331  z = -2.180089 angstrom
           Maximum rank =  0   Radius =  0.325 angstrom
                   Q00  =   0.070093

H          x = -0.561935  y =  3.782511  z =  0.639071 angstrom
           Maximum rank =  0   Radius =  0.325 angstrom
                   Q00  =   0.081406

H          x =  0.091893  y =  3.772741  z = -1.051279 angstrom
           Maximum rank =  0   Radius =  0.325 angstrom
                   Q00  =   0.067974

Total multipoles referred to origin at
           x =   0.000000,  y =    0.000000,  z =    0.000000 angstrom
                   Q00  =  -0.000000

Finished at 12:35:31 on 28 Apr 2020

  DMA results are available in the Python driver through the
	  variable('DMA DISTRIBUTED MULTIPOLES')
  and
	  variable('DMA TOTAL MULTIPOLES')
  commands.

    Psi4 stopped on: Tuesday, 28 April 2020 12:35PM
    Psi4 wall time for execution: 0:14:34.21

*** Psi4 exiting successfully. Buy a developer a beer!
