                               Psi4 1.3.2 release

  ==> Input File <==

--------------------------------------------------------------------------
import numpy as np
set {scf_type pk
basis cc-pvdz
d_convergence 10
gdma_switch   0
gdma_limit    0
gdma_origin   [ 0.0,  0.0,  0.0 ]
}
molecule test {
    units Angstrom
    0 1
    --
    0 1
    C               -0.845209582281861     0.417273884077550     1.790657696652149
    C               -0.080209582281862    -0.833726115922450     2.236657696652150
    H               -1.503209582281862     0.756273884077550     2.591657696652149
    H               -0.139209582281862     1.214273884077550     1.555657696652149
    H               -1.444209582281861     0.201273884077550     0.907657696652150
    H                0.607790417718139    -1.103726115922450     1.437657696652149
    H               -0.793529582281861    -1.659486115922450     2.375596696652150
    H                0.526640417718138    -0.635996115922450     3.132555696652149
    C                0.517790417718138     0.871273884077550    -1.641342303347850
    C                0.407790417718139    -0.459726115922450    -2.379342303347850
    H                1.079790417718138     0.740273884077550    -0.717342303347850
    H                1.009790417718138     1.601273884077550    -2.271342303347850
    H               -0.478209582281862     1.250273884077550    -1.410342303347851
    H               -0.104209582281862    -0.275726115922450    -3.323342303347850
    H               -0.172509582281862    -1.166586115922450    -1.768118303347850
    H                1.409150417718138    -0.863726115922450    -2.589247303347851

}
e, wfn = energy('scf', return_wfn=True)
gdma(wfn)
dmavals = variable('DMA DISTRIBUTED MULTIPOLES')
charges = np.array(dmavals)
print(charges)
np.save('SSI-005LEU-030LEU-2-dimer.npy', np.array(charges))--------------------------------------------------------------------------

*** tstart() called on ds3
*** at Mon Apr 27 10:35:40 2020

   => Loading Basis Set <=

    Name: CC-PVDZ
    Role: ORBITAL
    Keyword: BASIS
    atoms 1-2, 9-10  entry C          line   138 file /theoryfs2/ds/metcalf/miniconda2/envs/tf2gpu/share/psi4/basis/cc-pvdz.gbs
    atoms 3-8, 11-16 entry H          line    22 file /theoryfs2/ds/metcalf/miniconda2/envs/tf2gpu/share/psi4/basis/cc-pvdz.gbs

         ---------------------------------------------------------
                                   SCF
               by Justin Turney, Rob Parrish, Andy Simmonett
                          and Daniel G. A. Smith
                              RHF Reference
                        1 Threads,    500 MiB Core
         ---------------------------------------------------------

  ==> Geometry <==

    Molecular point group: c1
    Full point group: C1

    Geometry (in Angstrom), charge = 0, multiplicity = 1:

       Center              X                  Y                   Z               Mass
    ------------   -----------------  -----------------  -----------------  -----------------
         C           -0.845209582282     0.417273884078     1.790657696652    12.000000000000
         C           -0.080209582282    -0.833726115922     2.236657696652    12.000000000000
         H           -1.503209582282     0.756273884078     2.591657696652     1.007825032230
         H           -0.139209582282     1.214273884078     1.555657696652     1.007825032230
         H           -1.444209582282     0.201273884078     0.907657696652     1.007825032230
         H            0.607790417718    -1.103726115922     1.437657696652     1.007825032230
         H           -0.793529582282    -1.659486115922     2.375596696652     1.007825032230
         H            0.526640417718    -0.635996115922     3.132555696652     1.007825032230
         C            0.517790417718     0.871273884078    -1.641342303348    12.000000000000
         C            0.407790417718    -0.459726115922    -2.379342303348    12.000000000000
         H            1.079790417718     0.740273884078    -0.717342303348     1.007825032230
         H            1.009790417718     1.601273884078    -2.271342303348     1.007825032230
         H           -0.478209582282     1.250273884078    -1.410342303348     1.007825032230
         H           -0.104209582282    -0.275726115922    -3.323342303348     1.007825032230
         H           -0.172509582282    -1.166586115922    -1.768118303348     1.007825032230
         H            1.409150417718    -0.863726115922    -2.589247303348     1.007825032230

  Running in c1 symmetry.

  Rotational constants: A =      0.36411  B =      0.06023  C =      0.05558 [cm^-1]
  Rotational constants: A =  10915.82464  B =   1805.53984  C =   1666.19602 [MHz]
  Nuclear repulsion =  124.845377630425261

  Charge       = 0
  Multiplicity = 1
  Electrons    = 36
  Nalpha       = 18
  Nbeta        = 18

  ==> Algorithm <==

  SCF Algorithm Type is PK.
  DIIS enabled.
  MOM disabled.
  Fractional occupation disabled.
  Guess Type is SAD.
  Energy threshold   = 1.00e-06
  Density threshold  = 1.00e-10
  Integral threshold = 0.00e+00

  ==> Primary Basis <==

  Basis Set: CC-PVDZ
    Blend: CC-PVDZ
    Number of shells: 60
    Number of basis function: 116
    Number of Cartesian functions: 120
    Spherical Harmonics?: true
    Max angular momentum: 2

  ==> Pre-Iterations <==

   -------------------------------------------------------
    Irrep   Nso     Nmo     Nalpha   Nbeta   Ndocc  Nsocc
   -------------------------------------------------------
     A        116     116       0       0       0       0
   -------------------------------------------------------
    Total     116     116      18      18      18       0
   -------------------------------------------------------

  ==> Integral Setup <==

  Using integral reordering PK algorithm.
  Sizing the integral batches needed.
  Building batch lookup table.
   Calculation information:
      Number of atoms:                  16
      Number of AO shells:              60
      Number of primitives:            148
      Number of atomic orbitals:       120
      Number of basis functions:       116

      Integral cutoff                 1.00e-12
      Number of threads:                 1

	Batch   1 pq = [       0,    6786] index = [             0,23028291] size =     23028291
  Task number: 3
  Buffer size: 11059200
  Buffer per thread: 2
  We computed 1551151 shell quartets total.
  Whereas there are 1675365 unique shell quartets.

  ==> DiskJK: Disk-Based J/K Matrices <==

    J tasked:                  Yes
    K tasked:                  Yes
    wK tasked:                  No
    Memory [MiB]:              375
    Schwarz Cutoff:          1E-12

    OpenMP threads:              1

  Minimum eigenvalue in the overlap matrix is 7.5003471029E-03.
  Using Symmetric Orthogonalization.

  SCF Guess: Superposition of Atomic Densities via on-the-fly atomic UHF.

  ==> Iterations <==

                        Total Energy        Delta E     RMS |[F,P]|

   @RHF iter SAD:  -157.35317059089562   -1.57353e+02   0.00000e+00
   @RHF iter   1:  -158.30684567669516   -9.53675e-01   4.21874e-03 DIIS
   @RHF iter   2:  -158.44048029623715   -1.33635e-01   1.80155e-03 DIIS
   @RHF iter   3:  -158.46401307234493   -2.35328e-02   3.50151e-04 DIIS
   @RHF iter   4:  -158.46584410083881   -1.83103e-03   3.88224e-05 DIIS
   @RHF iter   5:  -158.46586778409772   -2.36833e-05   6.56719e-06 DIIS
   @RHF iter   6:  -158.46586843670141   -6.52604e-07   8.98013e-07 DIIS
   @RHF iter   7:  -158.46586844583609   -9.13468e-09   2.73778e-07 DIIS
   @RHF iter   8:  -158.46586844645475   -6.18655e-10   3.91009e-08 DIIS
   @RHF iter   9:  -158.46586844647481   -2.00657e-11   8.17207e-09 DIIS
   @RHF iter  10:  -158.46586844647567   -8.52651e-13   1.73699e-09 DIIS
   @RHF iter  11:  -158.46586844647587   -1.98952e-13   3.56041e-10 DIIS
   @RHF iter  12:  -158.46586844647567    1.98952e-13   8.30822e-11 DIIS
  Energy and wave function converged.

  ==> Post-Iterations <==

    Orbital Energies [Eh]
    ---------------------

    Doubly Occupied:

       1A    -11.219764     2A    -11.219372     3A    -11.216568
       4A    -11.215262     5A     -1.020753     6A     -1.016934
       7A     -0.838093     8A     -0.834420     9A     -0.606118
      10A     -0.601727    11A     -0.597576    12A     -0.591069
      13A     -0.501014    14A     -0.497541    15A     -0.490744
      16A     -0.487743    17A     -0.484643    18A     -0.480401

    Virtual:

      19A      0.163446    20A      0.205583    21A      0.222995
      22A      0.226794    23A      0.247599    24A      0.258111
      25A      0.262914    26A      0.273376    27A      0.276312
      28A      0.294130    29A      0.325666    30A      0.352066
      31A      0.390911    32A      0.396654    33A      0.564546
      34A      0.595958    35A      0.602756    36A      0.607678
      37A      0.614421    38A      0.636983    39A      0.649205
      40A      0.678256    41A      0.693001    42A      0.814379
      43A      0.841286    44A      0.845262    45A      0.875647
      46A      0.883930    47A      0.888883    48A      0.897900
      49A      0.905633    50A      0.911377    51A      0.918704
      52A      0.923188    53A      0.938065    54A      0.970935
      55A      0.975326    56A      0.998562    57A      1.123614
      58A      1.126630    59A      1.129112    60A      1.147917
      61A      1.225348    62A      1.255764    63A      1.468584
      64A      1.477799    65A      1.481243    66A      1.492327
      67A      1.530527    68A      1.612708    69A      1.677474
      70A      1.679319    71A      1.692918    72A      1.705758
      73A      1.854358    74A      1.860380    75A      1.861126
      76A      1.889475    77A      1.895661    78A      1.914993
      79A      1.933689    80A      1.943882    81A      1.945299
      82A      1.951504    83A      1.955265    84A      1.958416
      85A      1.963792    86A      1.968631    87A      1.979873
      88A      2.039435    89A      2.103010    90A      2.108627
      91A      2.119971    92A      2.130664    93A      2.286408
      94A      2.288406    95A      2.314563    96A      2.319161
      97A      2.445969    98A      2.456128    99A      2.467248
     100A      2.471007   101A      2.560893   102A      2.567640
     103A      2.576819   104A      2.582068   105A      2.762159
     106A      2.763928   107A      2.797030   108A      2.804384
     109A      2.842772   110A      2.845850   111A      2.851086
     112A      2.861250   113A      2.939295   114A      2.944775
     115A      2.961932   116A      2.992635

    Final Occupation by Irrep:
              A
    DOCC [    18 ]

  @RHF Final Energy:  -158.46586844647567

   => Energetics <=

    Nuclear Repulsion Energy =            124.8453776304252614
    One-Electron Energy =                -458.7830106549890843
    Two-Electron Energy =                 175.4717645780881412
    Total Energy =                       -158.4658684464756675

Computation Completed

Properties will be evaluated at   0.000000,   0.000000,   0.000000 [a0]

Properties computed using the SCF density matrix

  Nuclear Dipole Moment: [e a0]
     X:    -0.0018      Y:     0.0547      Z:    -0.0740

  Electronic Dipole Moment: [e a0]
     X:     0.0028      Y:    -0.0322      Z:     0.0567

  Dipole Moment: [e a0]
     X:     0.0010      Y:     0.0225      Z:    -0.0173     Total:     0.0285

  Dipole Moment: [D]
     X:     0.0025      Y:     0.0573      Z:    -0.0440     Total:     0.0723

*** tstop() called on ds3 at Mon Apr 27 10:36:32 2020
Module time:
	user time   =       8.05 seconds =       0.13 minutes
	system time =       2.50 seconds =       0.04 minutes
	total time  =         52 seconds =       0.87 minutes
Total time:
	user time   =       8.05 seconds =       0.13 minutes
	system time =       2.50 seconds =       0.04 minutes
	total time  =         52 seconds =       0.87 minutes
                                     G D M A

                                 by Anthony Stone

                           version 2.2.06, 22 June 2011

               Distributed Multipoles from Gaussian wavefunctions

Starting at 10:36:32 on 27 Apr 2020

Using SCF density matrix from file ./SSI/SSI-005LEU-030LEU-2-dimer.test.2610.fchk

                         Distributed Multipole Analysis

Standard DMA

Positions and radii in angstrom
Multipole moments in atomic units, ea_0^k for rank k

C          x = -0.845210  y =  0.417274  z =  1.790658 angstrom
           Maximum rank =  0   Radius =  0.650 angstrom
                   Q00  =  -0.236865

C          x = -0.080210  y = -0.833726  z =  2.236658 angstrom
           Maximum rank =  0   Radius =  0.650 angstrom
                   Q00  =  -0.237955

H          x = -1.503210  y =  0.756274  z =  2.591658 angstrom
           Maximum rank =  0   Radius =  0.325 angstrom
                   Q00  =   0.078001

H          x = -0.139210  y =  1.214274  z =  1.555658 angstrom
           Maximum rank =  0   Radius =  0.325 angstrom
                   Q00  =   0.079451

H          x = -1.444210  y =  0.201274  z =  0.907658 angstrom
           Maximum rank =  0   Radius =  0.325 angstrom
                   Q00  =   0.080449

H          x =  0.607790  y = -1.103726  z =  1.437658 angstrom
           Maximum rank =  0   Radius =  0.325 angstrom
                   Q00  =   0.075742

H          x = -0.793530  y = -1.659486  z =  2.375597 angstrom
           Maximum rank =  0   Radius =  0.325 angstrom
                   Q00  =   0.079646

H          x =  0.526640  y = -0.635996  z =  3.132556 angstrom
           Maximum rank =  0   Radius =  0.325 angstrom
                   Q00  =   0.082013

C          x =  0.517790  y =  0.871274  z = -1.641342 angstrom
           Maximum rank =  0   Radius =  0.650 angstrom
                   Q00  =  -0.236713

C          x =  0.407790  y = -0.459726  z = -2.379342 angstrom
           Maximum rank =  0   Radius =  0.650 angstrom
                   Q00  =  -0.234414

H          x =  1.079790  y =  0.740274  z = -0.717342 angstrom
           Maximum rank =  0   Radius =  0.325 angstrom
                   Q00  =   0.078175

H          x =  1.009790  y =  1.601274  z = -2.271342 angstrom
           Maximum rank =  0   Radius =  0.325 angstrom
                   Q00  =   0.078995

H          x = -0.478210  y =  1.250274  z = -1.410342 angstrom
           Maximum rank =  0   Radius =  0.325 angstrom
                   Q00  =   0.078521

H          x = -0.104210  y = -0.275726  z = -3.323342 angstrom
           Maximum rank =  0   Radius =  0.325 angstrom
                   Q00  =   0.078245

H          x = -0.172510  y = -1.166586  z = -1.768118 angstrom
           Maximum rank =  0   Radius =  0.325 angstrom
                   Q00  =   0.077708

H          x =  1.409150  y = -0.863726  z = -2.589247 angstrom
           Maximum rank =  0   Radius =  0.325 angstrom
                   Q00  =   0.079002

Total multipoles referred to origin at
           x =   0.000000,  y =    0.000000,  z =    0.000000 angstrom
                   Q00  =  -0.000000

Finished at 10:36:32 on 27 Apr 2020

  DMA results are available in the Python driver through the
	  variable('DMA DISTRIBUTED MULTIPOLES')
  and
	  variable('DMA TOTAL MULTIPOLES')
  commands.

    Psi4 stopped on: Monday, 27 April 2020 10:36AM
    Psi4 wall time for execution: 0:00:52.22

*** Psi4 exiting successfully. Buy a developer a beer!
