                               Psi4 1.3.2 release

  ==> Input File <==

--------------------------------------------------------------------------
import numpy as np
set {scf_type pk
basis cc-pvdz
d_convergence 10
gdma_switch   0
gdma_limit    0
gdma_origin   [ 0.0,  0.0,  0.0 ]
}
molecule test {
    units Angstrom
    0 1
    --
    0 1
    C               -2.222142860853711    -0.419775997248260    -1.944578443363991
    C               -1.004142860853711    -1.112775997248260    -2.538578443363990
    C               -2.895142860853711    -1.278775997248260    -0.876578443363990
    H               -1.906142860853711     0.522224002751740    -1.494578443363990
    H               -2.936142860853711    -0.198775997248260    -2.741578443363990
    H               -0.336142860853711    -1.396775997248260    -1.720578443363990
    H               -3.134142860853712    -2.259775997248259    -1.288578443363990
    H               -2.207142860853712    -1.420775997248260    -0.041578443363990
    H               -0.471357260853711    -0.430025997248260    -3.216806443363990
    H               -1.297444860853711    -2.017905997248259    -3.090591443363990
    H               -3.837037860853711    -0.849785997248259    -0.504016443363990
    C                3.014857139146289    -1.407775997248260    -0.032578443363990
    C                0.454857139146289     1.408224002751740    -0.163578443363990
    C               -0.195142860853711     1.234224002751740     1.059421556636009
    C                1.500857139146289     0.548224002751740    -0.499578443363990
    C                1.895857139146289    -0.476775997248260     0.361421556636010
    C                0.191857139146289     0.210224002751740     1.924421556636009
    C                1.224857139146289    -0.644775997248260     1.567421556636010
    O               -1.206142860853711     2.054224002751741     1.443421556636010
    H                0.161857139146289     2.204224002751741    -0.828578443363990
    H                2.011857139146289     0.682224002751740    -1.441578443363990
    H               -0.304142860853711     0.085224002751740     2.876421556636009
    H               -1.485142860853711     1.854224002751740     2.340421556636010
    H                3.677857139146289    -1.559775997248260     0.818421556636010
    H                3.604857139146289    -0.913775997248259    -0.805578443363990
    H                1.527857139146289    -1.428775997248260     2.246421556636010
    H                2.657288139146289    -2.377605997248260    -0.408853443363990

}
e, wfn = energy('scf', return_wfn=True)
gdma(wfn)
dmavals = variable('DMA DISTRIBUTED MULTIPOLES')
charges = np.array(dmavals)
print(charges)
np.save('SSI-028LYS-067TYR-1-dimer.npy', np.array(charges))--------------------------------------------------------------------------

*** tstart() called on ds3
*** at Sun Apr 26 23:28:43 2020

   => Loading Basis Set <=

    Name: CC-PVDZ
    Role: ORBITAL
    Keyword: BASIS
    atoms 1-3, 12-18  entry C          line   138 file /theoryfs2/ds/metcalf/miniconda2/envs/tf2gpu/share/psi4/basis/cc-pvdz.gbs
    atoms 4-11, 20-27 entry H          line    22 file /theoryfs2/ds/metcalf/miniconda2/envs/tf2gpu/share/psi4/basis/cc-pvdz.gbs
    atoms 19          entry O          line   198 file /theoryfs2/ds/metcalf/miniconda2/envs/tf2gpu/share/psi4/basis/cc-pvdz.gbs

         ---------------------------------------------------------
                                   SCF
               by Justin Turney, Rob Parrish, Andy Simmonett
                          and Daniel G. A. Smith
                              RHF Reference
                        1 Threads,    500 MiB Core
         ---------------------------------------------------------

  ==> Geometry <==

    Molecular point group: c1
    Full point group: C1

    Geometry (in Angstrom), charge = 0, multiplicity = 1:

       Center              X                  Y                   Z               Mass
    ------------   -----------------  -----------------  -----------------  -----------------
         C           -2.222142860854    -0.419775997248    -1.944578443364    12.000000000000
         C           -1.004142860854    -1.112775997248    -2.538578443364    12.000000000000
         C           -2.895142860854    -1.278775997248    -0.876578443364    12.000000000000
         H           -1.906142860854     0.522224002752    -1.494578443364     1.007825032230
         H           -2.936142860854    -0.198775997248    -2.741578443364     1.007825032230
         H           -0.336142860854    -1.396775997248    -1.720578443364     1.007825032230
         H           -3.134142860854    -2.259775997248    -1.288578443364     1.007825032230
         H           -2.207142860854    -1.420775997248    -0.041578443364     1.007825032230
         H           -0.471357260854    -0.430025997248    -3.216806443364     1.007825032230
         H           -1.297444860854    -2.017905997248    -3.090591443364     1.007825032230
         H           -3.837037860854    -0.849785997248    -0.504016443364     1.007825032230
         C            3.014857139146    -1.407775997248    -0.032578443364    12.000000000000
         C            0.454857139146     1.408224002752    -0.163578443364    12.000000000000
         C           -0.195142860854     1.234224002752     1.059421556636    12.000000000000
         C            1.500857139146     0.548224002752    -0.499578443364    12.000000000000
         C            1.895857139146    -0.476775997248     0.361421556636    12.000000000000
         C            0.191857139146     0.210224002752     1.924421556636    12.000000000000
         C            1.224857139146    -0.644775997248     1.567421556636    12.000000000000
         O           -1.206142860854     2.054224002752     1.443421556636    15.994914619570
         H            0.161857139146     2.204224002752    -0.828578443364     1.007825032230
         H            2.011857139146     0.682224002752    -1.441578443364     1.007825032230
         H           -0.304142860854     0.085224002752     2.876421556636     1.007825032230
         H           -1.485142860854     1.854224002752     2.340421556636     1.007825032230
         H            3.677857139146    -1.559775997248     0.818421556636     1.007825032230
         H            3.604857139146    -0.913775997248    -0.805578443364     1.007825032230
         H            1.527857139146    -1.428775997248     2.246421556636     1.007825032230
         H            2.657288139146    -2.377605997248    -0.408853443364     1.007825032230

  Running in c1 symmetry.

  Rotational constants: A =      0.03654  B =      0.02534  C =      0.01870 [cm^-1]
  Rotational constants: A =   1095.31592  B =    759.53807  C =    560.50212 [MHz]
  Nuclear repulsion =  600.761776495058825

  Charge       = 0
  Multiplicity = 1
  Electrons    = 84
  Nalpha       = 42
  Nbeta        = 42

  ==> Algorithm <==

  SCF Algorithm Type is PK.
  DIIS enabled.
  MOM disabled.
  Fractional occupation disabled.
  Guess Type is SAD.
  Energy threshold   = 1.00e-06
  Density threshold  = 1.00e-10
  Integral threshold = 0.00e+00

  ==> Primary Basis <==

  Basis Set: CC-PVDZ
    Blend: CC-PVDZ
    Number of shells: 114
    Number of basis function: 234
    Number of Cartesian functions: 245
    Spherical Harmonics?: true
    Max angular momentum: 2

  ==> Pre-Iterations <==

   -------------------------------------------------------
    Irrep   Nso     Nmo     Nalpha   Nbeta   Ndocc  Nsocc
   -------------------------------------------------------
     A        234     234       0       0       0       0
   -------------------------------------------------------
    Total     234     234      42      42      42       0
   -------------------------------------------------------

  ==> Integral Setup <==

  Using integral reordering PK algorithm.
  Sizing the integral batches needed.
  Building batch lookup table.
   Calculation information:
      Number of atoms:                  27
      Number of AO shells:             114
      Number of primitives:            322
      Number of atomic orbitals:       245
      Number of basis functions:       234

      Integral cutoff                 1.00e-12
      Number of threads:                 1

	Batch   1 pq = [       0,    9405] index = [             0,44231715] size =     44231715
	Batch   2 pq = [    9405,   13301] index = [      44231715,88464951] size =     44233236
	Batch   3 pq = [   13301,   16290] index = [      88464951,132690195] size =     44225244
	Batch   4 pq = [   16290,   18810] index = [     132690195,176917455] size =     44227260
	Batch   5 pq = [   18810,   21030] index = [     176917455,221140965] size =     44223510
	Batch   6 pq = [   21030,   23037] index = [     221140965,265363203] size =     44222238
	Batch   7 pq = [   23037,   24883] index = [     265363203,309594286] size =     44231083
	Batch   8 pq = [   24883,   26601] index = [     309594286,353819901] size =     44225615
	Batch   9 pq = [   26601,   27495] index = [     353819901,378001260] size =     24181359
  Task number: 35
  Buffer size: 11059200
  Buffer per thread: 2
  We computed 22641605 shell quartets total.
  Whereas there are 21487290 unique shell quartets.
     5.37 percent of shell quartets recomputed by reordering.

  ==> DiskJK: Disk-Based J/K Matrices <==

    J tasked:                  Yes
    K tasked:                  Yes
    wK tasked:                  No
    Memory [MiB]:              375
    Schwarz Cutoff:          1E-12

    OpenMP threads:              1

  Minimum eigenvalue in the overlap matrix is 3.2182084675E-04.
  Using Symmetric Orthogonalization.

  SCF Guess: Superposition of Atomic Densities via on-the-fly atomic UHF.

  ==> Iterations <==

                        Total Energy        Delta E     RMS |[F,P]|

   @RHF iter SAD:  -461.73379508503137   -4.61734e+02   0.00000e+00
   @RHF iter   1:  -462.60426363280038   -8.70469e-01   2.83680e-03 DIIS
   @RHF iter   2:  -462.84783537703930   -2.43572e-01   1.22538e-03 DIIS
   @RHF iter   3:  -462.88927430410905   -4.14389e-02   2.70949e-04 DIIS
   @RHF iter   4:  -462.89258932751346   -3.31502e-03   1.03710e-04 DIIS
   @RHF iter   5:  -462.89293498875543   -3.45661e-04   2.11820e-05 DIIS
   @RHF iter   6:  -462.89295536049025   -2.03717e-05   6.61233e-06 DIIS
   @RHF iter   7:  -462.89295751908128   -2.15859e-06   1.89403e-06 DIIS
   @RHF iter   8:  -462.89295777792262   -2.58841e-07   7.33344e-07 DIIS
   @RHF iter   9:  -462.89295782230857   -4.43860e-08   3.28991e-07 DIIS
   @RHF iter  10:  -462.89295783160730   -9.29873e-09   1.42647e-07 DIIS
   @RHF iter  11:  -462.89295783476075   -3.15345e-09   6.08239e-08 DIIS
   @RHF iter  12:  -462.89295783534067   -5.79917e-10   2.72051e-08 DIIS
   @RHF iter  13:  -462.89295783541706   -7.63976e-11   8.39195e-09 DIIS
   @RHF iter  14:  -462.89295783542093   -3.86535e-12   2.07843e-09 DIIS
   @RHF iter  15:  -462.89295783542281   -1.87583e-12   6.70144e-10 DIIS
   @RHF iter  16:  -462.89295783542173    1.08002e-12   2.09156e-10 DIIS
   @RHF iter  17:  -462.89295783542281   -1.08002e-12   8.03299e-11 DIIS
  Energy and wave function converged.

  ==> Post-Iterations <==

    Orbital Energies [Eh]
    ---------------------

    Doubly Occupied:

       1A    -20.584550     2A    -11.301785     3A    -11.239784
       4A    -11.239528     5A    -11.234244     6A    -11.233176
       7A    -11.232495     8A    -11.228225     9A    -11.209099
      10A    -11.207547    11A    -11.207026    12A     -1.405048
      13A     -1.152333    14A     -1.045361    15A     -1.037561
      16A     -1.020547    17A     -0.926140    18A     -0.913627
      19A     -0.846504    20A     -0.804498    21A     -0.787121
      22A     -0.734073    23A     -0.671436    24A     -0.643329
      25A     -0.619210    26A     -0.608832    27A     -0.590814
      28A     -0.588297    29A     -0.585804    30A     -0.573902
      31A     -0.566963    32A     -0.536261    33A     -0.526319
      34A     -0.521374    35A     -0.498122    36A     -0.486738
      37A     -0.470459    38A     -0.463474    39A     -0.459498
      40A     -0.457502    41A     -0.340586    42A     -0.301928

    Virtual:

      43A      0.127569    44A      0.153903    45A      0.173091
      46A      0.180200    47A      0.198788    48A      0.206916
      49A      0.220689    50A      0.240815    51A      0.242472
      52A      0.247078    53A      0.264209    54A      0.267627
      55A      0.277579    56A      0.280718    57A      0.298445
      58A      0.304290    59A      0.325126    60A      0.334703
      61A      0.372596    62A      0.373631    63A      0.382572
      64A      0.432987    65A      0.438429    66A      0.453524
      67A      0.483386    68A      0.496422    69A      0.508822
      70A      0.582053    71A      0.591035    72A      0.598273
      73A      0.610926    74A      0.626268    75A      0.634993
      76A      0.641463    77A      0.656930    78A      0.667996
      79A      0.685679    80A      0.709037    81A      0.732802
      82A      0.734740    83A      0.740414    84A      0.759651
      85A      0.765548    86A      0.770159    87A      0.794882
      88A      0.804427    89A      0.808390    90A      0.838522
      91A      0.843867    92A      0.849407    93A      0.862753
      94A      0.870476    95A      0.873556    96A      0.887727
      97A      0.888397    98A      0.895660    99A      0.899343
     100A      0.911923   101A      0.920629   102A      0.923468
     103A      0.933219   104A      0.939548   105A      0.942209
     106A      0.945312   107A      0.961498   108A      0.975927
     109A      0.991346   110A      1.004621   111A      1.015900
     112A      1.031770   113A      1.056191   114A      1.062884
     115A      1.120402   116A      1.132719   117A      1.139103
     118A      1.145050   119A      1.176046   120A      1.178697
     121A      1.208090   122A      1.232777   123A      1.246818
     124A      1.262286   125A      1.281238   126A      1.290628
     127A      1.296106   128A      1.304494   129A      1.309196
     130A      1.347392   131A      1.362812   132A      1.384387
     133A      1.389554   134A      1.476842   135A      1.479940
     136A      1.493856   137A      1.518630   138A      1.522837
     139A      1.552646   140A      1.567939   141A      1.606617
     142A      1.614463   143A      1.641075   144A      1.678077
     145A      1.689234   146A      1.696631   147A      1.701848
     148A      1.716893   149A      1.747364   150A      1.750320
     151A      1.786739   152A      1.799806   153A      1.807071
     154A      1.858227   155A      1.865510   156A      1.886484
     157A      1.893735   158A      1.899818   159A      1.902492
     160A      1.913497   161A      1.924589   162A      1.926298
     163A      1.936436   164A      1.939221   165A      1.960834
     166A      1.963534   167A      1.969961   168A      1.975817
     169A      1.980148   170A      1.985753   171A      1.990187
     172A      2.002801   173A      2.019357   174A      2.031012
     175A      2.040607   176A      2.046732   177A      2.059264
     178A      2.065852   179A      2.071949   180A      2.082260
     181A      2.134279   182A      2.143283   183A      2.145497
     184A      2.163485   185A      2.183193   186A      2.201067
     187A      2.227593   188A      2.261275   189A      2.270971
     190A      2.295944   191A      2.311240   192A      2.312930
     193A      2.324215   194A      2.336984   195A      2.351420
     196A      2.385031   197A      2.413927   198A      2.459469
     199A      2.473291   200A      2.497279   201A      2.513893
     202A      2.534044   203A      2.539733   204A      2.563125
     205A      2.593114   206A      2.607406   207A      2.620606
     208A      2.642550   209A      2.651990   210A      2.753079
     211A      2.763887   212A      2.770094   213A      2.786328
     214A      2.795861   215A      2.803923   216A      2.813889
     217A      2.833953   218A      2.842597   219A      2.909857
     220A      2.932929   221A      2.966959   222A      2.992427
     223A      2.996357   224A      3.009544   225A      3.068322
     226A      3.092083   227A      3.113487   228A      3.260579
     229A      3.281985   230A      3.345261   231A      3.586891
     232A      3.679863   233A      3.977492   234A      4.188543

    Final Occupation by Irrep:
              A
    DOCC [    42 ]

  @RHF Final Energy:  -462.89295783542281

   => Energetics <=

    Nuclear Repulsion Energy =            600.7617764950588253
    One-Electron Energy =               -1819.1072285127934265
    Two-Electron Energy =                 755.4524941823119661
    Total Energy =                       -462.8929578354227488

Computation Completed

Properties will be evaluated at   0.000000,   0.000000,   0.000000 [a0]

Properties computed using the SCF density matrix

  Nuclear Dipole Moment: [e a0]
     X:    -4.0119      Y:    -8.9014      Z:    -8.7127

  Electronic Dipole Moment: [e a0]
     X:     4.2108      Y:     8.6213      Z:     9.2164

  Dipole Moment: [e a0]
     X:     0.1990      Y:    -0.2801      Z:     0.5037     Total:     0.6097

  Dipole Moment: [D]
     X:     0.5057      Y:    -0.7120      Z:     1.2803     Total:     1.5498

*** tstop() called on ds3 at Sun Apr 26 23:37:22 2020
Module time:
	user time   =     165.50 seconds =       2.76 minutes
	system time =      49.68 seconds =       0.83 minutes
	total time  =        519 seconds =       8.65 minutes
Total time:
	user time   =     165.50 seconds =       2.76 minutes
	system time =      49.68 seconds =       0.83 minutes
	total time  =        519 seconds =       8.65 minutes
                                     G D M A

                                 by Anthony Stone

                           version 2.2.06, 22 June 2011

               Distributed Multipoles from Gaussian wavefunctions

Starting at 23:37:22 on 26 Apr 2020

Using SCF density matrix from file ./SSI/SSI-028LYS-067TYR-1-dimer.test.32411.fchk

                         Distributed Multipole Analysis

Standard DMA

Positions and radii in angstrom
Multipole moments in atomic units, ea_0^k for rank k

C          x = -2.222143  y = -0.419776  z = -1.944578 angstrom
           Maximum rank =  0   Radius =  0.650 angstrom
                   Q00  =  -0.089118

C          x = -1.004143  y = -1.112776  z = -2.538578 angstrom
           Maximum rank =  0   Radius =  0.650 angstrom
                   Q00  =  -0.235701

C          x = -2.895143  y = -1.278776  z = -0.876578 angstrom
           Maximum rank =  0   Radius =  0.650 angstrom
                   Q00  =  -0.237735

H          x = -1.906143  y =  0.522224  z = -1.494578 angstrom
           Maximum rank =  0   Radius =  0.325 angstrom
                   Q00  =   0.055727

H          x = -2.936143  y = -0.198776  z = -2.741578 angstrom
           Maximum rank =  0   Radius =  0.325 angstrom
                   Q00  =   0.040499

H          x = -0.336143  y = -1.396776  z = -1.720578 angstrom
           Maximum rank =  0   Radius =  0.325 angstrom
                   Q00  =   0.083222

H          x = -3.134143  y = -2.259776  z = -1.288578 angstrom
           Maximum rank =  0   Radius =  0.325 angstrom
                   Q00  =   0.069003

H          x = -2.207143  y = -1.420776  z = -0.041578 angstrom
           Maximum rank =  0   Radius =  0.325 angstrom
                   Q00  =   0.081101

H          x = -0.471357  y = -0.430026  z = -3.216806 angstrom
           Maximum rank =  0   Radius =  0.325 angstrom
                   Q00  =   0.076503

H          x = -1.297445  y = -2.017906  z = -3.090591 angstrom
           Maximum rank =  0   Radius =  0.325 angstrom
                   Q00  =   0.071190

H          x = -3.837038  y = -0.849786  z = -0.504016 angstrom
           Maximum rank =  0   Radius =  0.325 angstrom
                   Q00  =   0.080879

C          x =  3.014857  y = -1.407776  z = -0.032578 angstrom
           Maximum rank =  0   Radius =  0.650 angstrom
                   Q00  =  -0.189532

C          x =  0.454857  y =  1.408224  z = -0.163578 angstrom
           Maximum rank =  0   Radius =  0.650 angstrom
                   Q00  =  -0.123057

C          x = -0.195143  y =  1.234224  z =  1.059422 angstrom
           Maximum rank =  0   Radius =  0.650 angstrom
                   Q00  =   0.285332

C          x =  1.500857  y =  0.548224  z = -0.499578 angstrom
           Maximum rank =  0   Radius =  0.650 angstrom
                   Q00  =   0.032803

C          x =  1.895857  y = -0.476776  z =  0.361422 angstrom
           Maximum rank =  0   Radius =  0.650 angstrom
                   Q00  =  -0.142493

C          x =  0.191857  y =  0.210224  z =  1.924422 angstrom
           Maximum rank =  0   Radius =  0.650 angstrom
                   Q00  =  -0.186470

C          x =  1.224857  y = -0.644776  z =  1.567422 angstrom
           Maximum rank =  0   Radius =  0.650 angstrom
                   Q00  =  -0.019916

O          x = -1.206143  y =  2.054224  z =  1.443422 angstrom
           Maximum rank =  0   Radius =  0.650 angstrom
                   Q00  =  -0.636715

H          x =  0.161857  y =  2.204224  z = -0.828578 angstrom
           Maximum rank =  0   Radius =  0.325 angstrom
                   Q00  =   0.083438

H          x =  2.011857  y =  0.682224  z = -1.441578 angstrom
           Maximum rank =  0   Radius =  0.325 angstrom
                   Q00  =   0.065646

H          x = -0.304143  y =  0.085224  z =  2.876422 angstrom
           Maximum rank =  0   Radius =  0.325 angstrom
                   Q00  =   0.070033

H          x = -1.485143  y =  1.854224  z =  2.340422 angstrom
           Maximum rank =  0   Radius =  0.325 angstrom
                   Q00  =   0.406658

H          x =  3.677857  y = -1.559776  z =  0.818422 angstrom
           Maximum rank =  0   Radius =  0.325 angstrom
                   Q00  =   0.096077

H          x =  3.604857  y = -0.913776  z = -0.805578 angstrom
           Maximum rank =  0   Radius =  0.325 angstrom
                   Q00  =   0.094627

H          x =  1.527857  y = -1.428776  z =  2.246422 angstrom
           Maximum rank =  0   Radius =  0.325 angstrom
                   Q00  =   0.068241

H          x =  2.657288  y = -2.377606  z = -0.408853 angstrom
           Maximum rank =  0   Radius =  0.325 angstrom
                   Q00  =   0.099758

Total multipoles referred to origin at
           x =   0.000000,  y =    0.000000,  z =    0.000000 angstrom
                   Q00  =  -0.000000

Finished at 23:37:22 on 26 Apr 2020

  DMA results are available in the Python driver through the
	  variable('DMA DISTRIBUTED MULTIPOLES')
  and
	  variable('DMA TOTAL MULTIPOLES')
  commands.

    Psi4 stopped on: Sunday, 26 April 2020 11:37PM
    Psi4 wall time for execution: 0:08:38.71

*** Psi4 exiting successfully. Buy a developer a beer!
