                               Psi4 1.3.2 release

  ==> Input File <==

--------------------------------------------------------------------------
import numpy as np
set {scf_type pk
basis cc-pvdz
d_convergence 10
gdma_switch   0
gdma_limit    0
gdma_origin   [ 0.0,  0.0,  0.0 ]
}
molecule test {
    units Angstrom
    0 1
    --
    0 1
    C                2.921587379921467     0.060214397636539    -3.501558165798119
    C                2.652587379921467    -1.450785602363461    -3.438558165798119
    H                3.742587379921467     0.269214397636539    -4.189558165798119
    H                2.035587379921466     0.597214397636539    -3.837558165798119
    H                3.184587379921467     0.427214397636539    -2.514558165798119
    H                1.787587379921467    -1.602785602363461    -2.790558165798119
    H                3.508167379921467    -1.964705602363461    -2.976098165798119
    H                2.382187379921467    -1.859605602363461    -4.423318165798118
    C                0.436587379921467     1.366214397636539    -1.068558165798119
    C               -0.578412620078533     1.822214397636539    -2.122558165798119
    C               -0.175412620078533     0.639214397636539     0.102441834201881
    C                0.067587379921467    -0.726785602363461     0.302441834201881
    C               -0.931412620078533     1.320214397636539     1.046441834201881
    C               -0.438412620078533    -1.394785602363461     1.433441834201881
    C               -1.440412620078533     0.654214397636539     2.149441834201881
    C               -1.214412620078533    -0.702785602363461     2.338441834201881
    O               -1.742412620078533    -1.328785602363461     3.428441834201881
    H                1.154587379921467     0.706214397636539    -1.544558165798119
    H                0.979587379921467     2.226214397636539    -0.681558165798119
    H               -1.072412620078533     0.941214397636539    -2.534558165798119
    H                0.675587379921467    -1.271785602363461    -0.406558165798119
    H               -1.076412620078533     2.387214397636539     0.978441834201881
    H               -0.229412620078533    -2.444785602363461     1.580441834201881
    H               -2.016412620078534     1.196214397636539     2.886441834201881
    H               -1.468412620078533    -2.248785602363461     3.489441834201881
    H               -0.064092620078533     2.365234397636539    -2.929158165798119
    H               -1.347332620078533     2.467444397636539    -1.672628165798119

}
e, wfn = energy('scf', return_wfn=True)
gdma(wfn)
dmavals = variable('DMA DISTRIBUTED MULTIPOLES')
charges = np.array(dmavals)
print(charges)
np.save('SSI-008ILE-015TYR-1-dimer.npy', np.array(charges))--------------------------------------------------------------------------

*** tstart() called on ds3
*** at Mon Apr 27 23:31:29 2020

   => Loading Basis Set <=

    Name: CC-PVDZ
    Role: ORBITAL
    Keyword: BASIS
    atoms 1-2, 9-16  entry C          line   138 file /theoryfs2/ds/metcalf/miniconda2/envs/tf2gpu/share/psi4/basis/cc-pvdz.gbs
    atoms 3-8, 18-27 entry H          line    22 file /theoryfs2/ds/metcalf/miniconda2/envs/tf2gpu/share/psi4/basis/cc-pvdz.gbs
    atoms 17         entry O          line   198 file /theoryfs2/ds/metcalf/miniconda2/envs/tf2gpu/share/psi4/basis/cc-pvdz.gbs

         ---------------------------------------------------------
                                   SCF
               by Justin Turney, Rob Parrish, Andy Simmonett
                          and Daniel G. A. Smith
                              RHF Reference
                        1 Threads,    500 MiB Core
         ---------------------------------------------------------

  ==> Geometry <==

    Molecular point group: c1
    Full point group: C1

    Geometry (in Angstrom), charge = 0, multiplicity = 1:

       Center              X                  Y                   Z               Mass
    ------------   -----------------  -----------------  -----------------  -----------------
         C            2.921587379921     0.060214397637    -3.501558165798    12.000000000000
         C            2.652587379921    -1.450785602363    -3.438558165798    12.000000000000
         H            3.742587379921     0.269214397637    -4.189558165798     1.007825032230
         H            2.035587379921     0.597214397637    -3.837558165798     1.007825032230
         H            3.184587379921     0.427214397637    -2.514558165798     1.007825032230
         H            1.787587379921    -1.602785602363    -2.790558165798     1.007825032230
         H            3.508167379921    -1.964705602363    -2.976098165798     1.007825032230
         H            2.382187379921    -1.859605602363    -4.423318165798     1.007825032230
         C            0.436587379921     1.366214397637    -1.068558165798    12.000000000000
         C           -0.578412620079     1.822214397637    -2.122558165798    12.000000000000
         C           -0.175412620079     0.639214397637     0.102441834202    12.000000000000
         C            0.067587379921    -0.726785602363     0.302441834202    12.000000000000
         C           -0.931412620079     1.320214397637     1.046441834202    12.000000000000
         C           -0.438412620079    -1.394785602363     1.433441834202    12.000000000000
         C           -1.440412620079     0.654214397637     2.149441834202    12.000000000000
         C           -1.214412620079    -0.702785602363     2.338441834202    12.000000000000
         O           -1.742412620079    -1.328785602363     3.428441834202    15.994914619570
         H            1.154587379921     0.706214397637    -1.544558165798     1.007825032230
         H            0.979587379921     2.226214397637    -0.681558165798     1.007825032230
         H           -1.072412620079     0.941214397637    -2.534558165798     1.007825032230
         H            0.675587379921    -1.271785602363    -0.406558165798     1.007825032230
         H           -1.076412620079     2.387214397637     0.978441834202     1.007825032230
         H           -0.229412620079    -2.444785602363     1.580441834202     1.007825032230
         H           -2.016412620079     1.196214397637     2.886441834202     1.007825032230
         H           -1.468412620079    -2.248785602363     3.489441834202     1.007825032230
         H           -0.064092620079     2.365234397637    -2.929158165798     1.007825032230
         H           -1.347332620079     2.467444397637    -1.672628165798     1.007825032230

  Running in c1 symmetry.

  Rotational constants: A =      0.05838  B =      0.01459  C =      0.01213 [cm^-1]
  Rotational constants: A =   1750.04905  B =    437.41743  C =    363.61916 [MHz]
  Nuclear repulsion =  575.252878961305782

  Charge       = 0
  Multiplicity = 1
  Electrons    = 84
  Nalpha       = 42
  Nbeta        = 42

  ==> Algorithm <==

  SCF Algorithm Type is PK.
  DIIS enabled.
  MOM disabled.
  Fractional occupation disabled.
  Guess Type is SAD.
  Energy threshold   = 1.00e-06
  Density threshold  = 1.00e-10
  Integral threshold = 0.00e+00

  ==> Primary Basis <==

  Basis Set: CC-PVDZ
    Blend: CC-PVDZ
    Number of shells: 114
    Number of basis function: 234
    Number of Cartesian functions: 245
    Spherical Harmonics?: true
    Max angular momentum: 2

  ==> Pre-Iterations <==

   -------------------------------------------------------
    Irrep   Nso     Nmo     Nalpha   Nbeta   Ndocc  Nsocc
   -------------------------------------------------------
     A        234     234       0       0       0       0
   -------------------------------------------------------
    Total     234     234      42      42      42       0
   -------------------------------------------------------

  ==> Integral Setup <==

  Using integral reordering PK algorithm.
  Sizing the integral batches needed.
  Building batch lookup table.
   Calculation information:
      Number of atoms:                  27
      Number of AO shells:             114
      Number of primitives:            322
      Number of atomic orbitals:       245
      Number of basis functions:       234

      Integral cutoff                 1.00e-12
      Number of threads:                 1

	Batch   1 pq = [       0,    9405] index = [             0,44231715] size =     44231715
	Batch   2 pq = [    9405,   13301] index = [      44231715,88464951] size =     44233236
	Batch   3 pq = [   13301,   16290] index = [      88464951,132690195] size =     44225244
	Batch   4 pq = [   16290,   18810] index = [     132690195,176917455] size =     44227260
	Batch   5 pq = [   18810,   21030] index = [     176917455,221140965] size =     44223510
	Batch   6 pq = [   21030,   23037] index = [     221140965,265363203] size =     44222238
	Batch   7 pq = [   23037,   24883] index = [     265363203,309594286] size =     44231083
	Batch   8 pq = [   24883,   26601] index = [     309594286,353819901] size =     44225615
	Batch   9 pq = [   26601,   27495] index = [     353819901,378001260] size =     24181359
  Task number: 35
  Buffer size: 11059200
  Buffer per thread: 2
  We computed 19083677 shell quartets total.
  Whereas there are 21487290 unique shell quartets.

  ==> DiskJK: Disk-Based J/K Matrices <==

    J tasked:                  Yes
    K tasked:                  Yes
    wK tasked:                  No
    Memory [MiB]:              375
    Schwarz Cutoff:          1E-12

    OpenMP threads:              1

  Minimum eigenvalue in the overlap matrix is 3.1241290782E-04.
  Using Symmetric Orthogonalization.

  SCF Guess: Superposition of Atomic Densities via on-the-fly atomic UHF.

  ==> Iterations <==

                        Total Energy        Delta E     RMS |[F,P]|

   @RHF iter SAD:  -461.70956176891815   -4.61710e+02   0.00000e+00
   @RHF iter   1:  -462.61043838273190   -9.00877e-01   2.79433e-03 DIIS
   @RHF iter   2:  -462.84920576408285   -2.38767e-01   1.17972e-03 DIIS
   @RHF iter   3:  -462.88784674028801   -3.86410e-02   2.71933e-04 DIIS
   @RHF iter   4:  -462.89110663434201   -3.25989e-03   1.14275e-04 DIIS
   @RHF iter   5:  -462.89152321068156   -4.16576e-04   1.93104e-05 DIIS
   @RHF iter   6:  -462.89154288643476   -1.96758e-05   5.30251e-06 DIIS
   @RHF iter   7:  -462.89154438878222   -1.50235e-06   1.97834e-06 DIIS
   @RHF iter   8:  -462.89154462752538   -2.38743e-07   7.19266e-07 DIIS
   @RHF iter   9:  -462.89154467393433   -4.64090e-08   2.66512e-07 DIIS
   @RHF iter  10:  -462.89154468221773   -8.28339e-09   1.13976e-07 DIIS
   @RHF iter  11:  -462.89154468465495   -2.43722e-09   5.35580e-08 DIIS
   @RHF iter  12:  -462.89154468511049   -4.55543e-10   2.23702e-08 DIIS
   @RHF iter  13:  -462.89154468519087   -8.03766e-11   7.27458e-09 DIIS
   @RHF iter  14:  -462.89154468519757   -6.70752e-12   1.62131e-09 DIIS
   @RHF iter  15:  -462.89154468519587    1.70530e-12   5.70191e-10 DIIS
   @RHF iter  16:  -462.89154468519848   -2.61480e-12   1.87333e-10 DIIS
   @RHF iter  17:  -462.89154468520047   -1.98952e-12   8.04277e-11 DIIS
  Energy and wave function converged.

  ==> Post-Iterations <==

    Orbital Energies [Eh]
    ---------------------

    Doubly Occupied:

       1A    -20.582002     2A    -11.296593     3A    -11.239995
       4A    -11.235520     5A    -11.232312     6A    -11.230197
       7A    -11.227942     8A    -11.225815     9A    -11.225008
      10A    -11.222378    11A    -11.220799    12A     -1.398774
      13A     -1.151910    14A     -1.058323    15A     -1.021327
      16A     -1.015871    17A     -0.976929    18A     -0.863252
      19A     -0.842718    20A     -0.840604    21A     -0.792401
      22A     -0.732023    23A     -0.667038    24A     -0.647531
      25A     -0.615765    26A     -0.604190    27A     -0.602440
      28A     -0.595219    29A     -0.584384    30A     -0.583187
      31A     -0.560231    32A     -0.551475    33A     -0.518081
      34A     -0.504499    35A     -0.498992    36A     -0.494101
      37A     -0.485899    38A     -0.475983    39A     -0.473740
      40A     -0.462863    41A     -0.336684    42A     -0.302317

    Virtual:

      43A      0.130465    44A      0.152631    45A      0.167179
      46A      0.180844    47A      0.197479    48A      0.204426
      49A      0.222065    50A      0.229915    51A      0.237561
      52A      0.254506    53A      0.258339    54A      0.260081
      55A      0.276348    56A      0.285936    57A      0.304998
      58A      0.307894    59A      0.324982    60A      0.357569
      61A      0.374406    62A      0.386354    63A      0.395591
      64A      0.416606    65A      0.429768    66A      0.471937
      67A      0.486746    68A      0.500576    69A      0.523058
      70A      0.590474    71A      0.599399    72A      0.603876
      73A      0.615025    74A      0.633511    75A      0.641486
      76A      0.651776    77A      0.666565    78A      0.679724
      79A      0.693179    80A      0.701979    81A      0.711406
      82A      0.721868    83A      0.734380    84A      0.738413
      85A      0.749481    86A      0.771126    87A      0.787843
      88A      0.800257    89A      0.816467    90A      0.820423
      91A      0.836196    92A      0.847004    93A      0.860971
      94A      0.868799    95A      0.876894    96A      0.884874
      97A      0.889320    98A      0.890866    99A      0.895774
     100A      0.901627   101A      0.906317   102A      0.915468
     103A      0.929130   104A      0.935628   105A      0.947688
     106A      0.950646   107A      0.962836   108A      0.980717
     109A      0.990056   110A      1.012705   111A      1.031272
     112A      1.034751   113A      1.077413   114A      1.111497
     115A      1.123133   116A      1.135000   117A      1.143931
     118A      1.148551   119A      1.168333   120A      1.191119
     121A      1.195431   122A      1.229210   123A      1.244464
     124A      1.260718   125A      1.268688   126A      1.283429
     127A      1.306541   128A      1.316255   129A      1.320595
     130A      1.354901   131A      1.357675   132A      1.409770
     133A      1.421252   134A      1.440398   135A      1.464798
     136A      1.479909   137A      1.494429   138A      1.511393
     139A      1.543777   140A      1.588515   141A      1.611607
     142A      1.621257   143A      1.630749   144A      1.680972
     145A      1.685990   146A      1.688938   147A      1.698972
     148A      1.730887   149A      1.747370   150A      1.770645
     151A      1.801841   152A      1.825934   153A      1.855879
     154A      1.862559   155A      1.877837   156A      1.880019
     157A      1.888420   158A      1.895151   159A      1.906181
     160A      1.912034   161A      1.917047   162A      1.920819
     163A      1.929776   164A      1.934483   165A      1.939442
     166A      1.945505   167A      1.949934   168A      1.955538
     169A      1.961542   170A      1.970125   171A      1.984658
     172A      1.997896   173A      2.013265   174A      2.022906
     175A      2.048190   176A      2.054033   177A      2.061293
     178A      2.073672   179A      2.077974   180A      2.113714
     181A      2.115317   182A      2.120806   183A      2.137460
     184A      2.153741   185A      2.181517   186A      2.202292
     187A      2.247842   188A      2.257946   189A      2.272641
     190A      2.291282   191A      2.306770   192A      2.314594
     193A      2.323600   194A      2.339991   195A      2.369762
     196A      2.443717   197A      2.445220   198A      2.457494
     199A      2.465074   200A      2.475009   201A      2.486279
     202A      2.532158   203A      2.536541   204A      2.544241
     205A      2.555332   206A      2.579650   207A      2.589556
     208A      2.638507   209A      2.652241   210A      2.753552
     211A      2.760819   212A      2.774413   213A      2.794084
     214A      2.803500   215A      2.820262   216A      2.841923
     217A      2.864252   218A      2.875054   219A      2.882893
     220A      2.927888   221A      2.955074   222A      2.969195
     223A      2.989802   224A      3.001651   225A      3.032145
     226A      3.099980   227A      3.181838   228A      3.250330
     229A      3.290949   230A      3.351806   231A      3.575611
     232A      3.674788   233A      3.978443   234A      4.196770

    Final Occupation by Irrep:
              A
    DOCC [    42 ]

  @RHF Final Energy:  -462.89154468520047

   => Energetics <=

    Nuclear Repulsion Energy =            575.2528789613057825
    One-Electron Energy =               -1767.8942164260611207
    Two-Electron Energy =                 729.7497927795549231
    Total Energy =                       -462.8915446852005289

Computation Completed

Properties will be evaluated at   0.000000,   0.000000,   0.000000 [a0]

Properties computed using the SCF density matrix

  Nuclear Dipole Moment: [e a0]
     X:    11.4062      Y:     2.0476      Z:   -20.2009

  Electronic Dipole Moment: [e a0]
     X:   -11.0371      Y:    -2.3931      Z:    19.9313

  Dipole Moment: [e a0]
     X:     0.3691      Y:    -0.3456      Z:    -0.2696     Total:     0.5730

  Dipole Moment: [D]
     X:     0.9382      Y:    -0.8783      Z:    -0.6853     Total:     1.4565

*** tstop() called on ds3 at Mon Apr 27 23:34:59 2020
Module time:
	user time   =     153.33 seconds =       2.56 minutes
	system time =      62.83 seconds =       1.05 minutes
	total time  =        210 seconds =       3.50 minutes
Total time:
	user time   =     153.33 seconds =       2.56 minutes
	system time =      62.83 seconds =       1.05 minutes
	total time  =        210 seconds =       3.50 minutes
                                     G D M A

                                 by Anthony Stone

                           version 2.2.06, 22 June 2011

               Distributed Multipoles from Gaussian wavefunctions

Starting at 23:34:59 on 27 Apr 2020

Using SCF density matrix from file ./SSI/SSI-008ILE-015TYR-1-dimer.test.3122.fchk

                         Distributed Multipole Analysis

Standard DMA

Positions and radii in angstrom
Multipole moments in atomic units, ea_0^k for rank k

C          x =  2.921587  y =  0.060214  z = -3.501558 angstrom
           Maximum rank =  0   Radius =  0.650 angstrom
                   Q00  =  -0.248932

C          x =  2.652587  y = -1.450786  z = -3.438558 angstrom
           Maximum rank =  0   Radius =  0.650 angstrom
                   Q00  =  -0.234603

H          x =  3.742587  y =  0.269214  z = -4.189558 angstrom
           Maximum rank =  0   Radius =  0.325 angstrom
                   Q00  =   0.081973

H          x =  2.035587  y =  0.597214  z = -3.837558 angstrom
           Maximum rank =  0   Radius =  0.325 angstrom
                   Q00  =   0.080202

H          x =  3.184587  y =  0.427214  z = -2.514558 angstrom
           Maximum rank =  0   Radius =  0.325 angstrom
                   Q00  =   0.081156

H          x =  1.787587  y = -1.602786  z = -2.790558 angstrom
           Maximum rank =  0   Radius =  0.325 angstrom
                   Q00  =   0.071501

H          x =  3.508167  y = -1.964706  z = -2.976098 angstrom
           Maximum rank =  0   Radius =  0.325 angstrom
                   Q00  =   0.082883

H          x =  2.382187  y = -1.859606  z = -4.423318 angstrom
           Maximum rank =  0   Radius =  0.325 angstrom
                   Q00  =   0.085260

C          x =  0.436587  y =  1.366214  z = -1.068558 angstrom
           Maximum rank =  0   Radius =  0.650 angstrom
                   Q00  =  -0.034484

C          x = -0.578413  y =  1.822214  z = -2.122558 angstrom
           Maximum rank =  0   Radius =  0.650 angstrom
                   Q00  =  -0.234605

C          x = -0.175413  y =  0.639214  z =  0.102442 angstrom
           Maximum rank =  0   Radius =  0.650 angstrom
                   Q00  =  -0.144729

C          x =  0.067587  y = -0.726786  z =  0.302442 angstrom
           Maximum rank =  0   Radius =  0.650 angstrom
                   Q00  =  -0.036781

C          x = -0.931413  y =  1.320214  z =  1.046442 angstrom
           Maximum rank =  0   Radius =  0.650 angstrom
                   Q00  =  -0.077892

C          x = -0.438413  y = -1.394786  z =  1.433442 angstrom
           Maximum rank =  0   Radius =  0.650 angstrom
                   Q00  =  -0.197585

C          x = -1.440413  y =  0.654214  z =  2.149442 angstrom
           Maximum rank =  0   Radius =  0.650 angstrom
                   Q00  =   0.027022

C          x = -1.214413  y = -0.702786  z =  2.338442 angstrom
           Maximum rank =  0   Radius =  0.650 angstrom
                   Q00  =   0.313491

O          x = -1.742413  y = -1.328786  z =  3.428442 angstrom
           Maximum rank =  0   Radius =  0.650 angstrom
                   Q00  =  -0.681664

H          x =  1.154587  y =  0.706214  z = -1.544558 angstrom
           Maximum rank =  0   Radius =  0.325 angstrom
                   Q00  =   0.066945

H          x =  0.979587  y =  2.226214  z = -0.681558 angstrom
           Maximum rank =  0   Radius =  0.325 angstrom
                   Q00  =   0.066612

H          x = -1.072413  y =  0.941214  z = -2.534558 angstrom
           Maximum rank =  0   Radius =  0.325 angstrom
                   Q00  =   0.081268

H          x =  0.675587  y = -1.271786  z = -0.406558 angstrom
           Maximum rank =  0   Radius =  0.325 angstrom
                   Q00  =   0.069927

H          x = -1.076413  y =  2.387214  z =  0.978442 angstrom
           Maximum rank =  0   Radius =  0.325 angstrom
                   Q00  =   0.062088

H          x = -0.229413  y = -2.444786  z =  1.580442 angstrom
           Maximum rank =  0   Radius =  0.325 angstrom
                   Q00  =   0.071354

H          x = -2.016413  y =  1.196214  z =  2.886442 angstrom
           Maximum rank =  0   Radius =  0.325 angstrom
                   Q00  =   0.078545

H          x = -1.468413  y = -2.248786  z =  3.489442 angstrom
           Maximum rank =  0   Radius =  0.325 angstrom
                   Q00  =   0.405482

H          x = -0.064093  y =  2.365234  z = -2.929158 angstrom
           Maximum rank =  0   Radius =  0.325 angstrom
                   Q00  =   0.082174

H          x = -1.347333  y =  2.467444  z = -1.672628 angstrom
           Maximum rank =  0   Radius =  0.325 angstrom
                   Q00  =   0.083391

Total multipoles referred to origin at
           x =   0.000000,  y =    0.000000,  z =    0.000000 angstrom
                   Q00  =  -0.000000

Finished at 23:34:59 on 27 Apr 2020

  DMA results are available in the Python driver through the
	  variable('DMA DISTRIBUTED MULTIPOLES')
  and
	  variable('DMA TOTAL MULTIPOLES')
  commands.

    Psi4 stopped on: Monday, 27 April 2020 11:34PM
    Psi4 wall time for execution: 0:03:30.15

*** Psi4 exiting successfully. Buy a developer a beer!
