                               Psi4 1.3.2 release

  ==> Input File <==

--------------------------------------------------------------------------
import numpy as np
set {scf_type pk
basis cc-pvdz
d_convergence 10
gdma_switch   0
gdma_limit    0
gdma_origin   [ 0.0,  0.0,  0.0 ]
}
molecule test {
    units Angstrom
    0 1
    --
    0 1
    C                2.926038152198959     1.644356447654755     0.252017950362101
    C                3.173038152198959     3.075356447654755     0.728017950362101
    H                3.751038152198958     0.979356447654755     0.497017950362101
    H                2.013038152198958     1.264356447654756     0.711017950362101
    H                2.798038152198958     1.608356447654755    -0.824982049637899
    H                3.013038152198959     3.092356447654756     1.804017950362101
    H                4.206052152198958     3.387196447654756     0.514387950362101
    H                2.454153152198959     3.762516447654756     0.257897950362101
    C               -2.144961847801042    -2.511643552345245     1.727017950362101
    C               -0.239961847801042     0.202356447654755    -1.015982049637899
    C               -0.865961847801042     0.692356447654755     0.121017950362101
    C               -0.225961847801042    -1.163643552345245    -1.267982049637899
    C               -1.477961847801042    -0.185643552345245     1.008017950362101
    C               -0.841961847801042    -2.037643552345245    -0.375982049637899
    C               -1.475961847801042    -1.558643552345245     0.767017950362101
    O                0.358038152198958     1.061356447654755    -1.884982049637899
    H               -0.871961847801042     1.750356447654755     0.310017950362101
    H                0.257038152198958     1.979356447654755    -1.623982049637899
    H                0.275038152198958    -1.537643552345245    -2.149982049637899
    H               -1.946961847801042     0.208356447654755     1.901017950362101
    H               -0.798961847801042    -3.102643552345244    -0.556982049637899
    H               -1.827961847801042    -2.269643552345245     2.742017950362101
    H               -1.785961847801042    -3.522643552345244     1.528017950362101
    H               -3.243421847801041    -2.502322552345245     1.669657950362101

}
e, wfn = energy('scf', return_wfn=True)
gdma(wfn)
dmavals = variable('DMA DISTRIBUTED MULTIPOLES')
charges = np.array(dmavals)
print(charges)
np.save('SSI-007VAL-191TYR-1-dimer.npy', np.array(charges))--------------------------------------------------------------------------

*** tstart() called on ds3
*** at Mon Apr 27 20:25:48 2020

   => Loading Basis Set <=

    Name: CC-PVDZ
    Role: ORBITAL
    Keyword: BASIS
    atoms 1-2, 9-15  entry C          line   138 file /theoryfs2/ds/metcalf/miniconda2/envs/tf2gpu/share/psi4/basis/cc-pvdz.gbs
    atoms 3-8, 17-24 entry H          line    22 file /theoryfs2/ds/metcalf/miniconda2/envs/tf2gpu/share/psi4/basis/cc-pvdz.gbs
    atoms 16         entry O          line   198 file /theoryfs2/ds/metcalf/miniconda2/envs/tf2gpu/share/psi4/basis/cc-pvdz.gbs

         ---------------------------------------------------------
                                   SCF
               by Justin Turney, Rob Parrish, Andy Simmonett
                          and Daniel G. A. Smith
                              RHF Reference
                        1 Threads,    500 MiB Core
         ---------------------------------------------------------

  ==> Geometry <==

    Molecular point group: c1
    Full point group: C1

    Geometry (in Angstrom), charge = 0, multiplicity = 1:

       Center              X                  Y                   Z               Mass
    ------------   -----------------  -----------------  -----------------  -----------------
         C            2.926038152199     1.644356447655     0.252017950362    12.000000000000
         C            3.173038152199     3.075356447655     0.728017950362    12.000000000000
         H            3.751038152199     0.979356447655     0.497017950362     1.007825032230
         H            2.013038152199     1.264356447655     0.711017950362     1.007825032230
         H            2.798038152199     1.608356447655    -0.824982049638     1.007825032230
         H            3.013038152199     3.092356447655     1.804017950362     1.007825032230
         H            4.206052152199     3.387196447655     0.514387950362     1.007825032230
         H            2.454153152199     3.762516447655     0.257897950362     1.007825032230
         C           -2.144961847801    -2.511643552345     1.727017950362    12.000000000000
         C           -0.239961847801     0.202356447655    -1.015982049638    12.000000000000
         C           -0.865961847801     0.692356447655     0.121017950362    12.000000000000
         C           -0.225961847801    -1.163643552345    -1.267982049638    12.000000000000
         C           -1.477961847801    -0.185643552345     1.008017950362    12.000000000000
         C           -0.841961847801    -2.037643552345    -0.375982049638    12.000000000000
         C           -1.475961847801    -1.558643552345     0.767017950362    12.000000000000
         O            0.358038152199     1.061356447655    -1.884982049638    15.994914619570
         H           -0.871961847801     1.750356447655     0.310017950362     1.007825032230
         H            0.257038152199     1.979356447655    -1.623982049638     1.007825032230
         H            0.275038152199    -1.537643552345    -2.149982049638     1.007825032230
         H           -1.946961847801     0.208356447655     1.901017950362     1.007825032230
         H           -0.798961847801    -3.102643552345    -0.556982049638     1.007825032230
         H           -1.827961847801    -2.269643552345     2.742017950362     1.007825032230
         H           -1.785961847801    -3.522643552345     1.528017950362     1.007825032230
         H           -3.243421847801    -2.502322552345     1.669657950362     1.007825032230

  Running in c1 symmetry.

  Rotational constants: A =      0.06803  B =      0.01945  C =      0.01743 [cm^-1]
  Rotational constants: A =   2039.53676  B =    582.94831  C =    522.66554 [MHz]
  Nuclear repulsion =  496.156087720854998

  Charge       = 0
  Multiplicity = 1
  Electrons    = 76
  Nalpha       = 38
  Nbeta        = 38

  ==> Algorithm <==

  SCF Algorithm Type is PK.
  DIIS enabled.
  MOM disabled.
  Fractional occupation disabled.
  Guess Type is SAD.
  Energy threshold   = 1.00e-06
  Density threshold  = 1.00e-10
  Integral threshold = 0.00e+00

  ==> Primary Basis <==

  Basis Set: CC-PVDZ
    Blend: CC-PVDZ
    Number of shells: 102
    Number of basis function: 210
    Number of Cartesian functions: 220
    Spherical Harmonics?: true
    Max angular momentum: 2

  ==> Pre-Iterations <==

   -------------------------------------------------------
    Irrep   Nso     Nmo     Nalpha   Nbeta   Ndocc  Nsocc
   -------------------------------------------------------
     A        210     210       0       0       0       0
   -------------------------------------------------------
    Total     210     210      38      38      38       0
   -------------------------------------------------------

  ==> Integral Setup <==

  Using integral reordering PK algorithm.
  Sizing the integral batches needed.
  Building batch lookup table.
   Calculation information:
      Number of atoms:                  24
      Number of AO shells:             102
      Number of primitives:            290
      Number of atomic orbitals:       220
      Number of basis functions:       210

      Integral cutoff                 1.00e-12
      Number of threads:                 1

	Batch   1 pq = [       0,    9405] index = [             0,44231715] size =     44231715
	Batch   2 pq = [    9405,   13301] index = [      44231715,88464951] size =     44233236
	Batch   3 pq = [   13301,   16290] index = [      88464951,132690195] size =     44225244
	Batch   4 pq = [   16290,   18810] index = [     132690195,176917455] size =     44227260
	Batch   5 pq = [   18810,   21030] index = [     176917455,221140965] size =     44223510
	Batch   6 pq = [   21030,   22155] index = [     221140965,245433090] size =     24292125
  Task number: 23
  Buffer size: 11059200
  Buffer per thread: 2
  We computed 11460284 shell quartets total.
  Whereas there are 13799631 unique shell quartets.

  ==> DiskJK: Disk-Based J/K Matrices <==

    J tasked:                  Yes
    K tasked:                  Yes
    wK tasked:                  No
    Memory [MiB]:              375
    Schwarz Cutoff:          1E-12

    OpenMP threads:              1

  Minimum eigenvalue in the overlap matrix is 3.1683811930E-04.
  Using Symmetric Orthogonalization.

  SCF Guess: Superposition of Atomic Densities via on-the-fly atomic UHF.

  ==> Iterations <==

                        Total Energy        Delta E     RMS |[F,P]|

   @RHF iter SAD:  -422.71706289516140   -4.22717e+02   0.00000e+00
   @RHF iter   1:  -423.60230528229374   -8.85242e-01   2.97691e-03 DIIS
   @RHF iter   2:  -423.81888970293244   -2.16584e-01   1.24679e-03 DIIS
   @RHF iter   3:  -423.85330363014583   -3.44139e-02   2.81524e-04 DIIS
   @RHF iter   4:  -423.85612592144338   -2.82229e-03   1.16096e-04 DIIS
   @RHF iter   5:  -423.85647212705760   -3.46206e-04   2.07118e-05 DIIS
   @RHF iter   6:  -423.85648945399089   -1.73269e-05   6.28881e-06 DIIS
   @RHF iter   7:  -423.85649102362703   -1.56964e-06   2.01748e-06 DIIS
   @RHF iter   8:  -423.85649123089797   -2.07271e-07   7.60005e-07 DIIS
   @RHF iter   9:  -423.85649126302985   -3.21319e-08   2.84986e-07 DIIS
   @RHF iter  10:  -423.85649126860363   -5.57378e-09   1.17658e-07 DIIS
   @RHF iter  11:  -423.85649127020577   -1.60213e-09   5.26428e-08 DIIS
   @RHF iter  12:  -423.85649127055677   -3.51008e-10   2.71826e-08 DIIS
   @RHF iter  13:  -423.85649127062743   -7.06564e-11   7.84537e-09 DIIS
   @RHF iter  14:  -423.85649127062942   -1.98952e-12   2.03098e-09 DIIS
   @RHF iter  15:  -423.85649127063044   -1.02318e-12   7.07170e-10 DIIS
   @RHF iter  16:  -423.85649127063397   -3.52429e-12   2.36573e-10 DIIS
   @RHF iter  17:  -423.85649127063181    2.16005e-12   1.07312e-10 DIIS
   @RHF iter  18:  -423.85649127063203   -2.27374e-13   5.43361e-11 DIIS
  Energy and wave function converged.

  ==> Post-Iterations <==

    Orbital Energies [Eh]
    ---------------------

    Doubly Occupied:

       1A    -20.583771     2A    -11.298205     3A    -11.239012
       4A    -11.237768     5A    -11.233070     6A    -11.232235
       7A    -11.229555     8A    -11.228151     9A    -11.218754
      10A    -11.208800    11A     -1.402047    12A     -1.152077
      13A     -1.037920    14A     -1.018832    15A     -1.015494
      16A     -0.926769    17A     -0.845906    18A     -0.834757
      19A     -0.803307    20A     -0.734352    21A     -0.668789
      22A     -0.641733    23A     -0.608180    24A     -0.599781
      25A     -0.595032    26A     -0.587428    27A     -0.584525
      28A     -0.571046    29A     -0.566425    30A     -0.525248
      31A     -0.499062    32A     -0.498114    33A     -0.484743
      34A     -0.483774    35A     -0.480899    36A     -0.466417
      37A     -0.339210    38A     -0.302195

    Virtual:

      39A      0.129612    40A      0.154401    41A      0.160211
      42A      0.187164    43A      0.212551    44A      0.215819
      45A      0.219618    46A      0.242212    47A      0.255586
      48A      0.258223    49A      0.264049    50A      0.273890
      51A      0.285310    52A      0.293258    53A      0.299574
      54A      0.316868    55A      0.370121    56A      0.374169
      57A      0.400483    58A      0.431071    59A      0.455223
      60A      0.484942    61A      0.495752    62A      0.508780
      63A      0.593418    64A      0.597391    65A      0.602042
      66A      0.616109    67A      0.633545    68A      0.652300
      69A      0.663091    70A      0.675340    71A      0.682574
      72A      0.692872    73A      0.708266    74A      0.726174
      75A      0.730307    76A      0.737193    77A      0.749992
      78A      0.771871    79A      0.776854    80A      0.790994
      81A      0.819235    82A      0.836485    83A      0.844278
      84A      0.860124    85A      0.874995    86A      0.882470
      87A      0.886317    88A      0.890432    89A      0.896214
      90A      0.902268    91A      0.904288    92A      0.916644
      93A      0.920220    94A      0.933389    95A      0.938192
      96A      0.943472    97A      0.953259    98A      0.961955
      99A      0.993768   100A      1.022903   101A      1.031672
     102A      1.068752   103A      1.118772   104A      1.124810
     105A      1.138654   106A      1.146179   107A      1.158445
     108A      1.173327   109A      1.208453   110A      1.234058
     111A      1.242947   112A      1.252472   113A      1.270976
     114A      1.302462   115A      1.307363   116A      1.324824
     117A      1.328726   118A      1.358677   119A      1.368792
     120A      1.385576   121A      1.475486   122A      1.485519
     123A      1.492395   124A      1.508888   125A      1.524829
     126A      1.548345   127A      1.592238   128A      1.619147
     129A      1.622249   130A      1.681023   131A      1.683728
     132A      1.695100   133A      1.711682   134A      1.733631
     135A      1.755012   136A      1.780836   137A      1.807442
     138A      1.812837   139A      1.865836   140A      1.871466
     141A      1.883867   142A      1.886850   143A      1.898754
     144A      1.905680   145A      1.916789   146A      1.922960
     147A      1.924482   148A      1.940679   149A      1.945945
     150A      1.948965   151A      1.953160   152A      1.965263
     153A      1.967094   154A      1.977304   155A      1.997233
     156A      2.005463   157A      2.035734   158A      2.046114
     159A      2.063967   160A      2.070708   161A      2.072137
     162A      2.123358   163A      2.124971   164A      2.145836
     165A      2.152240   166A      2.178320   167A      2.204128
     168A      2.222463   169A      2.257398   170A      2.273035
     171A      2.293252   172A      2.306385   173A      2.332557
     174A      2.344848   175A      2.388559   176A      2.410152
     177A      2.433761   178A      2.456431   179A      2.467494
     180A      2.476440   181A      2.507467   182A      2.526597
     183A      2.563653   184A      2.585945   185A      2.594573
     186A      2.606760   187A      2.656296   188A      2.747207
     189A      2.766765   190A      2.770581   191A      2.793458
     192A      2.802856   193A      2.808933   194A      2.845214
     195A      2.848254   196A      2.864905   197A      2.899355
     198A      2.950835   199A      2.968359   200A      2.980364
     201A      3.013510   202A      3.092456   203A      3.116130
     204A      3.252288   205A      3.287561   206A      3.352952
     207A      3.581799   208A      3.677810   209A      3.985480
     210A      4.202289

    Final Occupation by Irrep:
              A
    DOCC [    38 ]

  @RHF Final Energy:  -423.85649127063203

   => Energetics <=

    Nuclear Repulsion Energy =            496.1560877208549982
    One-Electron Energy =               -1558.0583967532775205
    Two-Electron Energy =                 638.0458177617906586
    Total Energy =                       -423.8564912706319774

Computation Completed

Properties will be evaluated at   0.000000,   0.000000,   0.000000 [a0]

Properties computed using the SCF density matrix

  Nuclear Dipole Moment: [e a0]
     X:     7.7754      Y:     4.7837      Z:     6.3462

  Electronic Dipole Moment: [e a0]
     X:    -8.0324      Y:    -4.5618      Z:    -5.9438

  Dipole Moment: [e a0]
     X:    -0.2570      Y:     0.2218      Z:     0.4024     Total:     0.5265

  Dipole Moment: [D]
     X:    -0.6532      Y:     0.5638      Z:     1.0228     Total:     1.3382

*** tstop() called on ds3 at Mon Apr 27 20:27:43 2020
Module time:
	user time   =      80.98 seconds =       1.35 minutes
	system time =      38.65 seconds =       0.64 minutes
	total time  =        115 seconds =       1.92 minutes
Total time:
	user time   =      80.98 seconds =       1.35 minutes
	system time =      38.65 seconds =       0.64 minutes
	total time  =        115 seconds =       1.92 minutes
                                     G D M A

                                 by Anthony Stone

                           version 2.2.06, 22 June 2011

               Distributed Multipoles from Gaussian wavefunctions

Starting at 20:27:43 on 27 Apr 2020

Using SCF density matrix from file ./SSI/SSI-007VAL-191TYR-1-dimer.test.15048.fchk

                         Distributed Multipole Analysis

Standard DMA

Positions and radii in angstrom
Multipole moments in atomic units, ea_0^k for rank k

C          x =  2.926038  y =  1.644356  z =  0.252018 angstrom
           Maximum rank =  0   Radius =  0.650 angstrom
                   Q00  =  -0.232168

C          x =  3.173038  y =  3.075356  z =  0.728018 angstrom
           Maximum rank =  0   Radius =  0.650 angstrom
                   Q00  =  -0.240771

H          x =  3.751038  y =  0.979356  z =  0.497018 angstrom
           Maximum rank =  0   Radius =  0.325 angstrom
                   Q00  =   0.081886

H          x =  2.013038  y =  1.264356  z =  0.711018 angstrom
           Maximum rank =  0   Radius =  0.325 angstrom
                   Q00  =   0.080407

H          x =  2.798038  y =  1.608356  z = -0.824982 angstrom
           Maximum rank =  0   Radius =  0.325 angstrom
                   Q00  =   0.079213

H          x =  3.013038  y =  3.092356  z =  1.804018 angstrom
           Maximum rank =  0   Radius =  0.325 angstrom
                   Q00  =   0.075726

H          x =  4.206052  y =  3.387196  z =  0.514388 angstrom
           Maximum rank =  0   Radius =  0.325 angstrom
                   Q00  =   0.081370

H          x =  2.454153  y =  3.762516  z =  0.257898 angstrom
           Maximum rank =  0   Radius =  0.325 angstrom
                   Q00  =   0.067499

C          x = -2.144962  y = -2.511644  z =  1.727018 angstrom
           Maximum rank =  0   Radius =  0.650 angstrom
                   Q00  =  -0.197733

C          x = -0.239962  y =  0.202356  z = -1.015982 angstrom
           Maximum rank =  0   Radius =  0.650 angstrom
                   Q00  =   0.303460

C          x = -0.865962  y =  0.692356  z =  0.121018 angstrom
           Maximum rank =  0   Radius =  0.650 angstrom
                   Q00  =  -0.178450

C          x = -0.225962  y = -1.163644  z = -1.267982 angstrom
           Maximum rank =  0   Radius =  0.650 angstrom
                   Q00  =  -0.112661

C          x = -1.477962  y = -0.185644  z =  1.008018 angstrom
           Maximum rank =  0   Radius =  0.650 angstrom
                   Q00  =   0.021422

C          x = -0.841962  y = -2.037644  z = -0.375982 angstrom
           Maximum rank =  0   Radius =  0.650 angstrom
                   Q00  =  -0.012957

C          x = -1.475962  y = -1.558644  z =  0.767018 angstrom
           Maximum rank =  0   Radius =  0.650 angstrom
                   Q00  =  -0.131539

O          x =  0.358038  y =  1.061356  z = -1.884982 angstrom
           Maximum rank =  0   Radius =  0.650 angstrom
                   Q00  =  -0.666185

H          x = -0.871962  y =  1.750356  z =  0.310018 angstrom
           Maximum rank =  0   Radius =  0.325 angstrom
                   Q00  =   0.070485

H          x =  0.257038  y =  1.979356  z = -1.623982 angstrom
           Maximum rank =  0   Radius =  0.325 angstrom
                   Q00  =   0.406583

H          x =  0.275038  y = -1.537644  z = -2.149982 angstrom
           Maximum rank =  0   Radius =  0.325 angstrom
                   Q00  =   0.081146

H          x = -1.946962  y =  0.208356  z =  1.901018 angstrom
           Maximum rank =  0   Radius =  0.325 angstrom
                   Q00  =   0.067097

H          x = -0.798962  y = -3.102644  z = -0.556982 angstrom
           Maximum rank =  0   Radius =  0.325 angstrom
                   Q00  =   0.064656

H          x = -1.827962  y = -2.269644  z =  2.742018 angstrom
           Maximum rank =  0   Radius =  0.325 angstrom
                   Q00  =   0.095634

H          x = -1.785962  y = -3.522644  z =  1.528018 angstrom
           Maximum rank =  0   Radius =  0.325 angstrom
                   Q00  =   0.094990

H          x = -3.243422  y = -2.502323  z =  1.669658 angstrom
           Maximum rank =  0   Radius =  0.325 angstrom
                   Q00  =   0.100889

Total multipoles referred to origin at
           x =   0.000000,  y =    0.000000,  z =    0.000000 angstrom
                   Q00  =  -0.000000

Finished at 20:27:43 on 27 Apr 2020

  DMA results are available in the Python driver through the
	  variable('DMA DISTRIBUTED MULTIPOLES')
  and
	  variable('DMA TOTAL MULTIPOLES')
  commands.

    Psi4 stopped on: Monday, 27 April 2020 08:27PM
    Psi4 wall time for execution: 0:01:55.71

*** Psi4 exiting successfully. Buy a developer a beer!
