                               Psi4 1.3.2 release

  ==> Input File <==

--------------------------------------------------------------------------
import numpy as np
set {scf_type pk
basis cc-pvdz
d_convergence 10
gdma_switch   0
gdma_limit    0
gdma_origin   [ 0.0,  0.0,  0.0 ]
}
molecule test {
    units Angstrom
    0 1
    --
    0 1
    C               -2.088730529525836    -1.026759453005996    -0.098062812532369
    C               -1.875730529525836     0.489240546994004     0.015937187467631
    H               -2.664730529525836    -1.292759453005996    -0.980062812532369
    H               -1.127730529525836    -1.533759453005995    -0.165062812532369
    H               -2.592730529525836    -1.413759453005996     0.786937187467631
    H               -1.393730529525836     0.838240546994004    -0.897062812532369
    H               -1.185730529525836     0.678240546994004     0.839937187467631
    H               -2.788170529525836     1.079340546994005     0.186928187467631
    C                1.433269470474164     0.447240546994005    -0.490062812532369
    C                2.525269470474164     0.092240546994004     0.569937187467631
    H                1.844269470474164     0.372240546994004    -1.498062812532369
    H                0.631269470474164    -0.274759453005996    -0.410062812532369
    H                1.042269470474164     1.452240546994005    -0.323062812532369
    H                2.179269470474164     0.440240546994004     1.543937187467631
    H                3.447719470474164     0.625510546994004     0.296593187467631
    H                2.678539470474164    -0.994379453005995     0.645849187467631

}
e, wfn = energy('scf', return_wfn=True)
gdma(wfn)
dmavals = variable('DMA DISTRIBUTED MULTIPOLES')
charges = np.array(dmavals)
print(charges)
np.save('SSI-052ILE-087VAL-1-dimer.npy', np.array(charges))--------------------------------------------------------------------------

*** tstart() called on ds3
*** at Tue Apr 28 14:20:21 2020

   => Loading Basis Set <=

    Name: CC-PVDZ
    Role: ORBITAL
    Keyword: BASIS
    atoms 1-2, 9-10  entry C          line   138 file /theoryfs2/ds/metcalf/miniconda2/envs/tf2gpu/share/psi4/basis/cc-pvdz.gbs
    atoms 3-8, 11-16 entry H          line    22 file /theoryfs2/ds/metcalf/miniconda2/envs/tf2gpu/share/psi4/basis/cc-pvdz.gbs

         ---------------------------------------------------------
                                   SCF
               by Justin Turney, Rob Parrish, Andy Simmonett
                          and Daniel G. A. Smith
                              RHF Reference
                        1 Threads,    500 MiB Core
         ---------------------------------------------------------

  ==> Geometry <==

    Molecular point group: c1
    Full point group: C1

    Geometry (in Angstrom), charge = 0, multiplicity = 1:

       Center              X                  Y                   Z               Mass
    ------------   -----------------  -----------------  -----------------  -----------------
         C           -2.088730529526    -1.026759453006    -0.098062812532    12.000000000000
         C           -1.875730529526     0.489240546994     0.015937187468    12.000000000000
         H           -2.664730529526    -1.292759453006    -0.980062812532     1.007825032230
         H           -1.127730529526    -1.533759453006    -0.165062812532     1.007825032230
         H           -2.592730529526    -1.413759453006     0.786937187468     1.007825032230
         H           -1.393730529526     0.838240546994    -0.897062812532     1.007825032230
         H           -1.185730529526     0.678240546994     0.839937187468     1.007825032230
         H           -2.788170529526     1.079340546994     0.186928187468     1.007825032230
         C            1.433269470474     0.447240546994    -0.490062812532    12.000000000000
         C            2.525269470474     0.092240546994     0.569937187468    12.000000000000
         H            1.844269470474     0.372240546994    -1.498062812532     1.007825032230
         H            0.631269470474    -0.274759453006    -0.410062812532     1.007825032230
         H            1.042269470474     1.452240546994    -0.323062812532     1.007825032230
         H            2.179269470474     0.440240546994     1.543937187468     1.007825032230
         H            3.447719470474     0.625510546994     0.296593187468     1.007825032230
         H            2.678539470474    -0.994379453006     0.645849187468     1.007825032230

  Running in c1 symmetry.

  Rotational constants: A =      0.41471  B =      0.06236  C =      0.05957 [cm^-1]
  Rotational constants: A =  12432.61896  B =   1869.46819  C =   1785.88635 [MHz]
  Nuclear repulsion =  126.633093487428894

  Charge       = 0
  Multiplicity = 1
  Electrons    = 36
  Nalpha       = 18
  Nbeta        = 18

  ==> Algorithm <==

  SCF Algorithm Type is PK.
  DIIS enabled.
  MOM disabled.
  Fractional occupation disabled.
  Guess Type is SAD.
  Energy threshold   = 1.00e-06
  Density threshold  = 1.00e-10
  Integral threshold = 0.00e+00

  ==> Primary Basis <==

  Basis Set: CC-PVDZ
    Blend: CC-PVDZ
    Number of shells: 60
    Number of basis function: 116
    Number of Cartesian functions: 120
    Spherical Harmonics?: true
    Max angular momentum: 2

  ==> Pre-Iterations <==

   -------------------------------------------------------
    Irrep   Nso     Nmo     Nalpha   Nbeta   Ndocc  Nsocc
   -------------------------------------------------------
     A        116     116       0       0       0       0
   -------------------------------------------------------
    Total     116     116      18      18      18       0
   -------------------------------------------------------

  ==> Integral Setup <==

  Using integral reordering PK algorithm.
  Sizing the integral batches needed.
  Building batch lookup table.
   Calculation information:
      Number of atoms:                  16
      Number of AO shells:              60
      Number of primitives:            148
      Number of atomic orbitals:       120
      Number of basis functions:       116

      Integral cutoff                 1.00e-12
      Number of threads:                 1

	Batch   1 pq = [       0,    6786] index = [             0,23028291] size =     23028291
  Task number: 3
  Buffer size: 11059200
  Buffer per thread: 2
  We computed 1587003 shell quartets total.
  Whereas there are 1675365 unique shell quartets.

  ==> DiskJK: Disk-Based J/K Matrices <==

    J tasked:                  Yes
    K tasked:                  Yes
    wK tasked:                  No
    Memory [MiB]:              375
    Schwarz Cutoff:          1E-12

    OpenMP threads:              1

  Minimum eigenvalue in the overlap matrix is 7.3967934276E-03.
  Using Symmetric Orthogonalization.

  SCF Guess: Superposition of Atomic Densities via on-the-fly atomic UHF.

  ==> Iterations <==

                        Total Energy        Delta E     RMS |[F,P]|

   @RHF iter SAD:  -157.34751797921692   -1.57348e+02   0.00000e+00
   @RHF iter   1:  -158.30568348421613   -9.58166e-01   4.14072e-03 DIIS
   @RHF iter   2:  -158.43680626852830   -1.31123e-01   1.73249e-03 DIIS
   @RHF iter   3:  -158.45877262414723   -2.19664e-02   3.48458e-04 DIIS
   @RHF iter   4:  -158.46058734019266   -1.81472e-03   3.93265e-05 DIIS
   @RHF iter   5:  -158.46061154149305   -2.42013e-05   7.33940e-06 DIIS
   @RHF iter   6:  -158.46061229085259   -7.49360e-07   1.66870e-06 DIIS
   @RHF iter   7:  -158.46061231856359   -2.77110e-08   3.80699e-07 DIIS
   @RHF iter   8:  -158.46061232030880   -1.74521e-09   6.35440e-08 DIIS
   @RHF iter   9:  -158.46061232038409   -7.52891e-11   1.56670e-08 DIIS
   @RHF iter  10:  -158.46061232038886   -4.77485e-12   4.05339e-09 DIIS
   @RHF iter  11:  -158.46061232038903   -1.70530e-13   1.12967e-09 DIIS
   @RHF iter  12:  -158.46061232038889    1.42109e-13   2.59200e-10 DIIS
   @RHF iter  13:  -158.46061232038866    2.27374e-13   4.32359e-11 DIIS
  Energy and wave function converged.

  ==> Post-Iterations <==

    Orbital Energies [Eh]
    ---------------------

    Doubly Occupied:

       1A    -11.221393     2A    -11.218207     3A    -11.217633
       4A    -11.216387     5A     -1.018622     6A     -1.008688
       7A     -0.843702     8A     -0.836410     9A     -0.608841
      10A     -0.597127    11A     -0.594051    12A     -0.584086
      13A     -0.505869    14A     -0.498181    15A     -0.489264
      16A     -0.486547    17A     -0.483249    18A     -0.477500

    Virtual:

      19A      0.173173    20A      0.203603    21A      0.219905
      22A      0.233201    23A      0.250491    24A      0.259654
      25A      0.263054    26A      0.280820    27A      0.289770
      28A      0.294488    29A      0.310422    30A      0.366145
      31A      0.388881    32A      0.418241    33A      0.583881
      34A      0.592732    35A      0.596856    36A      0.615783
      37A      0.624820    38A      0.657898    39A      0.658907
      40A      0.678472    41A      0.708427    42A      0.810924
      43A      0.849973    44A      0.861912    45A      0.882657
      46A      0.885188    47A      0.888698    48A      0.897906
      49A      0.904675    50A      0.908202    51A      0.923046
      52A      0.939864    53A      0.948643    54A      0.971894
      55A      0.977402    56A      1.023088    57A      1.114876
      58A      1.120496    59A      1.135775    60A      1.185206
      61A      1.237431    62A      1.278666    63A      1.461407
      64A      1.473979    65A      1.476387    66A      1.484804
      67A      1.548860    68A      1.632140    69A      1.678606
      70A      1.696811    71A      1.703455    72A      1.724175
      73A      1.858923    74A      1.870395    75A      1.877190
      76A      1.885894    77A      1.892580    78A      1.911207
      79A      1.921850    80A      1.929869    81A      1.943116
      82A      1.946071    83A      1.948830    84A      1.963497
      85A      1.970611    86A      1.981660    87A      1.998365
      88A      2.010177    89A      2.083274    90A      2.117250
      91A      2.128771    92A      2.203624    93A      2.285535
      94A      2.310354    95A      2.327275    96A      2.334965
      97A      2.438439    98A      2.444770    99A      2.457342
     100A      2.484684   101A      2.558014   102A      2.564120
     103A      2.580419   104A      2.614786   105A      2.760966
     106A      2.774789   107A      2.790524   108A      2.800938
     109A      2.831261   110A      2.838498   111A      2.870335
     112A      2.880997   113A      2.930928   114A      2.959618
     115A      2.964042   116A      3.007542

    Final Occupation by Irrep:
              A
    DOCC [    18 ]

  @RHF Final Energy:  -158.46061232038866

   => Energetics <=

    Nuclear Repulsion Energy =            126.6330934874288943
    One-Electron Energy =                -462.3758950127899539
    Two-Electron Energy =                 177.2821892049724113
    Total Energy =                       -158.4606123203886625

Computation Completed

Properties will be evaluated at   0.000000,   0.000000,   0.000000 [a0]

Properties computed using the SCF density matrix

  Nuclear Dipole Moment: [e a0]
     X:     0.0661      Y:    -0.0219      Z:     0.0251

  Electronic Dipole Moment: [e a0]
     X:    -0.0811      Y:     0.0203      Z:    -0.0279

  Dipole Moment: [e a0]
     X:    -0.0150      Y:    -0.0016      Z:    -0.0028     Total:     0.0153

  Dipole Moment: [D]
     X:    -0.0381      Y:    -0.0042      Z:    -0.0071     Total:     0.0390

*** tstop() called on ds3 at Tue Apr 28 14:20:33 2020
Module time:
	user time   =       8.79 seconds =       0.15 minutes
	system time =       3.12 seconds =       0.05 minutes
	total time  =         12 seconds =       0.20 minutes
Total time:
	user time   =       8.79 seconds =       0.15 minutes
	system time =       3.12 seconds =       0.05 minutes
	total time  =         12 seconds =       0.20 minutes
                                     G D M A

                                 by Anthony Stone

                           version 2.2.06, 22 June 2011

               Distributed Multipoles from Gaussian wavefunctions

Starting at 14:20:33 on 28 Apr 2020

Using SCF density matrix from file ./SSI/SSI-052ILE-087VAL-1-dimer.test.13103.fchk

                         Distributed Multipole Analysis

Standard DMA

Positions and radii in angstrom
Multipole moments in atomic units, ea_0^k for rank k

C          x = -2.088731  y = -1.026759  z = -0.098063 angstrom
           Maximum rank =  0   Radius =  0.650 angstrom
                   Q00  =  -0.239941

C          x = -1.875731  y =  0.489241  z =  0.015937 angstrom
           Maximum rank =  0   Radius =  0.650 angstrom
                   Q00  =  -0.236287

H          x = -2.664731  y = -1.292759  z = -0.980063 angstrom
           Maximum rank =  0   Radius =  0.325 angstrom
                   Q00  =   0.082201

H          x = -1.127731  y = -1.533759  z = -0.165063 angstrom
           Maximum rank =  0   Radius =  0.325 angstrom
                   Q00  =   0.077623

H          x = -2.592731  y = -1.413759  z =  0.786937 angstrom
           Maximum rank =  0   Radius =  0.325 angstrom
                   Q00  =   0.079822

H          x = -1.393731  y =  0.838241  z = -0.897063 angstrom
           Maximum rank =  0   Radius =  0.325 angstrom
                   Q00  =   0.080269

H          x = -1.185731  y =  0.678241  z =  0.839937 angstrom
           Maximum rank =  0   Radius =  0.325 angstrom
                   Q00  =   0.076444

H          x = -2.788171  y =  1.079341  z =  0.186928 angstrom
           Maximum rank =  0   Radius =  0.325 angstrom
                   Q00  =   0.084091

C          x =  1.433269  y =  0.447241  z = -0.490063 angstrom
           Maximum rank =  0   Radius =  0.650 angstrom
                   Q00  =  -0.247993

C          x =  2.525269  y =  0.092241  z =  0.569937 angstrom
           Maximum rank =  0   Radius =  0.650 angstrom
                   Q00  =  -0.243349

H          x =  1.844269  y =  0.372241  z = -1.498063 angstrom
           Maximum rank =  0   Radius =  0.325 angstrom
                   Q00  =   0.079536

H          x =  0.631269  y = -0.274759  z = -0.410063 angstrom
           Maximum rank =  0   Radius =  0.325 angstrom
                   Q00  =   0.081766

H          x =  1.042269  y =  1.452241  z = -0.323063 angstrom
           Maximum rank =  0   Radius =  0.325 angstrom
                   Q00  =   0.082370

H          x =  2.179269  y =  0.440241  z =  1.543937 angstrom
           Maximum rank =  0   Radius =  0.325 angstrom
                   Q00  =   0.079011

H          x =  3.447719  y =  0.625511  z =  0.296593 angstrom
           Maximum rank =  0   Radius =  0.325 angstrom
                   Q00  =   0.081447

H          x =  2.678539  y = -0.994379  z =  0.645849 angstrom
           Maximum rank =  0   Radius =  0.325 angstrom
                   Q00  =   0.082990

Total multipoles referred to origin at
           x =   0.000000,  y =    0.000000,  z =    0.000000 angstrom
                   Q00  =  -0.000000

Finished at 14:20:33 on 28 Apr 2020

  DMA results are available in the Python driver through the
	  variable('DMA DISTRIBUTED MULTIPOLES')
  and
	  variable('DMA TOTAL MULTIPOLES')
  commands.

    Psi4 stopped on: Tuesday, 28 April 2020 02:20PM
    Psi4 wall time for execution: 0:00:11.80

*** Psi4 exiting successfully. Buy a developer a beer!
