                               Psi4 1.3.2 release

  ==> Input File <==

--------------------------------------------------------------------------
import numpy as np
set {scf_type pk
basis cc-pvdz
d_convergence 10
gdma_switch   0
gdma_limit    0
gdma_origin   [ 0.0,  0.0,  0.0 ]
}
molecule test {
    units Angstrom
    0 1
    --
    0 1
    C               -1.484914035560628     0.851725833223304     1.428932576423465
    C               -2.716914035560628     0.806725833223304     0.501932576423465
    H               -0.946914035560628    -0.091274166776696     1.350932576423465
    H               -0.812914035560628     1.650725833223304     1.113932576423465
    H               -1.794914035560628     1.025725833223304     2.460932576423466
    H               -2.372914035560628     0.538725833223304    -0.487067423576535
    H               -3.475534035560627     0.087285833223304     0.843844576423465
    H               -3.170884035560627     1.805316833223304     0.419915576423465
    C                1.450085964439372    -0.653274166776696    -0.592067423576535
    C                2.751085964439372    -1.005274166776696    -1.329067423576535
    H                1.670085964439372    -0.067274166776696     0.300932576423465
    H                0.814085964439372    -0.062274166776696    -1.250067423576535
    H                0.916085964439372    -1.559274166776696    -0.311067423576535
    H                2.495085964439373    -1.611274166776696    -2.197067423576535
    H                3.395570964439372    -1.592584166776696    -0.658464423576535
    H                3.290971964439372    -0.122674166776696    -1.702613423576535

}
e, wfn = energy('scf', return_wfn=True)
gdma(wfn)
dmavals = variable('DMA DISTRIBUTED MULTIPOLES')
charges = np.array(dmavals)
print(charges)
np.save('SSI-086VAL-105LEU-1-dimer.npy', np.array(charges))--------------------------------------------------------------------------

*** tstart() called on ds3
*** at Mon Apr 27 21:39:31 2020

   => Loading Basis Set <=

    Name: CC-PVDZ
    Role: ORBITAL
    Keyword: BASIS
    atoms 1-2, 9-10  entry C          line   138 file /theoryfs2/ds/metcalf/miniconda2/envs/tf2gpu/share/psi4/basis/cc-pvdz.gbs
    atoms 3-8, 11-16 entry H          line    22 file /theoryfs2/ds/metcalf/miniconda2/envs/tf2gpu/share/psi4/basis/cc-pvdz.gbs

         ---------------------------------------------------------
                                   SCF
               by Justin Turney, Rob Parrish, Andy Simmonett
                          and Daniel G. A. Smith
                              RHF Reference
                        1 Threads,    500 MiB Core
         ---------------------------------------------------------

  ==> Geometry <==

    Molecular point group: c1
    Full point group: C1

    Geometry (in Angstrom), charge = 0, multiplicity = 1:

       Center              X                  Y                   Z               Mass
    ------------   -----------------  -----------------  -----------------  -----------------
         C           -1.484914035561     0.851725833223     1.428932576423    12.000000000000
         C           -2.716914035561     0.806725833223     0.501932576423    12.000000000000
         H           -0.946914035561    -0.091274166777     1.350932576423     1.007825032230
         H           -0.812914035561     1.650725833223     1.113932576423     1.007825032230
         H           -1.794914035561     1.025725833223     2.460932576423     1.007825032230
         H           -2.372914035561     0.538725833223    -0.487067423577     1.007825032230
         H           -3.475534035561     0.087285833223     0.843844576423     1.007825032230
         H           -3.170884035561     1.805316833223     0.419915576423     1.007825032230
         C            1.450085964439    -0.653274166777    -0.592067423577    12.000000000000
         C            2.751085964439    -1.005274166777    -1.329067423577    12.000000000000
         H            1.670085964439    -0.067274166777     0.300932576423     1.007825032230
         H            0.814085964439    -0.062274166777    -1.250067423577     1.007825032230
         H            0.916085964439    -1.559274166777    -0.311067423577     1.007825032230
         H            2.495085964439    -1.611274166777    -2.197067423577     1.007825032230
         H            3.395570964439    -1.592584166777    -0.658464423577     1.007825032230
         H            3.290971964439    -0.122674166777    -1.702613423577     1.007825032230

  Running in c1 symmetry.

  Rotational constants: A =      0.59502  B =      0.04242  C =      0.04088 [cm^-1]
  Rotational constants: A =  17838.29037  B =   1271.59058  C =   1225.48714 [MHz]
  Nuclear repulsion =  119.905614211272550

  Charge       = 0
  Multiplicity = 1
  Electrons    = 36
  Nalpha       = 18
  Nbeta        = 18

  ==> Algorithm <==

  SCF Algorithm Type is PK.
  DIIS enabled.
  MOM disabled.
  Fractional occupation disabled.
  Guess Type is SAD.
  Energy threshold   = 1.00e-06
  Density threshold  = 1.00e-10
  Integral threshold = 0.00e+00

  ==> Primary Basis <==

  Basis Set: CC-PVDZ
    Blend: CC-PVDZ
    Number of shells: 60
    Number of basis function: 116
    Number of Cartesian functions: 120
    Spherical Harmonics?: true
    Max angular momentum: 2

  ==> Pre-Iterations <==

   -------------------------------------------------------
    Irrep   Nso     Nmo     Nalpha   Nbeta   Ndocc  Nsocc
   -------------------------------------------------------
     A        116     116       0       0       0       0
   -------------------------------------------------------
    Total     116     116      18      18      18       0
   -------------------------------------------------------

  ==> Integral Setup <==

  Using integral reordering PK algorithm.
  Sizing the integral batches needed.
  Building batch lookup table.
   Calculation information:
      Number of atoms:                  16
      Number of AO shells:              60
      Number of primitives:            148
      Number of atomic orbitals:       120
      Number of basis functions:       116

      Integral cutoff                 1.00e-12
      Number of threads:                 1

	Batch   1 pq = [       0,    6786] index = [             0,23028291] size =     23028291
  Task number: 3
  Buffer size: 11059200
  Buffer per thread: 2
  We computed 1359599 shell quartets total.
  Whereas there are 1675365 unique shell quartets.

  ==> DiskJK: Disk-Based J/K Matrices <==

    J tasked:                  Yes
    K tasked:                  Yes
    wK tasked:                  No
    Memory [MiB]:              375
    Schwarz Cutoff:          1E-12

    OpenMP threads:              1

  Minimum eigenvalue in the overlap matrix is 6.9329137052E-03.
  Using Symmetric Orthogonalization.

  SCF Guess: Superposition of Atomic Densities via on-the-fly atomic UHF.

  ==> Iterations <==

                        Total Energy        Delta E     RMS |[F,P]|

   @RHF iter SAD:  -157.30590219107589   -1.57306e+02   0.00000e+00
   @RHF iter   1:  -158.30987848540136   -1.00398e+00   4.18516e-03 DIIS
   @RHF iter   2:  -158.44187745668381   -1.31999e-01   1.78069e-03 DIIS
   @RHF iter   3:  -158.46491549853678   -2.30380e-02   3.47487e-04 DIIS
   @RHF iter   4:  -158.46672784157678   -1.81234e-03   3.85757e-05 DIIS
   @RHF iter   5:  -158.46675125778353   -2.34162e-05   6.43781e-06 DIIS
   @RHF iter   6:  -158.46675187888425   -6.21101e-07   1.01543e-06 DIIS
   @RHF iter   7:  -158.46675188958727   -1.07030e-08   3.16449e-07 DIIS
   @RHF iter   8:  -158.46675189048773   -9.00457e-10   4.47760e-08 DIIS
   @RHF iter   9:  -158.46675189052127   -3.35376e-11   9.51462e-09 DIIS
   @RHF iter  10:  -158.46675189052291   -1.64846e-12   2.61608e-09 DIIS
   @RHF iter  11:  -158.46675189052300   -8.52651e-14   7.47747e-10 DIIS
   @RHF iter  12:  -158.46675189052326   -2.55795e-13   1.73682e-10 DIIS
   @RHF iter  13:  -158.46675189052294    3.12639e-13   2.50620e-11 DIIS
  Energy and wave function converged.

  ==> Post-Iterations <==

    Orbital Energies [Eh]
    ---------------------

    Doubly Occupied:

       1A    -11.220110     2A    -11.218356     3A    -11.218279
       4A    -11.216942     5A     -1.017147     6A     -1.013975
       7A     -0.839788     8A     -0.836193     9A     -0.598924
      10A     -0.597868    11A     -0.595938    12A     -0.593379
      13A     -0.503570    14A     -0.496659    15A     -0.488065
      16A     -0.486963    17A     -0.484723    18A     -0.482550

    Virtual:

      19A      0.170705    20A      0.193940    21A      0.223952
      22A      0.233839    23A      0.237901    24A      0.258112
      25A      0.264098    26A      0.276034    27A      0.280266
      28A      0.296663    29A      0.304257    30A      0.323561
      31A      0.388919    32A      0.404647    33A      0.570640
      34A      0.591322    35A      0.595647    36A      0.600322
      37A      0.612210    38A      0.632371    39A      0.678763
      40A      0.688660    41A      0.699437    42A      0.745283
      43A      0.836073    44A      0.866297    45A      0.887237
      46A      0.892368    47A      0.893005    48A      0.896449
      49A      0.897527    50A      0.904988    51A      0.913354
      52A      0.916763    53A      0.928712    54A      0.948159
      55A      0.971649    56A      0.996002    57A      1.119069
      58A      1.125984    59A      1.131629    60A      1.136648
      61A      1.232393    62A      1.243277    63A      1.461117
      64A      1.466540    65A      1.478176    66A      1.485174
      67A      1.565252    68A      1.587808    69A      1.681498
      70A      1.684377    71A      1.693223    72A      1.695053
      73A      1.850988    74A      1.862213    75A      1.865715
      76A      1.878496    77A      1.887915    78A      1.909169
      79A      1.933259    80A      1.938870    81A      1.939501
      82A      1.943237    83A      1.948843    84A      1.954222
      85A      1.957897    86A      1.969726    87A      1.972338
      88A      2.046891    89A      2.080970    90A      2.103828
      91A      2.120035    92A      2.128963    93A      2.293566
      94A      2.301135    95A      2.308366    96A      2.337572
      97A      2.442310    98A      2.450709    99A      2.462103
     100A      2.471063   101A      2.547150   102A      2.560128
     103A      2.575374   104A      2.582073   105A      2.757675
     106A      2.766115   107A      2.784225   108A      2.794771
     109A      2.843337   110A      2.846719   111A      2.859702
     112A      2.866358   113A      2.939141   114A      2.946790
     115A      2.956923   116A      2.959051

    Final Occupation by Irrep:
              A
    DOCC [    18 ]

  @RHF Final Energy:  -158.46675189052294

   => Energetics <=

    Nuclear Repulsion Energy =            119.9056142112725496
    One-Electron Energy =                -448.9258785313013504
    Two-Electron Energy =                 170.5535124295058438
    Total Energy =                       -158.4667518905229429

Computation Completed

Properties will be evaluated at   0.000000,   0.000000,   0.000000 [a0]

Properties computed using the SCF density matrix

  Nuclear Dipole Moment: [e a0]
     X:     0.0073      Y:     0.0011      Z:    -0.1086

  Electronic Dipole Moment: [e a0]
     X:     0.0052      Y:    -0.0075      Z:     0.0918

  Dipole Moment: [e a0]
     X:     0.0125      Y:    -0.0065      Z:    -0.0168     Total:     0.0219

  Dipole Moment: [D]
     X:     0.0318      Y:    -0.0164      Z:    -0.0428     Total:     0.0558

*** tstop() called on ds3 at Mon Apr 27 21:39:41 2020
Module time:
	user time   =       6.90 seconds =       0.12 minutes
	system time =       3.26 seconds =       0.05 minutes
	total time  =         10 seconds =       0.17 minutes
Total time:
	user time   =       6.90 seconds =       0.12 minutes
	system time =       3.26 seconds =       0.05 minutes
	total time  =         10 seconds =       0.17 minutes
                                     G D M A

                                 by Anthony Stone

                           version 2.2.06, 22 June 2011

               Distributed Multipoles from Gaussian wavefunctions

Starting at 21:39:41 on 27 Apr 2020

Using SCF density matrix from file ./SSI/SSI-086VAL-105LEU-1-dimer.test.18902.fchk

                         Distributed Multipole Analysis

Standard DMA

Positions and radii in angstrom
Multipole moments in atomic units, ea_0^k for rank k

C          x = -1.484914  y =  0.851726  z =  1.428933 angstrom
           Maximum rank =  0   Radius =  0.650 angstrom
                   Q00  =  -0.239694

C          x = -2.716914  y =  0.806726  z =  0.501933 angstrom
           Maximum rank =  0   Radius =  0.650 angstrom
                   Q00  =  -0.242672

H          x = -0.946914  y = -0.091274  z =  1.350933 angstrom
           Maximum rank =  0   Radius =  0.325 angstrom
                   Q00  =   0.082565

H          x = -0.812914  y =  1.650726  z =  1.113933 angstrom
           Maximum rank =  0   Radius =  0.325 angstrom
                   Q00  =   0.080988

H          x = -1.794914  y =  1.025726  z =  2.460933 angstrom
           Maximum rank =  0   Radius =  0.325 angstrom
                   Q00  =   0.079664

H          x = -2.372914  y =  0.538726  z = -0.487067 angstrom
           Maximum rank =  0   Radius =  0.325 angstrom
                   Q00  =   0.079197

H          x = -3.475534  y =  0.087286  z =  0.843845 angstrom
           Maximum rank =  0   Radius =  0.325 angstrom
                   Q00  =   0.082065

H          x = -3.170884  y =  1.805317  z =  0.419916 angstrom
           Maximum rank =  0   Radius =  0.325 angstrom
                   Q00  =   0.077372

C          x =  1.450086  y = -0.653274  z = -0.592067 angstrom
           Maximum rank =  0   Radius =  0.650 angstrom
                   Q00  =  -0.230704

C          x =  2.751086  y = -1.005274  z = -1.329067 angstrom
           Maximum rank =  0   Radius =  0.650 angstrom
                   Q00  =  -0.249171

H          x =  1.670086  y = -0.067274  z =  0.300933 angstrom
           Maximum rank =  0   Radius =  0.325 angstrom
                   Q00  =   0.080384

H          x =  0.814086  y = -0.062274  z = -1.250067 angstrom
           Maximum rank =  0   Radius =  0.325 angstrom
                   Q00  =   0.078916

H          x =  0.916086  y = -1.559274  z = -0.311067 angstrom
           Maximum rank =  0   Radius =  0.325 angstrom
                   Q00  =   0.081088

H          x =  2.495086  y = -1.611274  z = -2.197067 angstrom
           Maximum rank =  0   Radius =  0.325 angstrom
                   Q00  =   0.078234

H          x =  3.395571  y = -1.592584  z = -0.658464 angstrom
           Maximum rank =  0   Radius =  0.325 angstrom
                   Q00  =   0.078971

H          x =  3.290972  y = -0.122674  z = -1.702613 angstrom
           Maximum rank =  0   Radius =  0.325 angstrom
                   Q00  =   0.082796

Total multipoles referred to origin at
           x =   0.000000,  y =    0.000000,  z =    0.000000 angstrom
                   Q00  =  -0.000000

Finished at 21:39:41 on 27 Apr 2020

  DMA results are available in the Python driver through the
	  variable('DMA DISTRIBUTED MULTIPOLES')
  and
	  variable('DMA TOTAL MULTIPOLES')
  commands.

    Psi4 stopped on: Monday, 27 April 2020 09:39PM
    Psi4 wall time for execution: 0:00:10.02

*** Psi4 exiting successfully. Buy a developer a beer!
