                               Psi4 1.3.2 release

  ==> Input File <==

--------------------------------------------------------------------------
import numpy as np
set {scf_type pk
basis cc-pvdz
d_convergence 10
gdma_switch   0
gdma_limit    0
gdma_origin   [ 0.0,  0.0,  0.0 ]
}
molecule test {
    units Angstrom
    0 1
    --
    0 1
    C                1.596226189364553     2.190451807359267    -0.742459117126802
    C                1.483226189364553     3.122451807359267    -1.952459117126802
    H                2.225226189364553     2.631451807359268     0.032540882873198
    H                0.605226189364553     2.016451807359267    -0.327459117126802
    H                2.002226189364553     1.222451807359267    -1.039459117126802
    H                1.064226189364553     2.531451807359268    -2.769459117126802
    H                2.475516189364552     3.478161807359267    -2.266827117126802
    H                0.768956189364553     3.941341807359267    -1.781467117126802
    C               -1.651773810635447     0.077451807359267    -1.544459117126802
    C               -0.969773810635447    -0.497548192640733    -0.306459117126802
    C               -0.923773810635447     0.190451807359267     0.904540882873198
    C               -0.315773810635447    -1.732548192640733    -0.389459117126802
    C               -0.254773810635447    -0.353548192640733     2.020540882873198
    C                0.345226189364553    -2.284548192640733     0.730540882873198
    C                0.392226189364553    -1.574548192640733     1.927540882873198
    H               -2.146773810635447    -0.740548192640733    -2.069459117126802
    H               -0.869773810635447     0.462451807359267    -2.201459117126802
    H               -1.396773810635447     1.154451807359267     1.013540882873198
    H               -0.319773810635447    -2.277548192640733    -1.323459117126802
    H               -0.219773810635447     0.186451807359267     2.954540882873198
    H                0.841226189364553    -3.243548192640732     0.651540882873198
    H                0.913226189364553    -1.980548192640733     2.783540882873198
    H               -2.383243810635447     0.880423807359267    -1.370708117126802

}
e, wfn = energy('scf', return_wfn=True)
gdma(wfn)
dmavals = variable('DMA DISTRIBUTED MULTIPOLES')
charges = np.array(dmavals)
print(charges)
np.save('SSI-014ILE-081PHE-1-dimer.npy', np.array(charges))--------------------------------------------------------------------------

*** tstart() called on ds3
*** at Tue Apr 28 13:36:02 2020

   => Loading Basis Set <=

    Name: CC-PVDZ
    Role: ORBITAL
    Keyword: BASIS
    atoms 1-2, 9-15  entry C          line   138 file /theoryfs2/ds/metcalf/miniconda2/envs/tf2gpu/share/psi4/basis/cc-pvdz.gbs
    atoms 3-8, 16-23 entry H          line    22 file /theoryfs2/ds/metcalf/miniconda2/envs/tf2gpu/share/psi4/basis/cc-pvdz.gbs

         ---------------------------------------------------------
                                   SCF
               by Justin Turney, Rob Parrish, Andy Simmonett
                          and Daniel G. A. Smith
                              RHF Reference
                        1 Threads,    500 MiB Core
         ---------------------------------------------------------

  ==> Geometry <==

    Molecular point group: c1
    Full point group: C1

    Geometry (in Angstrom), charge = 0, multiplicity = 1:

       Center              X                  Y                   Z               Mass
    ------------   -----------------  -----------------  -----------------  -----------------
         C            1.596226189365     2.190451807359    -0.742459117127    12.000000000000
         C            1.483226189365     3.122451807359    -1.952459117127    12.000000000000
         H            2.225226189365     2.631451807359     0.032540882873     1.007825032230
         H            0.605226189365     2.016451807359    -0.327459117127     1.007825032230
         H            2.002226189365     1.222451807359    -1.039459117127     1.007825032230
         H            1.064226189365     2.531451807359    -2.769459117127     1.007825032230
         H            2.475516189365     3.478161807359    -2.266827117127     1.007825032230
         H            0.768956189365     3.941341807359    -1.781467117127     1.007825032230
         C           -1.651773810635     0.077451807359    -1.544459117127    12.000000000000
         C           -0.969773810635    -0.497548192641    -0.306459117127    12.000000000000
         C           -0.923773810635     0.190451807359     0.904540882873    12.000000000000
         C           -0.315773810635    -1.732548192641    -0.389459117127    12.000000000000
         C           -0.254773810635    -0.353548192641     2.020540882873    12.000000000000
         C            0.345226189365    -2.284548192641     0.730540882873    12.000000000000
         C            0.392226189365    -1.574548192641     1.927540882873    12.000000000000
         H           -2.146773810635    -0.740548192641    -2.069459117127     1.007825032230
         H           -0.869773810635     0.462451807359    -2.201459117127     1.007825032230
         H           -1.396773810635     1.154451807359     1.013540882873     1.007825032230
         H           -0.319773810635    -2.277548192641    -1.323459117127     1.007825032230
         H           -0.219773810635     0.186451807359     2.954540882873     1.007825032230
         H            0.841226189365    -3.243548192641     0.651540882873     1.007825032230
         H            0.913226189365    -1.980548192641     2.783540882873     1.007825032230
         H           -2.383243810635     0.880423807359    -1.370708117127     1.007825032230

  Running in c1 symmetry.

  Rotational constants: A =      0.06904  B =      0.02801  C =      0.02442 [cm^-1]
  Rotational constants: A =   2069.81642  B =    839.76458  C =    732.14057 [MHz]
  Nuclear repulsion =  412.921522425843307

  Charge       = 0
  Multiplicity = 1
  Electrons    = 68
  Nalpha       = 34
  Nbeta        = 34

  ==> Algorithm <==

  SCF Algorithm Type is PK.
  DIIS enabled.
  MOM disabled.
  Fractional occupation disabled.
  Guess Type is SAD.
  Energy threshold   = 1.00e-06
  Density threshold  = 1.00e-10
  Integral threshold = 0.00e+00

  ==> Primary Basis <==

  Basis Set: CC-PVDZ
    Blend: CC-PVDZ
    Number of shells: 96
    Number of basis function: 196
    Number of Cartesian functions: 205
    Spherical Harmonics?: true
    Max angular momentum: 2

  ==> Pre-Iterations <==

   -------------------------------------------------------
    Irrep   Nso     Nmo     Nalpha   Nbeta   Ndocc  Nsocc
   -------------------------------------------------------
     A        196     196       0       0       0       0
   -------------------------------------------------------
    Total     196     196      34      34      34       0
   -------------------------------------------------------

  ==> Integral Setup <==

  Using integral reordering PK algorithm.
  Sizing the integral batches needed.
  Building batch lookup table.
   Calculation information:
      Number of atoms:                  23
      Number of AO shells:              96
      Number of primitives:            268
      Number of atomic orbitals:       205
      Number of basis functions:       196

      Integral cutoff                 1.00e-12
      Number of threads:                 1

	Batch   1 pq = [       0,    9405] index = [             0,44231715] size =     44231715
	Batch   2 pq = [    9405,   13301] index = [      44231715,88464951] size =     44233236
	Batch   3 pq = [   13301,   16290] index = [      88464951,132690195] size =     44225244
	Batch   4 pq = [   16290,   18810] index = [     132690195,176917455] size =     44227260
	Batch   5 pq = [   18810,   19306] index = [     176917455,186370471] size =      9453016
  Task number: 17
  Buffer size: 11059200
  Buffer per thread: 2
  We computed 10182009 shell quartets total.
  Whereas there are 10841496 unique shell quartets.

  ==> DiskJK: Disk-Based J/K Matrices <==

    J tasked:                  Yes
    K tasked:                  Yes
    wK tasked:                  No
    Memory [MiB]:              375
    Schwarz Cutoff:          1E-12

    OpenMP threads:              1

  Minimum eigenvalue in the overlap matrix is 3.2386619015E-04.
  Using Symmetric Orthogonalization.

  SCF Guess: Superposition of Atomic Densities via on-the-fly atomic UHF.

  ==> Iterations <==

                        Total Energy        Delta E     RMS |[F,P]|

   @RHF iter SAD:  -347.76612930763559   -3.47766e+02   0.00000e+00
   @RHF iter   1:  -348.76728146716908   -1.00115e+00   2.86176e-03 DIIS
   @RHF iter   2:  -348.95692713089181   -1.89646e-01   1.17570e-03 DIIS
   @RHF iter   3:  -348.98598930585769   -2.90622e-02   2.54971e-04 DIIS
   @RHF iter   4:  -348.98842709396240   -2.43779e-03   4.77767e-05 DIIS
   @RHF iter   5:  -348.98849024140929   -6.31474e-05   1.63028e-05 DIIS
   @RHF iter   6:  -348.98849681729661   -6.57589e-06   4.39143e-06 DIIS
   @RHF iter   7:  -348.98849737494481   -5.57648e-07   1.34763e-06 DIIS
   @RHF iter   8:  -348.98849743597629   -6.10315e-08   3.57307e-07 DIIS
   @RHF iter   9:  -348.98849744554531   -9.56902e-09   1.68109e-07 DIIS
   @RHF iter  10:  -348.98849744798417   -2.43887e-09   7.98363e-08 DIIS
   @RHF iter  11:  -348.98849744880101   -8.16840e-10   2.92931e-08 DIIS
   @RHF iter  12:  -348.98849744889412   -9.31095e-11   1.30589e-08 DIIS
   @RHF iter  13:  -348.98849744890595   -1.18234e-11   4.47551e-09 DIIS
   @RHF iter  14:  -348.98849744890424    1.70530e-12   1.25294e-09 DIIS
   @RHF iter  15:  -348.98849744890498   -7.38964e-13   5.18352e-10 DIIS
   @RHF iter  16:  -348.98849744890555   -5.68434e-13   2.21249e-10 DIIS
   @RHF iter  17:  -348.98849744890725   -1.70530e-12   8.49384e-11 DIIS
  Energy and wave function converged.

  ==> Post-Iterations <==

    Orbital Energies [Eh]
    ---------------------

    Doubly Occupied:

       1A    -11.244847     2A    -11.238677     3A    -11.236007
       4A    -11.234156     5A    -11.233169     6A    -11.232700
       7A    -11.230970     8A    -11.216160     9A    -11.209269
      10A     -1.148374    11A     -1.043125    12A     -1.012228
      13A     -1.005313    14A     -0.932293    15A     -0.832440
      16A     -0.825145    17A     -0.793246    18A     -0.689878
      19A     -0.631487    20A     -0.627680    21A     -0.596818
      22A     -0.590704    23A     -0.577795    24A     -0.572184
      25A     -0.565172    26A     -0.537742    27A     -0.497568
      28A     -0.488543    29A     -0.486069    30A     -0.479934
      31A     -0.477852    32A     -0.475585    33A     -0.326944
      34A     -0.323828

    Virtual:

      35A      0.131605    36A      0.142267    37A      0.169253
      38A      0.192308    39A      0.212474    40A      0.216279
      41A      0.236002    42A      0.240852    43A      0.250857
      44A      0.254544    45A      0.268133    46A      0.275763
      47A      0.283782    48A      0.289549    49A      0.320269
      50A      0.349687    51A      0.370875    52A      0.374717
      53A      0.403103    54A      0.448775    55A      0.461882
      56A      0.471635    57A      0.491098    58A      0.561135
      59A      0.587311    60A      0.594893    61A      0.599537
      62A      0.605377    63A      0.643160    64A      0.671380
      65A      0.674443    66A      0.697827    67A      0.705525
      68A      0.716195    69A      0.724192    70A      0.740950
      71A      0.746046    72A      0.746325    73A      0.753808
      74A      0.763455    75A      0.793675    76A      0.809179
      77A      0.846436    78A      0.856320    79A      0.857975
      80A      0.867967    81A      0.878989    82A      0.886951
      83A      0.889616    84A      0.895610    85A      0.904258
      86A      0.908058    87A      0.919328    88A      0.927573
      89A      0.937676    90A      0.943529    91A      0.964249
      92A      0.987326    93A      0.993503    94A      1.002034
      95A      1.024949    96A      1.083587    97A      1.116061
      98A      1.122705    99A      1.133412   100A      1.138240
     101A      1.146154   102A      1.166665   103A      1.190759
     104A      1.226259   105A      1.236605   106A      1.250215
     107A      1.254116   108A      1.263715   109A      1.291625
     110A      1.305910   111A      1.319963   112A      1.332206
     113A      1.418559   114A      1.480689   115A      1.491213
     116A      1.500147   117A      1.521433   118A      1.561507
     119A      1.582487   120A      1.625828   121A      1.670141
     122A      1.684142   123A      1.694094   124A      1.698165
     125A      1.731880   126A      1.753988   127A      1.760180
     128A      1.787400   129A      1.807775   130A      1.841526
     131A      1.859503   132A      1.877504   133A      1.880248
     134A      1.889198   135A      1.894054   136A      1.912049
     137A      1.916091   138A      1.932895   139A      1.934626
     140A      1.935849   141A      1.954149   142A      1.957573
     143A      1.961557   144A      1.967031   145A      1.978934
     146A      1.982229   147A      1.987826   148A      2.007879
     149A      2.030550   150A      2.057630   151A      2.073927
     152A      2.108504   153A      2.123293   154A      2.141408
     155A      2.148374   156A      2.159788   157A      2.166291
     158A      2.170894   159A      2.183760   160A      2.251592
     161A      2.270475   162A      2.276697   163A      2.289793
     164A      2.304044   165A      2.314385   166A      2.328656
     167A      2.356077   168A      2.438842   169A      2.450248
     170A      2.453838   171A      2.470455   172A      2.483566
     173A      2.529561   174A      2.568944   175A      2.607232
     176A      2.628444   177A      2.719818   178A      2.736724
     179A      2.762620   180A      2.770682   181A      2.778072
     182A      2.800482   183A      2.813874   184A      2.842862
     185A      2.851598   186A      2.860619   187A      2.872855
     188A      2.950898   189A      2.973906   190A      2.978142
     191A      3.007764   192A      3.035707   193A      3.154269
     194A      3.181590   195A      3.285539   196A      3.935306

    Final Occupation by Irrep:
              A
    DOCC [    34 ]

  @RHF Final Energy:  -348.98849744890725

   => Energetics <=

    Nuclear Repulsion Energy =            412.9215224258433068
    One-Electron Energy =               -1288.5922336398359676
    Two-Electron Energy =                 526.6822137650854074
    Total Energy =                       -348.9884974489073102

Computation Completed

Properties will be evaluated at   0.000000,   0.000000,   0.000000 [a0]

Properties computed using the SCF density matrix

  Nuclear Dipole Moment: [e a0]
     X:     3.3371      Y:     9.6212      Z:    -7.2317

  Electronic Dipole Moment: [e a0]
     X:    -3.3928      Y:    -9.6341      Z:     7.1504

  Dipole Moment: [e a0]
     X:    -0.0557      Y:    -0.0129      Z:    -0.0813     Total:     0.0994

  Dipole Moment: [D]
     X:    -0.1416      Y:    -0.0328      Z:    -0.2066     Total:     0.2526

*** tstop() called on ds3 at Tue Apr 28 13:38:41 2020
Module time:
	user time   =      71.71 seconds =       1.20 minutes
	system time =      28.57 seconds =       0.48 minutes
	total time  =        159 seconds =       2.65 minutes
Total time:
	user time   =      71.71 seconds =       1.20 minutes
	system time =      28.57 seconds =       0.48 minutes
	total time  =        159 seconds =       2.65 minutes
                                     G D M A

                                 by Anthony Stone

                           version 2.2.06, 22 June 2011

               Distributed Multipoles from Gaussian wavefunctions

Starting at 13:38:41 on 28 Apr 2020

Using SCF density matrix from file ./SSI/SSI-014ILE-081PHE-1-dimer.test.16413.fchk

                         Distributed Multipole Analysis

Standard DMA

Positions and radii in angstrom
Multipole moments in atomic units, ea_0^k for rank k

C          x =  1.596226  y =  2.190452  z = -0.742459 angstrom
           Maximum rank =  0   Radius =  0.650 angstrom
                   Q00  =  -0.226472

C          x =  1.483226  y =  3.122452  z = -1.952459 angstrom
           Maximum rank =  0   Radius =  0.650 angstrom
                   Q00  =  -0.242373

H          x =  2.225226  y =  2.631452  z =  0.032541 angstrom
           Maximum rank =  0   Radius =  0.325 angstrom
                   Q00  =   0.076091

H          x =  0.605226  y =  2.016452  z = -0.327459 angstrom
           Maximum rank =  0   Radius =  0.325 angstrom
                   Q00  =   0.081083

H          x =  2.002226  y =  1.222452  z = -1.039459 angstrom
           Maximum rank =  0   Radius =  0.325 angstrom
                   Q00  =   0.081345

H          x =  1.064226  y =  2.531452  z = -2.769459 angstrom
           Maximum rank =  0   Radius =  0.325 angstrom
                   Q00  =   0.069620

H          x =  2.475516  y =  3.478162  z = -2.266827 angstrom
           Maximum rank =  0   Radius =  0.325 angstrom
                   Q00  =   0.080519

H          x =  0.768956  y =  3.941342  z = -1.781467 angstrom
           Maximum rank =  0   Radius =  0.325 angstrom
                   Q00  =   0.078174

C          x = -1.651774  y =  0.077452  z = -1.544459 angstrom
           Maximum rank =  0   Radius =  0.650 angstrom
                   Q00  =  -0.212595

C          x = -0.969774  y = -0.497548  z = -0.306459 angstrom
           Maximum rank =  0   Radius =  0.650 angstrom
                   Q00  =  -0.084904

C          x = -0.923774  y =  0.190452  z =  0.904541 angstrom
           Maximum rank =  0   Radius =  0.650 angstrom
                   Q00  =  -0.053866

C          x = -0.315774  y = -1.732548  z = -0.389459 angstrom
           Maximum rank =  0   Radius =  0.650 angstrom
                   Q00  =  -0.050455

C          x = -0.254774  y = -0.353548  z =  2.020541 angstrom
           Maximum rank =  0   Radius =  0.650 angstrom
                   Q00  =  -0.051102

C          x =  0.345226  y = -2.284548  z =  0.730541 angstrom
           Maximum rank =  0   Radius =  0.650 angstrom
                   Q00  =  -0.079336

C          x =  0.392226  y = -1.574548  z =  1.927541 angstrom
           Maximum rank =  0   Radius =  0.650 angstrom
                   Q00  =  -0.086337

H          x = -2.146774  y = -0.740548  z = -2.069459 angstrom
           Maximum rank =  0   Radius =  0.325 angstrom
                   Q00  =   0.101546

H          x = -0.869774  y =  0.462452  z = -2.201459 angstrom
           Maximum rank =  0   Radius =  0.325 angstrom
                   Q00  =   0.103273

H          x = -1.396774  y =  1.154452  z =  1.013541 angstrom
           Maximum rank =  0   Radius =  0.325 angstrom
                   Q00  =   0.059586

H          x = -0.319774  y = -2.277548  z = -1.323459 angstrom
           Maximum rank =  0   Radius =  0.325 angstrom
                   Q00  =   0.057879

H          x = -0.219774  y =  0.186452  z =  2.954541 angstrom
           Maximum rank =  0   Radius =  0.325 angstrom
                   Q00  =   0.065235

H          x =  0.841226  y = -3.243548  z =  0.651541 angstrom
           Maximum rank =  0   Radius =  0.325 angstrom
                   Q00  =   0.067292

H          x =  0.913226  y = -1.980548  z =  2.783541 angstrom
           Maximum rank =  0   Radius =  0.325 angstrom
                   Q00  =   0.062087

H          x = -2.383244  y =  0.880424  z = -1.370708 angstrom
           Maximum rank =  0   Radius =  0.325 angstrom
                   Q00  =   0.103711

Total multipoles referred to origin at
           x =   0.000000,  y =    0.000000,  z =    0.000000 angstrom
                   Q00  =  -0.000000

Finished at 13:38:41 on 28 Apr 2020

  DMA results are available in the Python driver through the
	  variable('DMA DISTRIBUTED MULTIPOLES')
  and
	  variable('DMA TOTAL MULTIPOLES')
  commands.

    Psi4 stopped on: Tuesday, 28 April 2020 01:38PM
    Psi4 wall time for execution: 0:02:39.05

*** Psi4 exiting successfully. Buy a developer a beer!
