                               Psi4 1.3.2 release

  ==> Input File <==

--------------------------------------------------------------------------
import numpy as np
set {scf_type pk
basis cc-pvdz
d_convergence 10
gdma_switch   0
gdma_limit    0
gdma_origin   [ 0.0,  0.0,  0.0 ]
}
molecule test {
    units Angstrom
    0 1
    --
    0 1
    C                0.897006481638404    -0.510596681760989    -0.925176297031302
    C                0.201006481638404    -1.146596681760989    -2.130176297031303
    C                2.397006481638404    -0.375596681760989    -1.132176297031302
    H                0.483006481638404     0.488403318239011    -0.777176297031302
    H                0.703006481638404    -1.106596681760989    -0.032176297031302
    H                0.536006481638404    -2.180596681760989    -2.231176297031303
    H                0.528006481638404    -0.604596681760989    -3.020176297031302
    H                2.841006481638404    -1.368596681760989    -1.226176297031302
    H                2.579006481638404     0.177403318239011    -2.055176297031303
    H               -0.898003518361596    -1.110566681760989    -2.100629297031302
    H                2.856466481638404     0.155273318239011    -0.285377697031302
    C               -1.744993518361596     0.317403318239011     1.704823702968697
    C               -1.687993518361596     1.680403318239011     2.427823702968698
    H               -1.221993518361596    -0.449596681760989     2.273823702968698
    H               -2.785993518361596     0.009403318239011     1.596823702968698
    H               -1.302993518361596     0.404403318239011     0.714823702968698
    H               -2.155993518361596     1.581403318239011     3.403823702968698
    H               -0.642263518361596     2.000626318239011     2.545762702968697
    H               -2.257873518361596     2.420175318239011     1.846471702968698

}
e, wfn = energy('scf', return_wfn=True)
gdma(wfn)
dmavals = variable('DMA DISTRIBUTED MULTIPOLES')
charges = np.array(dmavals)
print(charges)
np.save('SSI-008LYS-065VAL-1-dimer.npy', np.array(charges))--------------------------------------------------------------------------

*** tstart() called on ds3
*** at Mon Apr 27 23:21:16 2020

   => Loading Basis Set <=

    Name: CC-PVDZ
    Role: ORBITAL
    Keyword: BASIS
    atoms 1-3, 12-13  entry C          line   138 file /theoryfs2/ds/metcalf/miniconda2/envs/tf2gpu/share/psi4/basis/cc-pvdz.gbs
    atoms 4-11, 14-19 entry H          line    22 file /theoryfs2/ds/metcalf/miniconda2/envs/tf2gpu/share/psi4/basis/cc-pvdz.gbs

         ---------------------------------------------------------
                                   SCF
               by Justin Turney, Rob Parrish, Andy Simmonett
                          and Daniel G. A. Smith
                              RHF Reference
                        1 Threads,    500 MiB Core
         ---------------------------------------------------------

  ==> Geometry <==

    Molecular point group: c1
    Full point group: C1

    Geometry (in Angstrom), charge = 0, multiplicity = 1:

       Center              X                  Y                   Z               Mass
    ------------   -----------------  -----------------  -----------------  -----------------
         C            0.897006481638    -0.510596681761    -0.925176297031    12.000000000000
         C            0.201006481638    -1.146596681761    -2.130176297031    12.000000000000
         C            2.397006481638    -0.375596681761    -1.132176297031    12.000000000000
         H            0.483006481638     0.488403318239    -0.777176297031     1.007825032230
         H            0.703006481638    -1.106596681761    -0.032176297031     1.007825032230
         H            0.536006481638    -2.180596681761    -2.231176297031     1.007825032230
         H            0.528006481638    -0.604596681761    -3.020176297031     1.007825032230
         H            2.841006481638    -1.368596681761    -1.226176297031     1.007825032230
         H            2.579006481638     0.177403318239    -2.055176297031     1.007825032230
         H           -0.898003518362    -1.110566681761    -2.100629297031     1.007825032230
         H            2.856466481638     0.155273318239    -0.285377697031     1.007825032230
         C           -1.744993518362     0.317403318239     1.704823702969    12.000000000000
         C           -1.687993518362     1.680403318239     2.427823702969    12.000000000000
         H           -1.221993518362    -0.449596681761     2.273823702969     1.007825032230
         H           -2.785993518362     0.009403318239     1.596823702969     1.007825032230
         H           -1.302993518362     0.404403318239     0.714823702969     1.007825032230
         H           -2.155993518362     1.581403318239     3.403823702969     1.007825032230
         H           -0.642263518362     2.000626318239     2.545762702969     1.007825032230
         H           -2.257873518362     2.420175318239     1.846471702969     1.007825032230

  Running in c1 symmetry.

  Rotational constants: A =      0.22016  B =      0.03733  C =      0.03354 [cm^-1]
  Rotational constants: A =   6600.12533  B =   1119.11825  C =   1005.49022 [MHz]
  Nuclear repulsion =  175.756211875214916

  Charge       = 0
  Multiplicity = 1
  Electrons    = 44
  Nalpha       = 22
  Nbeta        = 22

  ==> Algorithm <==

  SCF Algorithm Type is PK.
  DIIS enabled.
  MOM disabled.
  Fractional occupation disabled.
  Guess Type is SAD.
  Energy threshold   = 1.00e-06
  Density threshold  = 1.00e-10
  Integral threshold = 0.00e+00

  ==> Primary Basis <==

  Basis Set: CC-PVDZ
    Blend: CC-PVDZ
    Number of shells: 72
    Number of basis function: 140
    Number of Cartesian functions: 145
    Spherical Harmonics?: true
    Max angular momentum: 2

  ==> Pre-Iterations <==

   -------------------------------------------------------
    Irrep   Nso     Nmo     Nalpha   Nbeta   Ndocc  Nsocc
   -------------------------------------------------------
     A        140     140       0       0       0       0
   -------------------------------------------------------
    Total     140     140      22      22      22       0
   -------------------------------------------------------

  ==> Integral Setup <==

  Using integral reordering PK algorithm.
  Sizing the integral batches needed.
  Building batch lookup table.
   Calculation information:
      Number of atoms:                  19
      Number of AO shells:              72
      Number of primitives:            180
      Number of atomic orbitals:       145
      Number of basis functions:       140

      Integral cutoff                 1.00e-12
      Number of threads:                 1

	Batch   1 pq = [       0,    9405] index = [             0,44231715] size =     44231715
	Batch   2 pq = [    9405,    9870] index = [      44231715,48713385] size =      4481670
  Task number: 5
  Buffer size: 11059200
  Buffer per thread: 2
  We computed 2717629 shell quartets total.
  Whereas there are 3454506 unique shell quartets.

  ==> DiskJK: Disk-Based J/K Matrices <==

    J tasked:                  Yes
    K tasked:                  Yes
    wK tasked:                  No
    Memory [MiB]:              375
    Schwarz Cutoff:          1E-12

    OpenMP threads:              1

  Minimum eigenvalue in the overlap matrix is 5.2743894364E-03.
  Using Symmetric Orthogonalization.

  SCF Guess: Superposition of Atomic Densities via on-the-fly atomic UHF.

  ==> Iterations <==

                        Total Energy        Delta E     RMS |[F,P]|

   @RHF iter SAD:  -196.35356578991752   -1.96354e+02   0.00000e+00
   @RHF iter   1:  -197.31315141729863   -9.59586e-01   3.79158e-03 DIIS
   @RHF iter   2:  -197.47245021140552   -1.59299e-01   1.63238e-03 DIIS
   @RHF iter   3:  -197.50061103948528   -2.81608e-02   3.25789e-04 DIIS
   @RHF iter   4:  -197.50282912955737   -2.21809e-03   5.00564e-05 DIIS
   @RHF iter   5:  -197.50286961214579   -4.04826e-05   1.52589e-05 DIIS
   @RHF iter   6:  -197.50287318737136   -3.57523e-06   2.44626e-06 DIIS
   @RHF iter   7:  -197.50287329776353   -1.10392e-07   4.59144e-07 DIIS
   @RHF iter   8:  -197.50287330212853   -4.36501e-09   1.18200e-07 DIIS
   @RHF iter   9:  -197.50287330239755   -2.69011e-10   3.61873e-08 DIIS
   @RHF iter  10:  -197.50287330242733   -2.97860e-11   7.93695e-09 DIIS
   @RHF iter  11:  -197.50287330242836   -1.02318e-12   1.51116e-09 DIIS
   @RHF iter  12:  -197.50287330242907   -7.10543e-13   2.92637e-10 DIIS
   @RHF iter  13:  -197.50287330242944   -3.69482e-13   6.20130e-11 DIIS
  Energy and wave function converged.

  ==> Post-Iterations <==

    Orbital Energies [Eh]
    ---------------------

    Doubly Occupied:

       1A    -11.219767     2A    -11.219367     3A    -11.216871
       4A    -11.216619     5A    -11.215810     6A     -1.055939
       7A     -1.013976     8A     -0.923535     9A     -0.837263
      10A     -0.796967    11A     -0.628740    12A     -0.601350
      13A     -0.595397    14A     -0.593617    15A     -0.545622
      16A     -0.529966    17A     -0.495176    18A     -0.489214
      19A     -0.486858    20A     -0.475920    21A     -0.469648
      22A     -0.463821

    Virtual:

      23A      0.172216    24A      0.193264    25A      0.219125
      26A      0.221635    27A      0.235237    28A      0.249744
      29A      0.253134    30A      0.268133    31A      0.274925
      32A      0.283985    33A      0.290904    34A      0.303849
      35A      0.310759    36A      0.336170    37A      0.383828
      38A      0.399762    39A      0.432217    40A      0.568700
      41A      0.589274    42A      0.599434    43A      0.599821
      44A      0.612108    45A      0.614659    46A      0.627541
      47A      0.647561    48A      0.687342    49A      0.768115
      50A      0.792831    51A      0.820774    52A      0.837449
      53A      0.860861    54A      0.878212    55A      0.889654
      56A      0.893824    57A      0.895440    58A      0.899301
      59A      0.899667    60A      0.903410    61A      0.910965
      62A      0.914414    63A      0.922715    64A      0.930440
      65A      0.962150    66A      0.964772    67A      0.979673
      68A      1.013761    69A      1.121859    70A      1.126239
      71A      1.131571    72A      1.156259    73A      1.198144
      74A      1.273179    75A      1.371835    76A      1.471329
      77A      1.474202    78A      1.479272    79A      1.494973
      80A      1.537340    81A      1.587203    82A      1.600382
      83A      1.673823    84A      1.680340    85A      1.688580
      86A      1.700670    87A      1.714197    88A      1.843459
      89A      1.870064    90A      1.876329    91A      1.881926
      92A      1.887987    93A      1.904669    94A      1.912592
      95A      1.926401    96A      1.939834    97A      1.942503
      98A      1.950200    99A      1.952957   100A      1.960159
     101A      1.963373   102A      1.976641   103A      1.986188
     104A      1.992513   105A      2.010106   106A      2.017315
     107A      2.039137   108A      2.103036   109A      2.109208
     110A      2.132003   111A      2.162943   112A      2.286740
     113A      2.295426   114A      2.306810   115A      2.311870
     116A      2.325523   117A      2.337673   118A      2.454059
     119A      2.472012   120A      2.504832   121A      2.531292
     122A      2.564295   123A      2.571052   124A      2.586347
     125A      2.612244   126A      2.638115   127A      2.754752
     128A      2.764971   129A      2.766532   130A      2.783302
     131A      2.799086   132A      2.812195   133A      2.842230
     134A      2.855592   135A      2.904828   136A      2.947963
     137A      2.957800   138A      2.964007   139A      2.989617
     140A      3.070274

    Final Occupation by Irrep:
              A
    DOCC [    22 ]

  @RHF Final Energy:  -197.50287330242944

   => Energetics <=

    Nuclear Repulsion Energy =            175.7562118752149161
    One-Electron Energy =                -612.3352858729240324
    Two-Electron Energy =                 239.0762006952796526
    Total Energy =                       -197.5028733024294354

Computation Completed

Properties will be evaluated at   0.000000,   0.000000,   0.000000 [a0]

Properties computed using the SCF density matrix

  Nuclear Dipole Moment: [e a0]
     X:    -0.6924      Y:     0.3905      Z:     0.6126

  Electronic Dipole Moment: [e a0]
     X:     0.6874      Y:    -0.3923      Z:    -0.6044

  Dipole Moment: [e a0]
     X:    -0.0050      Y:    -0.0018      Z:     0.0082     Total:     0.0098

  Dipole Moment: [D]
     X:    -0.0128      Y:    -0.0045      Z:     0.0208     Total:     0.0248

*** tstop() called on ds3 at Mon Apr 27 23:21:39 2020
Module time:
	user time   =      16.03 seconds =       0.27 minutes
	system time =       8.36 seconds =       0.14 minutes
	total time  =         23 seconds =       0.38 minutes
Total time:
	user time   =      16.03 seconds =       0.27 minutes
	system time =       8.36 seconds =       0.14 minutes
	total time  =         23 seconds =       0.38 minutes
                                     G D M A

                                 by Anthony Stone

                           version 2.2.06, 22 June 2011

               Distributed Multipoles from Gaussian wavefunctions

Starting at 23:21:39 on 27 Apr 2020

Using SCF density matrix from file ./SSI/SSI-008LYS-065VAL-1-dimer.test.2473.fchk

                         Distributed Multipole Analysis

Standard DMA

Positions and radii in angstrom
Multipole moments in atomic units, ea_0^k for rank k

C          x =  0.897006  y = -0.510597  z = -0.925176 angstrom
           Maximum rank =  0   Radius =  0.650 angstrom
                   Q00  =  -0.079170

C          x =  0.201006  y = -1.146597  z = -2.130176 angstrom
           Maximum rank =  0   Radius =  0.650 angstrom
                   Q00  =  -0.247819

C          x =  2.397006  y = -0.375597  z = -1.132176 angstrom
           Maximum rank =  0   Radius =  0.650 angstrom
                   Q00  =  -0.232072

H          x =  0.483006  y =  0.488403  z = -0.777176 angstrom
           Maximum rank =  0   Radius =  0.325 angstrom
                   Q00  =   0.040548

H          x =  0.703006  y = -1.106597  z = -0.032176 angstrom
           Maximum rank =  0   Radius =  0.325 angstrom
                   Q00  =   0.049192

H          x =  0.536006  y = -2.180597  z = -2.231176 angstrom
           Maximum rank =  0   Radius =  0.325 angstrom
                   Q00  =   0.076050

H          x =  0.528006  y = -0.604597  z = -3.020176 angstrom
           Maximum rank =  0   Radius =  0.325 angstrom
                   Q00  =   0.070947

H          x =  2.841006  y = -1.368597  z = -1.226176 angstrom
           Maximum rank =  0   Radius =  0.325 angstrom
                   Q00  =   0.075599

H          x =  2.579006  y =  0.177403  z = -2.055176 angstrom
           Maximum rank =  0   Radius =  0.325 angstrom
                   Q00  =   0.076311

H          x = -0.898004  y = -1.110567  z = -2.100629 angstrom
           Maximum rank =  0   Radius =  0.325 angstrom
                   Q00  =   0.087796

H          x =  2.856466  y =  0.155273  z = -0.285378 angstrom
           Maximum rank =  0   Radius =  0.325 angstrom
                   Q00  =   0.084581

C          x = -1.744994  y =  0.317403  z =  1.704824 angstrom
           Maximum rank =  0   Radius =  0.650 angstrom
                   Q00  =  -0.239773

C          x = -1.687994  y =  1.680403  z =  2.427824 angstrom
           Maximum rank =  0   Radius =  0.650 angstrom
                   Q00  =  -0.245643

H          x = -1.221994  y = -0.449597  z =  2.273824 angstrom
           Maximum rank =  0   Radius =  0.325 angstrom
                   Q00  =   0.080257

H          x = -2.785994  y =  0.009403  z =  1.596824 angstrom
           Maximum rank =  0   Radius =  0.325 angstrom
                   Q00  =   0.077333

H          x = -1.302994  y =  0.404403  z =  0.714824 angstrom
           Maximum rank =  0   Radius =  0.325 angstrom
                   Q00  =   0.086192

H          x = -2.155994  y =  1.581403  z =  3.403824 angstrom
           Maximum rank =  0   Radius =  0.325 angstrom
                   Q00  =   0.080981

H          x = -0.642264  y =  2.000626  z =  2.545763 angstrom
           Maximum rank =  0   Radius =  0.325 angstrom
                   Q00  =   0.079912

H          x = -2.257874  y =  2.420175  z =  1.846472 angstrom
           Maximum rank =  0   Radius =  0.325 angstrom
                   Q00  =   0.078777

Total multipoles referred to origin at
           x =   0.000000,  y =    0.000000,  z =    0.000000 angstrom
                   Q00  =  -0.000000

Finished at 23:21:39 on 27 Apr 2020

  DMA results are available in the Python driver through the
	  variable('DMA DISTRIBUTED MULTIPOLES')
  and
	  variable('DMA TOTAL MULTIPOLES')
  commands.

    Psi4 stopped on: Monday, 27 April 2020 11:21PM
    Psi4 wall time for execution: 0:00:23.53

*** Psi4 exiting successfully. Buy a developer a beer!
