                               Psi4 1.3.2 release

  ==> Input File <==

--------------------------------------------------------------------------
import numpy as np
set {scf_type pk
basis cc-pvdz
d_convergence 10
gdma_switch   0
gdma_limit    0
gdma_origin   [ 0.0,  0.0,  0.0 ]
}
molecule test {
    units Angstrom
    0 1
    --
    0 1
    C               -0.683127591776520    -3.359027605634759     1.019096108441518
    C                0.269872408223480     0.152972394365240     0.071096108441518
    C                0.339872408223480    -1.191027605634760     0.342096108441518
    C               -0.924127591776520     0.837972394365240     0.158096108441518
    C               -0.765127591776520    -1.891027605634760     0.757096108441518
    C               -2.061127591776520     0.143972394365240     0.540096108441518
    C               -1.968127591776520    -1.237027605634760     0.844096108441518
    H                1.168872408223480     0.651972394365240    -0.240903891558482
    H                1.288872408223480    -1.695027605634760     0.229096108441518
    H               -0.975127591776520     1.893972394365240    -0.070903891558482
    H               -3.013127591776520     0.654972394365240     0.608096108441518
    H               -0.509127591776520    -3.863027605634760     0.070096108441518
    H               -1.657127591776520    -3.692027605634760     1.364096108441518
    H               -2.860127591776521    -1.773027605634760     1.139096108441518
    H                0.081592408223480    -3.663345605634760     1.748886108441518
    C                2.528872408223480     2.909972394365240    -0.888903891558482
    C                2.536872408223480     3.079972394365240    -2.417903891558482
    H                2.786872408223479     3.838972394365240    -0.383903891558482
    H                1.518872408223480     2.671972394365240    -0.568903891558482
    H                3.221872408223479     2.128972394365241    -0.597903891558482
    H                1.813872408223480     3.860972394365240    -2.658903891558482
    H                3.537412408223479     3.404608594365240    -2.739663891558482
    H                2.242522408223480     2.167475194365240    -2.957073891558482

}
e, wfn = energy('scf', return_wfn=True)
gdma(wfn)
dmavals = variable('DMA DISTRIBUTED MULTIPOLES')
charges = np.array(dmavals)
print(charges)
np.save('SSI-116PHE-130VAL-1-dimer.npy', np.array(charges))--------------------------------------------------------------------------

*** tstart() called on ds3
*** at Tue Apr 28 10:59:22 2020

   => Loading Basis Set <=

    Name: CC-PVDZ
    Role: ORBITAL
    Keyword: BASIS
    atoms 1-7, 16-17  entry C          line   138 file /theoryfs2/ds/metcalf/miniconda2/envs/tf2gpu/share/psi4/basis/cc-pvdz.gbs
    atoms 8-15, 18-23 entry H          line    22 file /theoryfs2/ds/metcalf/miniconda2/envs/tf2gpu/share/psi4/basis/cc-pvdz.gbs

         ---------------------------------------------------------
                                   SCF
               by Justin Turney, Rob Parrish, Andy Simmonett
                          and Daniel G. A. Smith
                              RHF Reference
                        1 Threads,    500 MiB Core
         ---------------------------------------------------------

  ==> Geometry <==

    Molecular point group: c1
    Full point group: C1

    Geometry (in Angstrom), charge = 0, multiplicity = 1:

       Center              X                  Y                   Z               Mass
    ------------   -----------------  -----------------  -----------------  -----------------
         C           -0.683127591777    -3.359027605635     1.019096108442    12.000000000000
         C            0.269872408223     0.152972394365     0.071096108442    12.000000000000
         C            0.339872408223    -1.191027605635     0.342096108442    12.000000000000
         C           -0.924127591777     0.837972394365     0.158096108442    12.000000000000
         C           -0.765127591777    -1.891027605635     0.757096108442    12.000000000000
         C           -2.061127591777     0.143972394365     0.540096108442    12.000000000000
         C           -1.968127591777    -1.237027605635     0.844096108442    12.000000000000
         H            1.168872408223     0.651972394365    -0.240903891558     1.007825032230
         H            1.288872408223    -1.695027605635     0.229096108442     1.007825032230
         H           -0.975127591777     1.893972394365    -0.070903891558     1.007825032230
         H           -3.013127591777     0.654972394365     0.608096108442     1.007825032230
         H           -0.509127591777    -3.863027605635     0.070096108442     1.007825032230
         H           -1.657127591777    -3.692027605635     1.364096108442     1.007825032230
         H           -2.860127591777    -1.773027605635     1.139096108442     1.007825032230
         H            0.081592408223    -3.663345605635     1.748886108442     1.007825032230
         C            2.528872408223     2.909972394365    -0.888903891558    12.000000000000
         C            2.536872408223     3.079972394365    -2.417903891558    12.000000000000
         H            2.786872408223     3.838972394365    -0.383903891558     1.007825032230
         H            1.518872408223     2.671972394365    -0.568903891558     1.007825032230
         H            3.221872408223     2.128972394365    -0.597903891558     1.007825032230
         H            1.813872408223     3.860972394365    -2.658903891558     1.007825032230
         H            3.537412408223     3.404608594365    -2.739663891558     1.007825032230
         H            2.242522408223     2.167475194365    -2.957073891558     1.007825032230

  Running in c1 symmetry.

  Rotational constants: A =      0.10706  B =      0.01875  C =      0.01662 [cm^-1]
  Rotational constants: A =   3209.51820  B =    562.13757  C =    498.14882 [MHz]
  Nuclear repulsion =  399.985985003525514

  Charge       = 0
  Multiplicity = 1
  Electrons    = 68
  Nalpha       = 34
  Nbeta        = 34

  ==> Algorithm <==

  SCF Algorithm Type is PK.
  DIIS enabled.
  MOM disabled.
  Fractional occupation disabled.
  Guess Type is SAD.
  Energy threshold   = 1.00e-06
  Density threshold  = 1.00e-10
  Integral threshold = 0.00e+00

  ==> Primary Basis <==

  Basis Set: CC-PVDZ
    Blend: CC-PVDZ
    Number of shells: 96
    Number of basis function: 196
    Number of Cartesian functions: 205
    Spherical Harmonics?: true
    Max angular momentum: 2

  ==> Pre-Iterations <==

   -------------------------------------------------------
    Irrep   Nso     Nmo     Nalpha   Nbeta   Ndocc  Nsocc
   -------------------------------------------------------
     A        196     196       0       0       0       0
   -------------------------------------------------------
    Total     196     196      34      34      34       0
   -------------------------------------------------------

  ==> Integral Setup <==

  Using integral reordering PK algorithm.
  Sizing the integral batches needed.
  Building batch lookup table.
   Calculation information:
      Number of atoms:                  23
      Number of AO shells:              96
      Number of primitives:            268
      Number of atomic orbitals:       205
      Number of basis functions:       196

      Integral cutoff                 1.00e-12
      Number of threads:                 1

	Batch   1 pq = [       0,    9405] index = [             0,44231715] size =     44231715
	Batch   2 pq = [    9405,   13301] index = [      44231715,88464951] size =     44233236
	Batch   3 pq = [   13301,   16290] index = [      88464951,132690195] size =     44225244
	Batch   4 pq = [   16290,   18810] index = [     132690195,176917455] size =     44227260
	Batch   5 pq = [   18810,   19306] index = [     176917455,186370471] size =      9453016
  Task number: 17
  Buffer size: 11059200
  Buffer per thread: 2
  We computed 8439951 shell quartets total.
  Whereas there are 10841496 unique shell quartets.

  ==> DiskJK: Disk-Based J/K Matrices <==

    J tasked:                  Yes
    K tasked:                  Yes
    wK tasked:                  No
    Memory [MiB]:              375
    Schwarz Cutoff:          1E-12

    OpenMP threads:              1

  Minimum eigenvalue in the overlap matrix is 2.8488050698E-04.
  Using Symmetric Orthogonalization.

  SCF Guess: Superposition of Atomic Densities via on-the-fly atomic UHF.

  ==> Iterations <==

                        Total Energy        Delta E     RMS |[F,P]|

   @RHF iter SAD:  -348.01666782863214   -3.48017e+02   0.00000e+00
   @RHF iter   1:  -348.76009790405595   -7.43430e-01   2.91681e-03 DIIS
   @RHF iter   2:  -348.95487891172354   -1.94781e-01   1.21510e-03 DIIS
   @RHF iter   3:  -348.98570258400071   -3.08237e-02   2.65302e-04 DIIS
   @RHF iter   4:  -348.98821937079072   -2.51679e-03   6.81542e-05 DIIS
   @RHF iter   5:  -348.98833155050676   -1.12180e-04   2.11980e-05 DIIS
   @RHF iter   6:  -348.98834305067589   -1.15002e-05   5.22249e-06 DIIS
   @RHF iter   7:  -348.98834395052756   -8.99852e-07   1.37529e-06 DIIS
   @RHF iter   8:  -348.98834406299159   -1.12464e-07   5.37021e-07 DIIS
   @RHF iter   9:  -348.98834409631201   -3.33204e-08   2.66091e-07 DIIS
   @RHF iter  10:  -348.98834410517327   -8.86126e-09   1.19074e-07 DIIS
   @RHF iter  11:  -348.98834410680990   -1.63664e-09   3.49449e-08 DIIS
   @RHF iter  12:  -348.98834410690205   -9.21432e-11   1.27670e-08 DIIS
   @RHF iter  13:  -348.98834410690961   -7.56017e-12   3.66065e-09 DIIS
   @RHF iter  14:  -348.98834410691234   -2.72848e-12   1.11486e-09 DIIS
   @RHF iter  15:  -348.98834410690949    2.84217e-12   4.85132e-10 DIIS
   @RHF iter  16:  -348.98834410690898    5.11591e-13   2.40965e-10 DIIS
   @RHF iter  17:  -348.98834410691052   -1.53477e-12   8.03723e-11 DIIS
  Energy and wave function converged.

  ==> Post-Iterations <==

    Orbital Energies [Eh]
    ---------------------

    Doubly Occupied:

       1A    -11.236066     2A    -11.233150     3A    -11.228733
       4A    -11.228592     5A    -11.226820     6A    -11.226241
       7A    -11.222235     8A    -11.221935     9A    -11.219092
      10A     -1.158129    11A     -1.049505    12A     -1.019211
      13A     -1.009337    14A     -0.933088    15A     -0.841872
      16A     -0.826495    17A     -0.795529    18A     -0.692459
      19A     -0.633324    20A     -0.628901    21A     -0.603609
      22A     -0.596932    23A     -0.578581    24A     -0.577092
      25A     -0.567284    26A     -0.532584    27A     -0.504307
      28A     -0.491658    29A     -0.489970    30A     -0.488262
      31A     -0.481533    32A     -0.475789    33A     -0.329277
      34A     -0.325708

    Virtual:

      35A      0.137013    36A      0.148190    37A      0.172768
      38A      0.192863    39A      0.208859    40A      0.219539
      41A      0.228837    42A      0.241275    43A      0.251585
      44A      0.260346    45A      0.268413    46A      0.269478
      47A      0.280102    48A      0.293671    49A      0.334694
      50A      0.336673    51A      0.372677    52A      0.382366
      53A      0.390874    54A      0.464680    55A      0.470617
      56A      0.486277    57A      0.522772    58A      0.579615
      59A      0.593637    60A      0.601963    61A      0.604687
      62A      0.626174    63A      0.626915    64A      0.670719
      65A      0.692119    66A      0.696935    67A      0.698714
      68A      0.713630    69A      0.735283    70A      0.746768
      71A      0.749066    72A      0.754898    73A      0.765973
      74A      0.774102    75A      0.787989    76A      0.821383
      77A      0.830024    78A      0.841290    79A      0.857336
      80A      0.858291    81A      0.878731    82A      0.888367
      83A      0.891284    84A      0.896203    85A      0.897051
      86A      0.911074    87A      0.918925    88A      0.920678
      89A      0.931481    90A      0.936489    91A      0.947328
      92A      0.958122    93A      1.004418    94A      1.006622
      95A      1.051576    96A      1.067861    97A      1.111215
      98A      1.130682    99A      1.141920   100A      1.152728
     101A      1.159372   102A      1.204629   103A      1.211757
     104A      1.238628   105A      1.246603   106A      1.257541
     107A      1.287516   108A      1.308553   109A      1.310774
     110A      1.328997   111A      1.337285   112A      1.342080
     113A      1.415557   114A      1.466911   115A      1.479622
     116A      1.515754   117A      1.535575   118A      1.559450
     119A      1.600323   120A      1.617042   121A      1.674050
     122A      1.682450   123A      1.695359   124A      1.711590
     125A      1.739958   126A      1.748463   127A      1.763956
     128A      1.800503   129A      1.827449   130A      1.853100
     131A      1.871748   132A      1.880852   133A      1.888097
     134A      1.895892   135A      1.899753   136A      1.913483
     137A      1.920966   138A      1.934546   139A      1.935423
     140A      1.944567   141A      1.952095   142A      1.956083
     143A      1.966375   144A      1.968817   145A      1.974178
     146A      1.991550   147A      2.011678   148A      2.027752
     149A      2.050703   150A      2.063760   151A      2.081619
     152A      2.091311   153A      2.118064   154A      2.127489
     155A      2.136284   156A      2.157028   157A      2.199634
     158A      2.217750   159A      2.227684   160A      2.263299
     161A      2.269894   162A      2.297817   163A      2.298226
     164A      2.307282   165A      2.315883   166A      2.344875
     167A      2.361853   168A      2.446220   169A      2.453297
     170A      2.480391   171A      2.489936   172A      2.520935
     173A      2.555757   174A      2.560914   175A      2.587968
     176A      2.647061   177A      2.736104   178A      2.758211
     179A      2.774383   180A      2.788923   181A      2.795152
     182A      2.811353   183A      2.830690   184A      2.850473
     185A      2.857736   186A      2.863701   187A      2.886128
     188A      2.967434   189A      2.975820   190A      3.009176
     191A      3.029822   192A      3.048495   193A      3.182194
     194A      3.233644   195A      3.325479   196A      4.001410

    Final Occupation by Irrep:
              A
    DOCC [    34 ]

  @RHF Final Energy:  -348.98834410691052

   => Energetics <=

    Nuclear Repulsion Energy =            399.9859850035255135
    One-Electron Energy =               -1262.6020536180949421
    Two-Electron Energy =                 513.6277245076589679
    Total Energy =                       -348.9883441069105174

Computation Completed

Properties will be evaluated at   0.000000,   0.000000,   0.000000 [a0]

Properties computed using the SCF density matrix

  Nuclear Dipole Moment: [e a0]
     X:     8.1055      Y:     6.1755      Z:    -4.7425

  Electronic Dipole Moment: [e a0]
     X:    -8.0759      Y:    -6.2673      Z:     4.7233

  Dipole Moment: [e a0]
     X:     0.0296      Y:    -0.0917      Z:    -0.0192     Total:     0.0983

  Dipole Moment: [D]
     X:     0.0752      Y:    -0.2332      Z:    -0.0487     Total:     0.2498

*** tstop() called on ds3 at Tue Apr 28 11:00:44 2020
Module time:
	user time   =      58.40 seconds =       0.97 minutes
	system time =      27.35 seconds =       0.46 minutes
	total time  =         82 seconds =       1.37 minutes
Total time:
	user time   =      58.40 seconds =       0.97 minutes
	system time =      27.35 seconds =       0.46 minutes
	total time  =         82 seconds =       1.37 minutes
                                     G D M A

                                 by Anthony Stone

                           version 2.2.06, 22 June 2011

               Distributed Multipoles from Gaussian wavefunctions

Starting at 11:0:44 on 28 Apr 2020

Using SCF density matrix from file ./SSI/SSI-116PHE-130VAL-1-dimer.test.25134.fchk

                         Distributed Multipole Analysis

Standard DMA

Positions and radii in angstrom
Multipole moments in atomic units, ea_0^k for rank k

C          x = -0.683128  y = -3.359028  z =  1.019096 angstrom
           Maximum rank =  0   Radius =  0.650 angstrom
                   Q00  =  -0.204935

C          x =  0.269872  y =  0.152972  z =  0.071096 angstrom
           Maximum rank =  0   Radius =  0.650 angstrom
                   Q00  =   0.007652

C          x =  0.339872  y = -1.191028  z =  0.342096 angstrom
           Maximum rank =  0   Radius =  0.650 angstrom
                   Q00  =  -0.028187

C          x = -0.924128  y =  0.837972  z =  0.158096 angstrom
           Maximum rank =  0   Radius =  0.650 angstrom
                   Q00  =  -0.093499

C          x = -0.765128  y = -1.891028  z =  0.757096 angstrom
           Maximum rank =  0   Radius =  0.650 angstrom
                   Q00  =  -0.091653

C          x = -2.061128  y =  0.143972  z =  0.540096 angstrom
           Maximum rank =  0   Radius =  0.650 angstrom
                   Q00  =  -0.082463

C          x = -1.968128  y = -1.237028  z =  0.844096 angstrom
           Maximum rank =  0   Radius =  0.650 angstrom
                   Q00  =  -0.098922

H          x =  1.168872  y =  0.651972  z = -0.240904 angstrom
           Maximum rank =  0   Radius =  0.325 angstrom
                   Q00  =   0.062918

H          x =  1.288872  y = -1.695028  z =  0.229096 angstrom
           Maximum rank =  0   Radius =  0.325 angstrom
                   Q00  =   0.046892

H          x = -0.975128  y =  1.893972  z = -0.070904 angstrom
           Maximum rank =  0   Radius =  0.325 angstrom
                   Q00  =   0.057264

H          x = -3.013128  y =  0.654972  z =  0.608096 angstrom
           Maximum rank =  0   Radius =  0.325 angstrom
                   Q00  =   0.066679

H          x = -0.509128  y = -3.863028  z =  0.070096 angstrom
           Maximum rank =  0   Radius =  0.325 angstrom
                   Q00  =   0.101895

H          x = -1.657128  y = -3.692028  z =  1.364096 angstrom
           Maximum rank =  0   Radius =  0.325 angstrom
                   Q00  =   0.095025

H          x = -2.860128  y = -1.773028  z =  1.139096 angstrom
           Maximum rank =  0   Radius =  0.325 angstrom
                   Q00  =   0.058144

H          x =  0.081592  y = -3.663346  z =  1.748886 angstrom
           Maximum rank =  0   Radius =  0.325 angstrom
                   Q00  =   0.102844

C          x =  2.528872  y =  2.909972  z = -0.888904 angstrom
           Maximum rank =  0   Radius =  0.650 angstrom
                   Q00  =  -0.229239

C          x =  2.536872  y =  3.079972  z = -2.417904 angstrom
           Maximum rank =  0   Radius =  0.650 angstrom
                   Q00  =  -0.250945

H          x =  2.786872  y =  3.838972  z = -0.383904 angstrom
           Maximum rank =  0   Radius =  0.325 angstrom
                   Q00  =   0.084095

H          x =  1.518872  y =  2.671972  z = -0.568904 angstrom
           Maximum rank =  0   Radius =  0.325 angstrom
                   Q00  =   0.075849

H          x =  3.221872  y =  2.128972  z = -0.597904 angstrom
           Maximum rank =  0   Radius =  0.325 angstrom
                   Q00  =   0.079559

H          x =  1.813872  y =  3.860972  z = -2.658904 angstrom
           Maximum rank =  0   Radius =  0.325 angstrom
                   Q00  =   0.077469

H          x =  3.537412  y =  3.404609  z = -2.739664 angstrom
           Maximum rank =  0   Radius =  0.325 angstrom
                   Q00  =   0.079761

H          x =  2.242522  y =  2.167475  z = -2.957074 angstrom
           Maximum rank =  0   Radius =  0.325 angstrom
                   Q00  =   0.083799

Total multipoles referred to origin at
           x =   0.000000,  y =    0.000000,  z =    0.000000 angstrom
                   Q00  =  -0.000000

Finished at 11:0:44 on 28 Apr 2020

  DMA results are available in the Python driver through the
	  variable('DMA DISTRIBUTED MULTIPOLES')
  and
	  variable('DMA TOTAL MULTIPOLES')
  commands.

    Psi4 stopped on: Tuesday, 28 April 2020 11:00AM
    Psi4 wall time for execution: 0:01:22.80

*** Psi4 exiting successfully. Buy a developer a beer!
