                               Psi4 1.3.2 release

  ==> Input File <==

--------------------------------------------------------------------------
import numpy as np
set {scf_type pk
basis cc-pvdz
d_convergence 10
gdma_switch   0
gdma_limit    0
gdma_origin   [ 0.0,  0.0,  0.0 ]
}
molecule test {
    units Angstrom
    0 1
    --
    0 1
    C                0.145631109575778    -4.219233235343984     1.312382333890611
    C                1.033631109575778    -0.506233235343985    -0.717617666109389
    C                0.813631109575778    -0.543233235343985     0.650382333890611
    C                0.849631109575778    -1.666233235343985    -1.432617666109389
    C                0.516631109575778    -1.726233235343985     1.299382333890611
    C                0.560631109575778    -2.857233235343985    -0.786617666109389
    C                0.411631109575778    -2.914233235343985     0.594382333890611
    O                1.310631109575778     0.668766764656015    -1.330617666109389
    H                1.222631109575778     1.428766764656015    -0.753617666109389
    H                0.909631109575778     0.360766764656015     1.232382333890611
    H                0.990631109575778    -1.627233235343985    -2.494617666109389
    H                0.377631109575778    -1.721233235343985     2.372382333890611
    H                0.460631109575778    -3.762233235343985    -1.368617666109389
    H               -0.331368890424222    -4.920233235343984     0.626382333890611
    H               -0.544368890424222    -4.030233235343984     2.136382333890611
    H                1.071561109575778    -4.661944235343984     1.708192333890611
    C               -2.549368890424222     3.770766764656015     0.258382333890611
    C               -1.267368890424222     3.034766764656015     0.054382333890611
    O               -0.941368890424222     2.574766764656015    -1.032617666109389
    N               -0.516368890424222     2.915766764656015     1.111382333890611
    H               -2.962368890424222     4.062766764656016    -0.708617666109389
    H               -2.327368890424222     4.684766764656015     0.811382333890611
    H                0.396631109575778     2.505766764656015     1.025382333890611
    H               -0.798368890424222     3.336766764656016     1.984382333890611
    H               -3.279558890424222     3.168156764656015     0.818462333890611

}
e, wfn = energy('scf', return_wfn=True)
gdma(wfn)
dmavals = variable('DMA DISTRIBUTED MULTIPOLES')
charges = np.array(dmavals)
print(charges)
np.save('SSI-154TYR-207ASN-1-dimer.npy', np.array(charges))--------------------------------------------------------------------------

*** tstart() called on ds3
*** at Tue Apr 28 11:20:51 2020

   => Loading Basis Set <=

    Name: CC-PVDZ
    Role: ORBITAL
    Keyword: BASIS
    atoms 1-7, 17-18  entry C          line   138 file /theoryfs2/ds/metcalf/miniconda2/envs/tf2gpu/share/psi4/basis/cc-pvdz.gbs
    atoms 8, 19       entry O          line   198 file /theoryfs2/ds/metcalf/miniconda2/envs/tf2gpu/share/psi4/basis/cc-pvdz.gbs
    atoms 9-16, 21-25 entry H          line    22 file /theoryfs2/ds/metcalf/miniconda2/envs/tf2gpu/share/psi4/basis/cc-pvdz.gbs
    atoms 20          entry N          line   168 file /theoryfs2/ds/metcalf/miniconda2/envs/tf2gpu/share/psi4/basis/cc-pvdz.gbs

         ---------------------------------------------------------
                                   SCF
               by Justin Turney, Rob Parrish, Andy Simmonett
                          and Daniel G. A. Smith
                              RHF Reference
                        1 Threads,    500 MiB Core
         ---------------------------------------------------------

  ==> Geometry <==

    Molecular point group: c1
    Full point group: C1

    Geometry (in Angstrom), charge = 0, multiplicity = 1:

       Center              X                  Y                   Z               Mass
    ------------   -----------------  -----------------  -----------------  -----------------
         C            0.145631109576    -4.219233235344     1.312382333891    12.000000000000
         C            1.033631109576    -0.506233235344    -0.717617666109    12.000000000000
         C            0.813631109576    -0.543233235344     0.650382333891    12.000000000000
         C            0.849631109576    -1.666233235344    -1.432617666109    12.000000000000
         C            0.516631109576    -1.726233235344     1.299382333891    12.000000000000
         C            0.560631109576    -2.857233235344    -0.786617666109    12.000000000000
         C            0.411631109576    -2.914233235344     0.594382333891    12.000000000000
         O            1.310631109576     0.668766764656    -1.330617666109    15.994914619570
         H            1.222631109576     1.428766764656    -0.753617666109     1.007825032230
         H            0.909631109576     0.360766764656     1.232382333891     1.007825032230
         H            0.990631109576    -1.627233235344    -2.494617666109     1.007825032230
         H            0.377631109576    -1.721233235344     2.372382333891     1.007825032230
         H            0.460631109576    -3.762233235344    -1.368617666109     1.007825032230
         H           -0.331368890424    -4.920233235344     0.626382333891     1.007825032230
         H           -0.544368890424    -4.030233235344     2.136382333891     1.007825032230
         H            1.071561109576    -4.661944235344     1.708192333891     1.007825032230
         C           -2.549368890424     3.770766764656     0.258382333891    12.000000000000
         C           -1.267368890424     3.034766764656     0.054382333891    12.000000000000
         O           -0.941368890424     2.574766764656    -1.032617666109    15.994914619570
         N           -0.516368890424     2.915766764656     1.111382333891    14.003074004430
         H           -2.962368890424     4.062766764656    -0.708617666109     1.007825032230
         H           -2.327368890424     4.684766764656     0.811382333891     1.007825032230
         H            0.396631109576     2.505766764656     1.025382333891     1.007825032230
         H           -0.798368890424     3.336766764656     1.984382333891     1.007825032230
         H           -3.279558890424     3.168156764656     0.818462333891     1.007825032230

  Running in c1 symmetry.

  Rotational constants: A =      0.05780  B =      0.01263  C =      0.01145 [cm^-1]
  Rotational constants: A =   1732.74070  B =    378.69073  C =    343.35780 [MHz]
  Nuclear repulsion =  657.843090940361662

  Charge       = 0
  Multiplicity = 1
  Electrons    = 90
  Nalpha       = 45
  Nbeta        = 45

  ==> Algorithm <==

  SCF Algorithm Type is PK.
  DIIS enabled.
  MOM disabled.
  Fractional occupation disabled.
  Guess Type is SAD.
  Energy threshold   = 1.00e-06
  Density threshold  = 1.00e-10
  Integral threshold = 0.00e+00

  ==> Primary Basis <==

  Basis Set: CC-PVDZ
    Blend: CC-PVDZ
    Number of shells: 111
    Number of basis function: 233
    Number of Cartesian functions: 245
    Spherical Harmonics?: true
    Max angular momentum: 2

  ==> Pre-Iterations <==

   -------------------------------------------------------
    Irrep   Nso     Nmo     Nalpha   Nbeta   Ndocc  Nsocc
   -------------------------------------------------------
     A        233     233       0       0       0       0
   -------------------------------------------------------
    Total     233     233      45      45      45       0
   -------------------------------------------------------

  ==> Integral Setup <==

  Using integral reordering PK algorithm.
  Sizing the integral batches needed.
  Building batch lookup table.
   Calculation information:
      Number of atoms:                  25
      Number of AO shells:             111
      Number of primitives:            329
      Number of atomic orbitals:       245
      Number of basis functions:       233

      Integral cutoff                 1.00e-12
      Number of threads:                 1

	Batch   1 pq = [       0,    9405] index = [             0,44231715] size =     44231715
	Batch   2 pq = [    9405,   13301] index = [      44231715,88464951] size =     44233236
	Batch   3 pq = [   13301,   16290] index = [      88464951,132690195] size =     44225244
	Batch   4 pq = [   16290,   18810] index = [     132690195,176917455] size =     44227260
	Batch   5 pq = [   18810,   21030] index = [     176917455,221140965] size =     44223510
	Batch   6 pq = [   21030,   23037] index = [     221140965,265363203] size =     44222238
	Batch   7 pq = [   23037,   24883] index = [     265363203,309594286] size =     44231083
	Batch   8 pq = [   24883,   26601] index = [     309594286,353819901] size =     44225615
	Batch   9 pq = [   26601,   27261] index = [     353819901,371594691] size =     17774790
  Task number: 34
  Buffer size: 11059200
  Buffer per thread: 2
  We computed 15831072 shell quartets total.
  Whereas there are 19322436 unique shell quartets.

  ==> DiskJK: Disk-Based J/K Matrices <==

    J tasked:                  Yes
    K tasked:                  Yes
    wK tasked:                  No
    Memory [MiB]:              375
    Schwarz Cutoff:          1E-12

    OpenMP threads:              1

  Minimum eigenvalue in the overlap matrix is 3.1221716405E-04.
  Using Symmetric Orthogonalization.

  SCF Guess: Superposition of Atomic Densities via on-the-fly atomic UHF.

  ==> Iterations <==

                        Total Energy        Delta E     RMS |[F,P]|

   @RHF iter SAD:  -551.51759915187642   -5.51518e+02   0.00000e+00
   @RHF iter   1:  -552.28273676235062   -7.65138e-01   3.24154e-03 DIIS
   @RHF iter   2:  -552.54539234027584   -2.62656e-01   1.68195e-03 DIIS
   @RHF iter   3:  -552.60595843065335   -6.05661e-02   3.89759e-04 DIIS
   @RHF iter   4:  -552.61065893958823   -4.70051e-03   1.57774e-04 DIIS
   @RHF iter   5:  -552.61145081589598   -7.91876e-04   2.42421e-05 DIIS
   @RHF iter   6:  -552.61149106573896   -4.02498e-05   1.12135e-05 DIIS
   @RHF iter   7:  -552.61149798101826   -6.91528e-06   4.43916e-06 DIIS
   @RHF iter   8:  -552.61149942522979   -1.44421e-06   1.79773e-06 DIIS
   @RHF iter   9:  -552.61149963603657   -2.10807e-07   6.70801e-07 DIIS
   @RHF iter  10:  -552.61149966622065   -3.01841e-08   2.12207e-07 DIIS
   @RHF iter  11:  -552.61149966951348   -3.29283e-09   6.42257e-08 DIIS
   @RHF iter  12:  -552.61149966982236   -3.08887e-10   2.97928e-08 DIIS
   @RHF iter  13:  -552.61149966989387   -7.15090e-11   1.19944e-08 DIIS
   @RHF iter  14:  -552.61149966991172   -1.78488e-11   5.56366e-09 DIIS
   @RHF iter  15:  -552.61149966991684   -5.11591e-12   2.24972e-09 DIIS
   @RHF iter  16:  -552.61149966991616    6.82121e-13   6.71464e-10 DIIS
   @RHF iter  17:  -552.61149966991718   -1.02318e-12   2.52721e-10 DIIS
   @RHF iter  18:  -552.61149966991889   -1.70530e-12   7.84441e-11 DIIS
  Energy and wave function converged.

  ==> Post-Iterations <==

    Orbital Energies [Eh]
    ---------------------

    Doubly Occupied:

       1A    -20.564241     2A    -20.511592     3A    -15.600748
       4A    -11.351419     5A    -11.285540     6A    -11.245979
       7A    -11.228880     8A    -11.227961     9A    -11.224593
      10A    -11.223789    11A    -11.222392    12A    -11.215866
      13A     -1.387110    14A     -1.382341    15A     -1.237531
      16A     -1.147454    17A     -1.031932    18A     -1.012837
      19A     -1.010947    20A     -0.921726    21A     -0.837329
      22A     -0.816716    23A     -0.795339    24A     -0.745132
      25A     -0.726117    26A     -0.665694    27A     -0.660035
      28A     -0.634433    29A     -0.627152    30A     -0.601543
      31A     -0.581093    32A     -0.576692    33A     -0.574607
      34A     -0.563803    35A     -0.561901    36A     -0.554618
      37A     -0.533354    38A     -0.519735    39A     -0.491171
      40A     -0.473342    41A     -0.460161    42A     -0.418983
      43A     -0.415292    44A     -0.331634    45A     -0.293495

    Virtual:

      46A      0.140532    47A      0.148947    48A      0.167131
      49A      0.185781    50A      0.190067    51A      0.193797
      52A      0.221581    53A      0.225262    54A      0.230142
      55A      0.254041    56A      0.265249    57A      0.269402
      58A      0.275851    59A      0.286314    60A      0.296712
      61A      0.348349    62A      0.375626    63A      0.384714
      64A      0.393756    65A      0.447445    66A      0.463123
      67A      0.466324    68A      0.495806    69A      0.506368
      70A      0.517504    71A      0.546967    72A      0.612981
      73A      0.625946    74A      0.638350    75A      0.640304
      76A      0.654719    77A      0.670932    78A      0.691492
      79A      0.694372    80A      0.703201    81A      0.716549
      82A      0.722571    83A      0.731309    84A      0.734255
      85A      0.744205    86A      0.751208    87A      0.762505
      88A      0.782412    89A      0.791851    90A      0.798190
      91A      0.808485    92A      0.835317    93A      0.846509
      94A      0.854487    95A      0.856750    96A      0.865807
      97A      0.883119    98A      0.887986    99A      0.895132
     100A      0.900733   101A      0.912178   102A      0.917451
     103A      0.938733   104A      0.941750   105A      0.945538
     106A      0.946465   107A      0.969579   108A      1.001280
     109A      1.013701   110A      1.030790   111A      1.054720
     112A      1.059311   113A      1.107382   114A      1.121373
     115A      1.130269   116A      1.140075   117A      1.157875
     118A      1.161931   119A      1.177834   120A      1.209709
     121A      1.248786   122A      1.261797   123A      1.266774
     124A      1.286853   125A      1.302519   126A      1.321177
     127A      1.324710   128A      1.342206   129A      1.370163
     130A      1.380980   131A      1.386164   132A      1.393718
     133A      1.402698   134A      1.420043   135A      1.443423
     136A      1.479825   137A      1.502767   138A      1.520614
     139A      1.538769   140A      1.559986   141A      1.578501
     142A      1.627672   143A      1.645439   144A      1.650475
     145A      1.668456   146A      1.676577   147A      1.705056
     148A      1.723503   149A      1.740593   150A      1.756400
     151A      1.794579   152A      1.808141   153A      1.818736
     154A      1.828945   155A      1.857902   156A      1.869568
     157A      1.886106   158A      1.894676   159A      1.902500
     160A      1.904306   161A      1.918259   162A      1.924005
     163A      1.932489   164A      1.934118   165A      1.963808
     166A      1.967153   167A      1.972030   168A      1.978994
     169A      1.990094   170A      1.997707   171A      2.031743
     172A      2.047670   173A      2.058264   174A      2.062909
     175A      2.087642   176A      2.096969   177A      2.102652
     178A      2.146389   179A      2.159123   180A      2.167504
     181A      2.175717   182A      2.213342   183A      2.234533
     184A      2.239502   185A      2.261605   186A      2.275156
     187A      2.288255   188A      2.306921   189A      2.337788
     190A      2.387240   191A      2.413771   192A      2.428682
     193A      2.449817   194A      2.480901   195A      2.482268
     196A      2.490928   197A      2.522003   198A      2.544142
     199A      2.553987   200A      2.563638   201A      2.591626
     202A      2.604019   203A      2.613986   204A      2.664776
     205A      2.728973   206A      2.748254   207A      2.763145
     208A      2.776731   209A      2.782261   210A      2.803413
     211A      2.834807   212A      2.841141   213A      2.886161
     214A      2.912891   215A      2.982260   216A      3.007382
     217A      3.031041   218A      3.093193   219A      3.111392
     220A      3.123466   221A      3.142192   222A      3.274589
     223A      3.282977   224A      3.322667   225A      3.388852
     226A      3.508829   227A      3.555556   228A      3.600056
     229A      3.701257   230A      3.870590   231A      3.934944
     232A      4.017031   233A      4.233813

    Final Occupation by Irrep:
              A
    DOCC [    45 ]

  @RHF Final Energy:  -552.61149966991889

   => Energetics <=

    Nuclear Repulsion Energy =            657.8430909403616624
    One-Electron Energy =               -2057.9206895100251131
    Two-Electron Energy =                 847.4660988997445656
    Total Energy =                       -552.6114996699188850

Computation Completed

Properties will be evaluated at   0.000000,   0.000000,   0.000000 [a0]

Properties computed using the SCF density matrix

  Nuclear Dipole Moment: [e a0]
     X:    -4.5098      Y:    -1.0947      Z:     6.9132

  Electronic Dipole Moment: [e a0]
     X:     4.1084      Y:     1.9578      Z:    -4.9000

  Dipole Moment: [e a0]
     X:    -0.4013      Y:     0.8631      Z:     2.0132     Total:     2.2268

  Dipole Moment: [D]
     X:    -1.0201      Y:     2.1937      Z:     5.1170     Total:     5.6601

*** tstop() called on ds3 at Tue Apr 28 11:23:55 2020
Module time:
	user time   =     130.99 seconds =       2.18 minutes
	system time =      60.84 seconds =       1.01 minutes
	total time  =        184 seconds =       3.07 minutes
Total time:
	user time   =     130.99 seconds =       2.18 minutes
	system time =      60.84 seconds =       1.01 minutes
	total time  =        184 seconds =       3.07 minutes
                                     G D M A

                                 by Anthony Stone

                           version 2.2.06, 22 June 2011

               Distributed Multipoles from Gaussian wavefunctions

Starting at 11:23:56 on 28 Apr 2020

Using SCF density matrix from file ./SSI/SSI-154TYR-207ASN-1-dimer.test.15461.fchk

                         Distributed Multipole Analysis

Standard DMA

Positions and radii in angstrom
Multipole moments in atomic units, ea_0^k for rank k

C          x =  0.145631  y = -4.219233  z =  1.312382 angstrom
           Maximum rank =  0   Radius =  0.650 angstrom
                   Q00  =  -0.195646

C          x =  1.033631  y = -0.506233  z = -0.717618 angstrom
           Maximum rank =  0   Radius =  0.650 angstrom
                   Q00  =   0.319586

C          x =  0.813631  y = -0.543233  z =  0.650382 angstrom
           Maximum rank =  0   Radius =  0.650 angstrom
                   Q00  =  -0.099573

C          x =  0.849631  y = -1.666233  z = -1.432618 angstrom
           Maximum rank =  0   Radius =  0.650 angstrom
                   Q00  =  -0.125155

C          x =  0.516631  y = -1.726233  z =  1.299382 angstrom
           Maximum rank =  0   Radius =  0.650 angstrom
                   Q00  =  -0.055907

C          x =  0.560631  y = -2.857233  z = -0.786618 angstrom
           Maximum rank =  0   Radius =  0.650 angstrom
                   Q00  =   0.034331

C          x =  0.411631  y = -2.914233  z =  0.594382 angstrom
           Maximum rank =  0   Radius =  0.650 angstrom
                   Q00  =  -0.144773

O          x =  1.310631  y =  0.668767  z = -1.330618 angstrom
           Maximum rank =  0   Radius =  0.650 angstrom
                   Q00  =  -0.677590

H          x =  1.222631  y =  1.428767  z = -0.753618 angstrom
           Maximum rank =  0   Radius =  0.325 angstrom
                   Q00  =   0.413786

H          x =  0.909631  y =  0.360767  z =  1.232382 angstrom
           Maximum rank =  0   Radius =  0.325 angstrom
                   Q00  =   0.039036

H          x =  0.990631  y = -1.627233  z = -2.494618 angstrom
           Maximum rank =  0   Radius =  0.325 angstrom
                   Q00  =   0.078854

H          x =  0.377631  y = -1.721233  z =  2.372382 angstrom
           Maximum rank =  0   Radius =  0.325 angstrom
                   Q00  =   0.059373

H          x =  0.460631  y = -3.762233  z = -1.368618 angstrom
           Maximum rank =  0   Radius =  0.325 angstrom
                   Q00  =   0.058346

H          x = -0.331369  y = -4.920233  z =  0.626382 angstrom
           Maximum rank =  0   Radius =  0.325 angstrom
                   Q00  =   0.097616

H          x = -0.544369  y = -4.030233  z =  2.136382 angstrom
           Maximum rank =  0   Radius =  0.325 angstrom
                   Q00  =   0.093425

H          x =  1.071561  y = -4.661944  z =  1.708192 angstrom
           Maximum rank =  0   Radius =  0.325 angstrom
                   Q00  =   0.098770

C          x = -2.549369  y =  3.770767  z =  0.258382 angstrom
           Maximum rank =  0   Radius =  0.650 angstrom
                   Q00  =  -0.258555

C          x = -1.267369  y =  3.034767  z =  0.054382 angstrom
           Maximum rank =  0   Radius =  0.650 angstrom
                   Q00  =   0.821579

O          x = -0.941369  y =  2.574767  z = -1.032618 angstrom
           Maximum rank =  0   Radius =  0.650 angstrom
                   Q00  =  -0.802988

N          x = -0.516369  y =  2.915767  z =  1.111382 angstrom
           Maximum rank =  0   Radius =  0.650 angstrom
                   Q00  =  -0.511559

H          x = -2.962369  y =  4.062767  z = -0.708618 angstrom
           Maximum rank =  0   Radius =  0.325 angstrom
                   Q00  =   0.132810

H          x = -2.327369  y =  4.684767  z =  0.811382 angstrom
           Maximum rank =  0   Radius =  0.325 angstrom
                   Q00  =   0.088026

H          x =  0.396631  y =  2.505767  z =  1.025382 angstrom
           Maximum rank =  0   Radius =  0.325 angstrom
                   Q00  =   0.206216

H          x = -0.798369  y =  3.336767  z =  1.984382 angstrom
           Maximum rank =  0   Radius =  0.325 angstrom
                   Q00  =   0.206382

H          x = -3.279559  y =  3.168157  z =  0.818462 angstrom
           Maximum rank =  0   Radius =  0.325 angstrom
                   Q00  =   0.123610

Total multipoles referred to origin at
           x =   0.000000,  y =    0.000000,  z =    0.000000 angstrom
                   Q00  =  -0.000000

Finished at 11:23:56 on 28 Apr 2020

  DMA results are available in the Python driver through the
	  variable('DMA DISTRIBUTED MULTIPOLES')
  and
	  variable('DMA TOTAL MULTIPOLES')
  commands.

    Psi4 stopped on: Tuesday, 28 April 2020 11:23AM
    Psi4 wall time for execution: 0:03:04.23

*** Psi4 exiting successfully. Buy a developer a beer!
