                               Psi4 1.3.2 release

  ==> Input File <==

--------------------------------------------------------------------------
import numpy as np
set {scf_type pk
basis cc-pvdz
d_convergence 10
gdma_switch   0
gdma_limit    0
gdma_origin   [ 0.0,  0.0,  0.0 ]
}
molecule test {
    units Angstrom
    0 1
    --
    0 1
    C               -2.002311401413262    -2.305717229087250    -1.822643526728901
    C               -0.033311401413262    -0.136717229087250     0.548356473271099
    C               -1.274311401413262    -0.530717229087250    -0.016643526728901
    C               -0.998311401413262    -1.564717229087250    -0.978643526728901
    C                0.355688598586738    -1.745717229087250    -0.960643526728901
    C                0.060688598586738     0.844282770912750     1.522356473271099
    C               -1.108311401413263     1.455282770912750     1.936356473271099
    C               -2.443311401413263     0.098282770912750     0.428356473271099
    C               -2.347311401413263     1.088282770912750     1.401356473271099
    N                0.934688598586738    -0.893717229087250    -0.052643526728901
    H                1.936688598586737    -0.860717229087250     0.132356473271099
    H                1.016688598586738     1.124282770912750     1.940356473271099
    H                0.892688598586738    -2.457717229087250    -1.578643526728901
    H               -1.064311401413262     2.229282770912751     2.692356473271099
    H               -3.396311401413262    -0.167717229087250     0.001356473271099
    H               -2.761311401413262    -2.735717229087250    -1.168643526728901
    H               -1.480311401413263    -3.135717229087250    -2.299643526728901
    H               -3.243311401413262     1.586282770912750     1.748356473271099
    H               -2.499413401413263    -1.698866229087250    -2.593760526728901
    C                3.277688598586737     1.406282770912750    -0.347643526728901
    C                4.378688598586738     2.067282770912750    -1.177643526728901
    H                3.727688598586738     0.630282770912750     0.245356473271099
    H                2.846688598586737     2.125282770912750     0.350356473271099
    H                2.493688598586738     1.019282770912750    -0.996643526728901
    H                5.274688598586738     2.136282770912751    -0.562643526728901
    H                4.592728598586738     1.477588770912750    -2.081218526728901
    H                4.090768598586737     3.095172770912750    -1.443252526728901

}
e, wfn = energy('scf', return_wfn=True)
gdma(wfn)
dmavals = variable('DMA DISTRIBUTED MULTIPOLES')
charges = np.array(dmavals)
print(charges)
np.save('SSI-022TRP-059VAL-1-dimer.npy', np.array(charges))--------------------------------------------------------------------------

*** tstart() called on ds3
*** at Tue Apr 28 14:25:22 2020

   => Loading Basis Set <=

    Name: CC-PVDZ
    Role: ORBITAL
    Keyword: BASIS
    atoms 1-9, 20-21   entry C          line   138 file /theoryfs2/ds/metcalf/miniconda2/envs/tf2gpu/share/psi4/basis/cc-pvdz.gbs
    atoms 10           entry N          line   168 file /theoryfs2/ds/metcalf/miniconda2/envs/tf2gpu/share/psi4/basis/cc-pvdz.gbs
    atoms 11-19, 22-27 entry H          line    22 file /theoryfs2/ds/metcalf/miniconda2/envs/tf2gpu/share/psi4/basis/cc-pvdz.gbs

         ---------------------------------------------------------
                                   SCF
               by Justin Turney, Rob Parrish, Andy Simmonett
                          and Daniel G. A. Smith
                              RHF Reference
                        1 Threads,    500 MiB Core
         ---------------------------------------------------------

  ==> Geometry <==

    Molecular point group: c1
    Full point group: C1

    Geometry (in Angstrom), charge = 0, multiplicity = 1:

       Center              X                  Y                   Z               Mass
    ------------   -----------------  -----------------  -----------------  -----------------
         C           -2.002311401413    -2.305717229087    -1.822643526729    12.000000000000
         C           -0.033311401413    -0.136717229087     0.548356473271    12.000000000000
         C           -1.274311401413    -0.530717229087    -0.016643526729    12.000000000000
         C           -0.998311401413    -1.564717229087    -0.978643526729    12.000000000000
         C            0.355688598587    -1.745717229087    -0.960643526729    12.000000000000
         C            0.060688598587     0.844282770913     1.522356473271    12.000000000000
         C           -1.108311401413     1.455282770913     1.936356473271    12.000000000000
         C           -2.443311401413     0.098282770913     0.428356473271    12.000000000000
         C           -2.347311401413     1.088282770913     1.401356473271    12.000000000000
         N            0.934688598587    -0.893717229087    -0.052643526729    14.003074004430
         H            1.936688598587    -0.860717229087     0.132356473271     1.007825032230
         H            1.016688598587     1.124282770913     1.940356473271     1.007825032230
         H            0.892688598587    -2.457717229087    -1.578643526729     1.007825032230
         H           -1.064311401413     2.229282770913     2.692356473271     1.007825032230
         H           -3.396311401413    -0.167717229087     0.001356473271     1.007825032230
         H           -2.761311401413    -2.735717229087    -1.168643526729     1.007825032230
         H           -1.480311401413    -3.135717229087    -2.299643526729     1.007825032230
         H           -3.243311401413     1.586282770913     1.748356473271     1.007825032230
         H           -2.499413401413    -1.698866229087    -2.593760526729     1.007825032230
         C            3.277688598587     1.406282770913    -0.347643526729    12.000000000000
         C            4.378688598587     2.067282770913    -1.177643526729    12.000000000000
         H            3.727688598587     0.630282770913     0.245356473271     1.007825032230
         H            2.846688598587     2.125282770913     0.350356473271     1.007825032230
         H            2.493688598587     1.019282770913    -0.996643526729     1.007825032230
         H            5.274688598587     2.136282770913    -0.562643526729     1.007825032230
         H            4.592728598587     1.477588770913    -2.081218526729     1.007825032230
         H            4.090768598587     3.095172770913    -1.443252526729     1.007825032230

  Running in c1 symmetry.

  Rotational constants: A =      0.03779  B =      0.01888  C =      0.01354 [cm^-1]
  Rotational constants: A =   1133.03133  B =    566.12612  C =    405.90966 [MHz]
  Nuclear repulsion =  653.463607352957638

  Charge       = 0
  Multiplicity = 1
  Electrons    = 88
  Nalpha       = 44
  Nbeta        = 44

  ==> Algorithm <==

  SCF Algorithm Type is PK.
  DIIS enabled.
  MOM disabled.
  Fractional occupation disabled.
  Guess Type is SAD.
  Energy threshold   = 1.00e-06
  Density threshold  = 1.00e-10
  Integral threshold = 0.00e+00

  ==> Primary Basis <==

  Basis Set: CC-PVDZ
    Blend: CC-PVDZ
    Number of shells: 117
    Number of basis function: 243
    Number of Cartesian functions: 255
    Spherical Harmonics?: true
    Max angular momentum: 2

  ==> Pre-Iterations <==

   -------------------------------------------------------
    Irrep   Nso     Nmo     Nalpha   Nbeta   Ndocc  Nsocc
   -------------------------------------------------------
     A        243     243       0       0       0       0
   -------------------------------------------------------
    Total     243     243      44      44      44       0
   -------------------------------------------------------

  ==> Integral Setup <==

  Using integral reordering PK algorithm.
  Sizing the integral batches needed.
  Building batch lookup table.
   Calculation information:
      Number of atoms:                  27
      Number of AO shells:             117
      Number of primitives:            339
      Number of atomic orbitals:       255
      Number of basis functions:       243

      Integral cutoff                 1.00e-12
      Number of threads:                 1

	Batch   1 pq = [       0,    9405] index = [             0,44231715] size =     44231715
	Batch   2 pq = [    9405,   13301] index = [      44231715,88464951] size =     44233236
	Batch   3 pq = [   13301,   16290] index = [      88464951,132690195] size =     44225244
	Batch   4 pq = [   16290,   18810] index = [     132690195,176917455] size =     44227260
	Batch   5 pq = [   18810,   21030] index = [     176917455,221140965] size =     44223510
	Batch   6 pq = [   21030,   23037] index = [     221140965,265363203] size =     44222238
	Batch   7 pq = [   23037,   24883] index = [     265363203,309594286] size =     44231083
	Batch   8 pq = [   24883,   26601] index = [     309594286,353819901] size =     44225615
	Batch   9 pq = [   26601,   28214] index = [     353819901,398029005] size =     44209104
	Batch  10 pq = [   28214,   29646] index = [     398029005,439457481] size =     41428476
  Task number: 40
  Buffer size: 11059200
  Buffer per thread: 2
  We computed 21100858 shell quartets total.
  Whereas there are 23829156 unique shell quartets.

  ==> DiskJK: Disk-Based J/K Matrices <==

    J tasked:                  Yes
    K tasked:                  Yes
    wK tasked:                  No
    Memory [MiB]:              375
    Schwarz Cutoff:          1E-12

    OpenMP threads:              1

  Minimum eigenvalue in the overlap matrix is 2.3764041632E-04.
  Using Symmetric Orthogonalization.

  SCF Guess: Superposition of Atomic Densities via on-the-fly atomic UHF.

  ==> Iterations <==

                        Total Energy        Delta E     RMS |[F,P]|

   @RHF iter SAD:  -479.07167025992044   -4.79072e+02   0.00000e+00
   @RHF iter   1:  -479.48791874745484   -4.16248e-01   2.60365e-03 DIIS
   @RHF iter   2:  -479.71946379424111   -2.31545e-01   1.16041e-03 DIIS
   @RHF iter   3:  -479.76142625237014   -4.19625e-02   3.07430e-04 DIIS
   @RHF iter   4:  -479.76529797311991   -3.87172e-03   1.41290e-04 DIIS
   @RHF iter   5:  -479.76596432809640   -6.66355e-04   2.00630e-05 DIIS
   @RHF iter   6:  -479.76599333106793   -2.90030e-05   9.26245e-06 DIIS
   @RHF iter   7:  -479.76599920128416   -5.87022e-06   3.73490e-06 DIIS
   @RHF iter   8:  -479.76600076664988   -1.56537e-06   1.46491e-06 DIIS
   @RHF iter   9:  -479.76600107157446   -3.04925e-07   6.37453e-07 DIIS
   @RHF iter  10:  -479.76600113064853   -5.90741e-08   2.92965e-07 DIIS
   @RHF iter  11:  -479.76600114584886   -1.52003e-08   1.13185e-07 DIIS
   @RHF iter  12:  -479.76600114810623   -2.25737e-09   3.72607e-08 DIIS
   @RHF iter  13:  -479.76600114826334   -1.57115e-10   9.89892e-09 DIIS
   @RHF iter  14:  -479.76600114827778   -1.44382e-11   3.83547e-09 DIIS
   @RHF iter  15:  -479.76600114828000   -2.21689e-12   1.81102e-09 DIIS
   @RHF iter  16:  -479.76600114827983    1.70530e-13   9.03499e-10 DIIS
   @RHF iter  17:  -479.76600114828136   -1.53477e-12   3.30479e-10 DIIS
   @RHF iter  18:  -479.76600114828420   -2.84217e-12   1.58673e-10 DIIS
   @RHF iter  19:  -479.76600114828005    4.14957e-12   4.80381e-11 DIIS
  Energy and wave function converged.

  ==> Post-Iterations <==

    Orbital Energies [Eh]
    ---------------------

    Doubly Occupied:

       1A    -15.599414     2A    -11.263769     3A    -11.261608
       4A    -11.228675     5A    -11.227894     6A    -11.227028
       7A    -11.226583     8A    -11.224066     9A    -11.222478
      10A    -11.219443    11A    -11.218941    12A    -11.217663
      13A     -1.294295    14A     -1.127775    15A     -1.070442
      16A     -1.026641    17A     -0.996192    18A     -0.986368
      19A     -0.929261    20A     -0.846401    21A     -0.838016
      22A     -0.801827    23A     -0.751454    24A     -0.718358
      25A     -0.661532    26A     -0.640723    27A     -0.610994
      28A     -0.605001    29A     -0.600685    30A     -0.589469
      31A     -0.588716    32A     -0.565288    33A     -0.551903
      34A     -0.537043    35A     -0.526474    36A     -0.505561
      37A     -0.494812    38A     -0.493470    39A     -0.490465
      40A     -0.468479    41A     -0.460266    42A     -0.370982
      43A     -0.294112    44A     -0.273935

    Virtual:

      45A      0.127169    46A      0.170840    47A      0.172346
      48A      0.188961    49A      0.196524    50A      0.201541
      51A      0.222698    52A      0.225425    53A      0.232176
      54A      0.245790    55A      0.253647    56A      0.264375
      57A      0.275663    58A      0.277780    59A      0.286405
      60A      0.288380    61A      0.311013    62A      0.315643
      63A      0.369435    64A      0.382685    65A      0.390481
      66A      0.414500    67A      0.434439    68A      0.447494
      69A      0.476685    70A      0.488383    71A      0.501012
      72A      0.514794    73A      0.588422    74A      0.590764
      75A      0.597015    76A      0.613862    77A      0.626179
      78A      0.634792    79A      0.643647    80A      0.669006
      81A      0.678035    82A      0.703904    83A      0.705708
      84A      0.713412    85A      0.724854    86A      0.731037
      87A      0.740422    88A      0.744579    89A      0.750327
      90A      0.758088    91A      0.766454    92A      0.782096
      93A      0.786854    94A      0.791559    95A      0.800209
      96A      0.838327    97A      0.847099    98A      0.870087
      99A      0.878068   100A      0.880501   101A      0.883597
     102A      0.884481   103A      0.894060   104A      0.896773
     105A      0.905899   106A      0.908349   107A      0.919596
     108A      0.920235   109A      0.948337   110A      0.950224
     111A      0.961907   112A      0.980422   113A      0.982521
     114A      0.988428   115A      0.991295   116A      1.035699
     117A      1.068276   118A      1.080909   119A      1.103903
     120A      1.113999   121A      1.128772   122A      1.131681
     123A      1.139538   124A      1.159044   125A      1.170665
     126A      1.192828   127A      1.212063   128A      1.217057
     129A      1.228414   130A      1.241601   131A      1.247408
     132A      1.257940   133A      1.280577   134A      1.301172
     135A      1.303719   136A      1.330686   137A      1.333377
     138A      1.366786   139A      1.375915   140A      1.400560
     141A      1.444608   142A      1.478146   143A      1.489979
     144A      1.532353   145A      1.555426   146A      1.580401
     147A      1.586478   148A      1.598476   149A      1.630642
     150A      1.645417   151A      1.657781   152A      1.678625
     153A      1.682085   154A      1.692858   155A      1.703262
     156A      1.741641   157A      1.765777   158A      1.779896
     159A      1.791692   160A      1.805499   161A      1.820930
     162A      1.825673   163A      1.857736   164A      1.868294
     165A      1.885122   166A      1.887191   167A      1.903847
     168A      1.911155   169A      1.913486   170A      1.924210
     171A      1.929665   172A      1.933420   173A      1.940866
     174A      1.942555   175A      1.947126   176A      1.956920
     177A      1.971241   178A      1.984636   179A      1.999153
     180A      2.016968   181A      2.027746   182A      2.040755
     183A      2.055385   184A      2.080599   185A      2.088401
     186A      2.099375   187A      2.105250   188A      2.118104
     189A      2.120835   190A      2.142248   191A      2.149440
     192A      2.157090   193A      2.168812   194A      2.174762
     195A      2.190875   196A      2.226218   197A      2.242564
     198A      2.285007   199A      2.291127   200A      2.306157
     201A      2.317993   202A      2.325013   203A      2.343138
     204A      2.365522   205A      2.395463   206A      2.420469
     207A      2.425544   208A      2.444600   209A      2.457372
     210A      2.473971   211A      2.541618   212A      2.583502
     213A      2.592636   214A      2.601946   215A      2.616306
     216A      2.642281   217A      2.659124   218A      2.685581
     219A      2.696866   220A      2.758874   221A      2.768344
     222A      2.776570   223A      2.787161   224A      2.801276
     225A      2.810979   226A      2.827327   227A      2.834648
     228A      2.848005   229A      2.878598   230A      2.881043
     231A      2.908873   232A      2.951785   233A      2.958358
     234A      2.969217   235A      3.033186   236A      3.062986
     237A      3.077851   238A      3.127181   239A      3.206555
     240A      3.309623   241A      3.381647   242A      3.743917
     243A      3.958408

    Final Occupation by Irrep:
              A
    DOCC [    44 ]

  @RHF Final Energy:  -479.76600114828005

   => Energetics <=

    Nuclear Repulsion Energy =            653.4636073529576379
    One-Electron Energy =               -1944.7502134016626769
    Two-Electron Energy =                 811.5206049004248143
    Total Energy =                       -479.7660011482801110

Computation Completed

Properties will be evaluated at   0.000000,   0.000000,   0.000000 [a0]

Properties computed using the SCF density matrix

  Nuclear Dipole Moment: [e a0]
     X:    11.6475      Y:     4.0968      Z:    -5.2628

  Electronic Dipole Moment: [e a0]
     X:   -10.9039      Y:    -4.3298      Z:     5.0827

  Dipole Moment: [e a0]
     X:     0.7436      Y:    -0.2330      Z:    -0.1801     Total:     0.7998

  Dipole Moment: [D]
     X:     1.8900      Y:    -0.5922      Z:    -0.4578     Total:     2.0329

*** tstop() called on ds3 at Tue Apr 28 14:30:03 2020
Module time:
	user time   =     174.64 seconds =       2.91 minutes
	system time =      73.33 seconds =       1.22 minutes
	total time  =        281 seconds =       4.68 minutes
Total time:
	user time   =     174.64 seconds =       2.91 minutes
	system time =      73.33 seconds =       1.22 minutes
	total time  =        281 seconds =       4.68 minutes
                                     G D M A

                                 by Anthony Stone

                           version 2.2.06, 22 June 2011

               Distributed Multipoles from Gaussian wavefunctions

Starting at 14:30:3 on 28 Apr 2020

Using SCF density matrix from file ./SSI/SSI-022TRP-059VAL-1-dimer.test.23378.fchk

                         Distributed Multipole Analysis

Standard DMA

Positions and radii in angstrom
Multipole moments in atomic units, ea_0^k for rank k

C          x = -2.002311  y = -2.305717  z = -1.822644 angstrom
           Maximum rank =  0   Radius =  0.650 angstrom
                   Q00  =  -0.204854

C          x = -0.033311  y = -0.136717  z =  0.548356 angstrom
           Maximum rank =  0   Radius =  0.650 angstrom
                   Q00  =   0.275753

C          x = -1.274311  y = -0.530717  z = -0.016644 angstrom
           Maximum rank =  0   Radius =  0.650 angstrom
                   Q00  =  -0.051155

C          x = -0.998311  y = -1.564717  z = -0.978644 angstrom
           Maximum rank =  0   Radius =  0.650 angstrom
                   Q00  =  -0.130372

C          x =  0.355689  y = -1.745717  z = -0.960644 angstrom
           Maximum rank =  0   Radius =  0.650 angstrom
                   Q00  =   0.071268

C          x =  0.060689  y =  0.844283  z =  1.522356 angstrom
           Maximum rank =  0   Radius =  0.650 angstrom
                   Q00  =  -0.120924

C          x = -1.108311  y =  1.455283  z =  1.936356 angstrom
           Maximum rank =  0   Radius =  0.650 angstrom
                   Q00  =  -0.029976

C          x = -2.443311  y =  0.098283  z =  0.428356 angstrom
           Maximum rank =  0   Radius =  0.650 angstrom
                   Q00  =  -0.095603

C          x = -2.347311  y =  1.088283  z =  1.401356 angstrom
           Maximum rank =  0   Radius =  0.650 angstrom
                   Q00  =  -0.106468

N          x =  0.934689  y = -0.893717  z = -0.052644 angstrom
           Maximum rank =  0   Radius =  0.650 angstrom
                   Q00  =  -0.492102

H          x =  1.936689  y = -0.860717  z =  0.132356 angstrom
           Maximum rank =  0   Radius =  0.325 angstrom
                   Q00  =   0.226392

H          x =  1.016689  y =  1.124283  z =  1.940356 angstrom
           Maximum rank =  0   Radius =  0.325 angstrom
                   Q00  =   0.073860

H          x =  0.892689  y = -2.457717  z = -1.578644 angstrom
           Maximum rank =  0   Radius =  0.325 angstrom
                   Q00  =   0.100379

H          x = -1.064311  y =  2.229283  z =  2.692356 angstrom
           Maximum rank =  0   Radius =  0.325 angstrom
                   Q00  =   0.062808

H          x = -3.396311  y = -0.167717  z =  0.001356 angstrom
           Maximum rank =  0   Radius =  0.325 angstrom
                   Q00  =   0.069698

H          x = -2.761311  y = -2.735717  z = -1.168644 angstrom
           Maximum rank =  0   Radius =  0.325 angstrom
                   Q00  =   0.098922

H          x = -1.480311  y = -3.135717  z = -2.299644 angstrom
           Maximum rank =  0   Radius =  0.325 angstrom
                   Q00  =   0.101892

H          x = -3.243311  y =  1.586283  z =  1.748356 angstrom
           Maximum rank =  0   Radius =  0.325 angstrom
                   Q00  =   0.059331

H          x = -2.499413  y = -1.698866  z = -2.593761 angstrom
           Maximum rank =  0   Radius =  0.325 angstrom
                   Q00  =   0.098302

C          x =  3.277689  y =  1.406283  z = -0.347644 angstrom
           Maximum rank =  0   Radius =  0.650 angstrom
                   Q00  =  -0.275381

C          x =  4.378689  y =  2.067283  z = -1.177644 angstrom
           Maximum rank =  0   Radius =  0.650 angstrom
                   Q00  =  -0.220875

H          x =  3.727689  y =  0.630283  z =  0.245356 angstrom
           Maximum rank =  0   Radius =  0.325 angstrom
                   Q00  =   0.067931

H          x =  2.846689  y =  2.125283  z =  0.350356 angstrom
           Maximum rank =  0   Radius =  0.325 angstrom
                   Q00  =   0.087397

H          x =  2.493689  y =  1.019283  z = -0.996644 angstrom
           Maximum rank =  0   Radius =  0.325 angstrom
                   Q00  =   0.088160

H          x =  5.274689  y =  2.136283  z = -0.562644 angstrom
           Maximum rank =  0   Radius =  0.325 angstrom
                   Q00  =   0.081892

H          x =  4.592729  y =  1.477589  z = -2.081219 angstrom
           Maximum rank =  0   Radius =  0.325 angstrom
                   Q00  =   0.080333

H          x =  4.090769  y =  3.095173  z = -1.443253 angstrom
           Maximum rank =  0   Radius =  0.325 angstrom
                   Q00  =   0.083392

Total multipoles referred to origin at
           x =   0.000000,  y =    0.000000,  z =    0.000000 angstrom
                   Q00  =  -0.000000

Finished at 14:30:3 on 28 Apr 2020

  DMA results are available in the Python driver through the
	  variable('DMA DISTRIBUTED MULTIPOLES')
  and
	  variable('DMA TOTAL MULTIPOLES')
  commands.

    Psi4 stopped on: Tuesday, 28 April 2020 02:30PM
    Psi4 wall time for execution: 0:04:41.39

*** Psi4 exiting successfully. Buy a developer a beer!
