                               Psi4 1.3.2 release

  ==> Input File <==

--------------------------------------------------------------------------
import numpy as np
set {scf_type pk
basis cc-pvdz
d_convergence 10
gdma_switch   0
gdma_limit    0
gdma_origin   [ 0.0,  0.0,  0.0 ]
}
molecule test {
    units Angstrom
    0 1
    --
    0 1
    C                2.488811095310747     0.242771306598359     1.248716964237419
    C                3.619811095310748    -0.705228693401641     1.687716964237419
    C                2.609811095310747     0.697771306598359    -0.178283035762581
    C                3.665811095310747     0.662771306598359    -1.040283035762581
    C                2.000811095310747     1.674771306598359    -2.041283035762581
    N                1.580811095310747     1.323771306598359    -0.833283035762581
    N                3.253811095310747     1.268771306598359    -2.204283035762582
    H                1.529811095310748    -0.249228693401641     1.397716964237419
    H                2.509811095310747     1.129771306598359     1.883716964237419
    H                4.567811095310748    -0.193228693401641     1.510716964237419
    H                4.663811095310748     0.316771306598359    -0.831283035762581
    H                1.405811095310747     2.184771306598359    -2.788283035762581
    H                3.809811095310748     1.417771306598359    -3.039283035762582
    H                3.589081095310747    -1.665368693401641     1.151806964237419
    H                3.541262095310747    -0.918848693401641     2.763906964237419
    C               -3.864188904689253    -2.768228693401641     1.881716964237419
    C               -1.092188904689253    -0.761228693401641     0.224716964237419
    C               -1.797188904689252     0.323771306598359    -0.275283035762581
    C               -1.752188904689253    -1.738228693401641     0.953716964237419
    C               -3.140188904689253    -1.662228693401641     1.126716964237419
    C               -3.155188904689253     0.439771306598359    -0.122283035762581
    C               -3.838188904689253    -0.539228693401641     0.605716964237419
    O               -1.163188904689253     1.311771306598358    -0.949283035762581
    H               -0.035188904689253    -0.839228693401641     0.033716964237419
    H               -1.201188904689253    -2.588228693401641     1.331716964237419
    H               -3.689188904689253     1.291771306598359    -0.517283035762581
    H               -1.749188904689253     2.046771306598358    -1.149283035762581
    H               -4.602188904689252    -2.324228693401641     2.551716964237419
    H               -3.135188904689253    -3.285228693401641     2.507716964237419
    H               -4.906188904689253    -0.452228693401641     0.753716964237419
    H               -4.357342904689252    -3.504388693401641     1.229896964237419

}
e, wfn = energy('scf', return_wfn=True)
gdma(wfn)
dmavals = variable('DMA DISTRIBUTED MULTIPOLES')
charges = np.array(dmavals)
print(charges)
np.save('SSI-062HIE-073TYR-1-dimer.npy', np.array(charges))--------------------------------------------------------------------------

*** tstart() called on ds3
*** at Tue Apr 28 14:01:09 2020

   => Loading Basis Set <=

    Name: CC-PVDZ
    Role: ORBITAL
    Keyword: BASIS
    atoms 1-5, 16-22  entry C          line   138 file /theoryfs2/ds/metcalf/miniconda2/envs/tf2gpu/share/psi4/basis/cc-pvdz.gbs
    atoms 6-7         entry N          line   168 file /theoryfs2/ds/metcalf/miniconda2/envs/tf2gpu/share/psi4/basis/cc-pvdz.gbs
    atoms 8-15, 24-31 entry H          line    22 file /theoryfs2/ds/metcalf/miniconda2/envs/tf2gpu/share/psi4/basis/cc-pvdz.gbs
    atoms 23          entry O          line   198 file /theoryfs2/ds/metcalf/miniconda2/envs/tf2gpu/share/psi4/basis/cc-pvdz.gbs

         ---------------------------------------------------------
                                   SCF
               by Justin Turney, Rob Parrish, Andy Simmonett
                          and Daniel G. A. Smith
                              RHF Reference
                        1 Threads,    500 MiB Core
         ---------------------------------------------------------

  ==> Geometry <==

    Molecular point group: c1
    Full point group: C1

    Geometry (in Angstrom), charge = 0, multiplicity = 1:

       Center              X                  Y                   Z               Mass
    ------------   -----------------  -----------------  -----------------  -----------------
         C            2.488811095311     0.242771306598     1.248716964237    12.000000000000
         C            3.619811095311    -0.705228693402     1.687716964237    12.000000000000
         C            2.609811095311     0.697771306598    -0.178283035763    12.000000000000
         C            3.665811095311     0.662771306598    -1.040283035763    12.000000000000
         C            2.000811095311     1.674771306598    -2.041283035763    12.000000000000
         N            1.580811095311     1.323771306598    -0.833283035763    14.003074004430
         N            3.253811095311     1.268771306598    -2.204283035763    14.003074004430
         H            1.529811095311    -0.249228693402     1.397716964237     1.007825032230
         H            2.509811095311     1.129771306598     1.883716964237     1.007825032230
         H            4.567811095311    -0.193228693402     1.510716964237     1.007825032230
         H            4.663811095311     0.316771306598    -0.831283035763     1.007825032230
         H            1.405811095311     2.184771306598    -2.788283035763     1.007825032230
         H            3.809811095311     1.417771306598    -3.039283035763     1.007825032230
         H            3.589081095311    -1.665368693402     1.151806964237     1.007825032230
         H            3.541262095311    -0.918848693402     2.763906964237     1.007825032230
         C           -3.864188904689    -2.768228693402     1.881716964237    12.000000000000
         C           -1.092188904689    -0.761228693402     0.224716964237    12.000000000000
         C           -1.797188904689     0.323771306598    -0.275283035763    12.000000000000
         C           -1.752188904689    -1.738228693402     0.953716964237    12.000000000000
         C           -3.140188904689    -1.662228693402     1.126716964237    12.000000000000
         C           -3.155188904689     0.439771306598    -0.122283035763    12.000000000000
         C           -3.838188904689    -0.539228693402     0.605716964237    12.000000000000
         O           -1.163188904689     1.311771306598    -0.949283035763    15.994914619570
         H           -0.035188904689    -0.839228693402     0.033716964237     1.007825032230
         H           -1.201188904689    -2.588228693402     1.331716964237     1.007825032230
         H           -3.689188904689     1.291771306598    -0.517283035763     1.007825032230
         H           -1.749188904689     2.046771306598    -1.149283035763     1.007825032230
         H           -4.602188904689    -2.324228693402     2.551716964237     1.007825032230
         H           -3.135188904689    -3.285228693402     2.507716964237     1.007825032230
         H           -4.906188904689    -0.452228693402     0.753716964237     1.007825032230
         H           -4.357342904689    -3.504388693402     1.229896964237     1.007825032230

  Running in c1 symmetry.

  Rotational constants: A =      0.03463  B =      0.00909  C =      0.00753 [cm^-1]
  Rotational constants: A =   1038.20753  B =    272.37594  C =    225.85584 [MHz]
  Nuclear repulsion =  921.324830840240679

  Charge       = 0
  Multiplicity = 1
  Electrons    = 110
  Nalpha       = 55
  Nbeta        = 55

  ==> Algorithm <==

  SCF Algorithm Type is PK.
  DIIS enabled.
  MOM disabled.
  Fractional occupation disabled.
  Guess Type is SAD.
  Energy threshold   = 1.00e-06
  Density threshold  = 1.00e-10
  Integral threshold = 0.00e+00

  ==> Primary Basis <==

  Basis Set: CC-PVDZ
    Blend: CC-PVDZ
    Number of shells: 138
    Number of basis function: 290
    Number of Cartesian functions: 305
    Spherical Harmonics?: true
    Max angular momentum: 2

  ==> Pre-Iterations <==

   -------------------------------------------------------
    Irrep   Nso     Nmo     Nalpha   Nbeta   Ndocc  Nsocc
   -------------------------------------------------------
     A        290     290       0       0       0       0
   -------------------------------------------------------
    Total     290     290      55      55      55       0
   -------------------------------------------------------

  ==> Integral Setup <==

  Using integral reordering PK algorithm.
  Sizing the integral batches needed.
  Building batch lookup table.
   Calculation information:
      Number of atoms:                  31
      Number of AO shells:             138
      Number of primitives:            410
      Number of atomic orbitals:       305
      Number of basis functions:       290

      Integral cutoff                 1.00e-12
      Number of threads:                 1

	Batch   1 pq = [       0,    9405] index = [             0,44231715] size =     44231715
	Batch   2 pq = [    9405,   13301] index = [      44231715,88464951] size =     44233236
	Batch   3 pq = [   13301,   16290] index = [      88464951,132690195] size =     44225244
	Batch   4 pq = [   16290,   18810] index = [     132690195,176917455] size =     44227260
	Batch   5 pq = [   18810,   21030] index = [     176917455,221140965] size =     44223510
	Batch   6 pq = [   21030,   23037] index = [     221140965,265363203] size =     44222238
	Batch   7 pq = [   23037,   24883] index = [     265363203,309594286] size =     44231083
	Batch   8 pq = [   24883,   26601] index = [     309594286,353819901] size =     44225615
	Batch   9 pq = [   26601,   28214] index = [     353819901,398029005] size =     44209104
	Batch  10 pq = [   28214,   29740] index = [     398029005,442248670] size =     44219665
	Batch  11 pq = [   29740,   31191] index = [     442248670,486454836] size =     44206166
	Batch  12 pq = [   31191,   32578] index = [     486454836,530679331] size =     44224495
	Batch  13 pq = [   32578,   33908] index = [     530679331,574893186] size =     44213855
	Batch  14 pq = [   33908,   35188] index = [     574893186,619115266] size =     44222080
	Batch  15 pq = [   35188,   36423] index = [     619115266,663335676] size =     44220410
	Batch  16 pq = [   36423,   37617] index = [     663335676,707538153] size =     44202477
	Batch  17 pq = [   37617,   38775] index = [     707538153,751769700] size =     44231547
	Batch  18 pq = [   38775,   39899] index = [     751769700,795985050] size =     44215350
	Batch  19 pq = [   39899,   40992] index = [     795985050,840192528] size =     44207478
	Batch  20 pq = [   40992,   42057] index = [     840192528,884416653] size =     44224125
	Batch  21 pq = [   42057,   42195] index = [     884416653,890230110] size =      5813457
  Task number: 81
  Buffer size: 11059200
  Buffer per thread: 2
  We computed 39571215 shell quartets total.
  Whereas there are 45998436 unique shell quartets.

  ==> DiskJK: Disk-Based J/K Matrices <==

    J tasked:                  Yes
    K tasked:                  Yes
    wK tasked:                  No
    Memory [MiB]:              375
    Schwarz Cutoff:          1E-12

    OpenMP threads:              1

  Minimum eigenvalue in the overlap matrix is 3.3258708649E-04.
  Using Symmetric Orthogonalization.

  SCF Guess: Superposition of Atomic Densities via on-the-fly atomic UHF.

  ==> Iterations <==

                        Total Energy        Delta E     RMS |[F,P]|

   @RHF iter SAD:  -646.56695459391767   -6.46567e+02   0.00000e+00
   @RHF iter   1:  -647.17463359969338   -6.07679e-01   2.51261e-03 DIIS
   @RHF iter   2:  -647.45644924090084   -2.81816e-01   1.19706e-03 DIIS
   @RHF iter   3:  -647.51234544765282   -5.58962e-02   3.23298e-04 DIIS
   @RHF iter   4:  -647.51763051417038   -5.28507e-03   1.38572e-04 DIIS
   @RHF iter   5:  -647.51852888560063   -8.98371e-04   2.04039e-05 DIIS
   @RHF iter   6:  -647.51856228239353   -3.33968e-05   9.16026e-06 DIIS
   @RHF iter   7:  -647.51856837837909   -6.09599e-06   3.22490e-06 DIIS
   @RHF iter   8:  -647.51856956914128   -1.19076e-06   1.32107e-06 DIIS
   @RHF iter   9:  -647.51856981328137   -2.44140e-07   5.68652e-07 DIIS
   @RHF iter  10:  -647.51856986166342   -4.83820e-08   2.13582e-07 DIIS
   @RHF iter  11:  -647.51856986947882   -7.81540e-09   7.44635e-08 DIIS
   @RHF iter  12:  -647.51856987051679   -1.03796e-09   3.35038e-08 DIIS
   @RHF iter  13:  -647.51856987068777   -1.70985e-10   1.15982e-08 DIIS
   @RHF iter  14:  -647.51856987070551   -1.77351e-11   5.02608e-09 DIIS
   @RHF iter  15:  -647.51856987071471   -9.20863e-12   2.28597e-09 DIIS
   @RHF iter  16:  -647.51856987071221    2.50111e-12   8.58185e-10 DIIS
   @RHF iter  17:  -647.51856987072267   -1.04592e-11   2.97027e-10 DIIS
   @RHF iter  18:  -647.51856987071699    5.68434e-12   1.32294e-10 DIIS
   @RHF iter  19:  -647.51856987071051    6.48015e-12   5.88542e-11 DIIS
  Energy and wave function converged.

  ==> Post-Iterations <==

    Orbital Energies [Eh]
    ---------------------

    Doubly Occupied:

       1A    -20.556292     2A    -15.614809     3A    -15.515733
       4A    -11.283625     5A    -11.280748     6A    -11.243527
       7A    -11.232625     8A    -11.231563     9A    -11.227076
      10A    -11.225683    11A    -11.220972    12A    -11.220059
      13A    -11.218764    14A    -11.218662    15A    -11.212866
      16A     -1.381913    17A     -1.335927    18A     -1.149451
      19A     -1.135669    20A     -1.046412    21A     -1.022365
      22A     -1.006577    23A     -0.975507    24A     -0.913166
      25A     -0.863001    26A     -0.831611    27A     -0.806668
      28A     -0.789006    29A     -0.750595    30A     -0.734388
      31A     -0.716834    32A     -0.652450    33A     -0.631697
      34A     -0.615315    35A     -0.594549    36A     -0.593983
      37A     -0.590728    38A     -0.578805    39A     -0.577593
      40A     -0.576334    41A     -0.570152    42A     -0.558450
      43A     -0.547669    44A     -0.512565    45A     -0.499364
      46A     -0.488791    47A     -0.484687    48A     -0.483158
      49A     -0.471120    50A     -0.451728    51A     -0.392915
      52A     -0.370190    53A     -0.327921    54A     -0.302008
      55A     -0.285307

    Virtual:

      56A      0.140409    57A      0.167326    58A      0.177974
      59A      0.185442    60A      0.191927    61A      0.195082
      62A      0.199782    63A      0.222562    64A      0.224344
      65A      0.232083    66A      0.243581    67A      0.249699
      68A      0.259961    69A      0.267219    70A      0.276095
      71A      0.287020    72A      0.292518    73A      0.299933
      74A      0.328952    75A      0.333117    76A      0.371997
      77A      0.380038    78A      0.387953    79A      0.416082
      80A      0.418417    81A      0.435556    82A      0.449789
      83A      0.467611    84A      0.493540    85A      0.501444
      86A      0.503420    87A      0.509661    88A      0.524244
      89A      0.606481    90A      0.614130    91A      0.623276
      92A      0.631175    93A      0.642081    94A      0.659432
      95A      0.662097    96A      0.674241    97A      0.681938
      98A      0.695428    99A      0.702766   100A      0.708323
     101A      0.717278   102A      0.723301   103A      0.731087
     104A      0.737476   105A      0.749439   106A      0.766442
     107A      0.771987   108A      0.773475   109A      0.793088
     110A      0.799833   111A      0.802935   112A      0.811954
     113A      0.818883   114A      0.835141   115A      0.848983
     116A      0.859238   117A      0.873864   118A      0.880476
     119A      0.887408   120A      0.888044   121A      0.889451
     122A      0.890284   123A      0.901168   124A      0.904648
     125A      0.911678   126A      0.920179   127A      0.927629
     128A      0.939061   129A      0.942651   130A      0.946252
     131A      0.950194   132A      0.960117   133A      0.975642
     134A      0.985349   135A      1.012790   136A      1.021992
     137A      1.037315   138A      1.047404   139A      1.052723
     140A      1.058264   141A      1.074964   142A      1.102645
     143A      1.113786   144A      1.128710   145A      1.152017
     146A      1.163265   147A      1.169666   148A      1.172308
     149A      1.195652   150A      1.217883   151A      1.229810
     152A      1.254354   153A      1.259277   154A      1.270296
     155A      1.280059   156A      1.296855   157A      1.312440
     158A      1.316945   159A      1.319783   160A      1.327458
     161A      1.337120   162A      1.347564   163A      1.352156
     164A      1.367829   165A      1.377412   166A      1.398403
     167A      1.433677   168A      1.439541   169A      1.468276
     170A      1.474199   171A      1.484555   172A      1.501153
     173A      1.517311   174A      1.537614   175A      1.555306
     176A      1.591947   177A      1.605942   178A      1.629486
     179A      1.643134   180A      1.663005   181A      1.685426
     182A      1.695196   183A      1.709654   184A      1.715530
     185A      1.745436   186A      1.753878   187A      1.771788
     188A      1.787126   189A      1.793936   190A      1.809183
     191A      1.813948   192A      1.825557   193A      1.831016
     194A      1.845637   195A      1.881396   196A      1.891596
     197A      1.899078   198A      1.902160   199A      1.906406
     200A      1.914996   201A      1.917933   202A      1.929320
     203A      1.938956   204A      1.946640   205A      1.948283
     206A      1.956340   207A      1.961680   208A      1.967858
     209A      1.973343   210A      1.984115   211A      1.991116
     212A      2.001818   213A      2.017035   214A      2.025875
     215A      2.046971   216A      2.050812   217A      2.058767
     218A      2.062865   219A      2.072444   220A      2.078447
     221A      2.084747   222A      2.098311   223A      2.138384
     224A      2.148708   225A      2.154812   226A      2.174337
     227A      2.183026   228A      2.197025   229A      2.215673
     230A      2.228090   231A      2.243428   232A      2.253319
     233A      2.259905   234A      2.288047   235A      2.293853
     236A      2.309603   237A      2.326082   238A      2.338880
     239A      2.367584   240A      2.386156   241A      2.397729
     242A      2.426614   243A      2.434800   244A      2.461082
     245A      2.472049   246A      2.484615   247A      2.488109
     248A      2.511811   249A      2.536240   250A      2.542556
     251A      2.554239   252A      2.577141   253A      2.607551
     254A      2.612676   255A      2.635604   256A      2.686377
     257A      2.698998   258A      2.752963   259A      2.758893
     260A      2.771656   261A      2.773950   262A      2.777452
     263A      2.800286   264A      2.813137   265A      2.819336
     266A      2.826576   267A      2.849699   268A      2.885137
     269A      2.893340   270A      2.908757   271A      2.926370
     272A      2.947295   273A      2.969387   274A      2.986040
     275A      2.999842   276A      3.049570   277A      3.097916
     278A      3.112822   279A      3.115123   280A      3.182346
     281A      3.272686   282A      3.280121   283A      3.296474
     284A      3.378482   285A      3.488553   286A      3.632806
     287A      3.705641   288A      3.804333   289A      4.013605
     290A      4.224478

    Final Occupation by Irrep:
              A
    DOCC [    55 ]

  @RHF Final Energy:  -647.51856987071051

   => Energetics <=

    Nuclear Repulsion Energy =            921.3248308402406792
    One-Electron Energy =               -2709.4476591867532989
    Two-Electron Energy =                1140.6042584758019984
    Total Energy =                       -647.5185698707105075

Computation Completed

Properties will be evaluated at   0.000000,   0.000000,   0.000000 [a0]

Properties computed using the SCF density matrix

  Nuclear Dipole Moment: [e a0]
     X:     1.8005      Y:    -7.1565      Z:     8.2455

  Electronic Dipole Moment: [e a0]
     X:    -1.2360      Y:     7.5202      Z:    -9.1147

  Dipole Moment: [e a0]
     X:     0.5645      Y:     0.3636      Z:    -0.8692     Total:     1.0983

  Dipole Moment: [D]
     X:     1.4348      Y:     0.9242      Z:    -2.2093     Total:     2.7917

*** tstop() called on ds3 at Tue Apr 28 14:09:50 2020
Module time:
	user time   =     354.08 seconds =       5.90 minutes
	system time =     148.57 seconds =       2.48 minutes
	total time  =        521 seconds =       8.68 minutes
Total time:
	user time   =     354.08 seconds =       5.90 minutes
	system time =     148.57 seconds =       2.48 minutes
	total time  =        521 seconds =       8.68 minutes
                                     G D M A

                                 by Anthony Stone

                           version 2.2.06, 22 June 2011

               Distributed Multipoles from Gaussian wavefunctions

Starting at 14:9:50 on 28 Apr 2020

Using SCF density matrix from file ./SSI/SSI-062HIE-073TYR-1-dimer.test.17135.fchk

                         Distributed Multipole Analysis

Standard DMA

Positions and radii in angstrom
Multipole moments in atomic units, ea_0^k for rank k

C          x =  2.488811  y =  0.242771  z =  1.248717 angstrom
           Maximum rank =  0   Radius =  0.650 angstrom
                   Q00  =  -0.037558

C          x =  3.619811  y = -0.705229  z =  1.687717 angstrom
           Maximum rank =  0   Radius =  0.650 angstrom
                   Q00  =  -0.254262

C          x =  2.609811  y =  0.697771  z = -0.178283 angstrom
           Maximum rank =  0   Radius =  0.650 angstrom
                   Q00  =   0.226981

C          x =  3.665811  y =  0.662771  z = -1.040283 angstrom
           Maximum rank =  0   Radius =  0.650 angstrom
                   Q00  =  -0.018944

C          x =  2.000811  y =  1.674771  z = -2.041283 angstrom
           Maximum rank =  0   Radius =  0.650 angstrom
                   Q00  =   0.450802

N          x =  1.580811  y =  1.323771  z = -0.833283 angstrom
           Maximum rank =  0   Radius =  0.650 angstrom
                   Q00  =  -0.762595

N          x =  3.253811  y =  1.268771  z = -2.204283 angstrom
           Maximum rank =  0   Radius =  0.650 angstrom
                   Q00  =  -0.468802

H          x =  1.529811  y = -0.249229  z =  1.397717 angstrom
           Maximum rank =  0   Radius =  0.325 angstrom
                   Q00  =   0.080965

H          x =  2.509811  y =  1.129771  z =  1.883717 angstrom
           Maximum rank =  0   Radius =  0.325 angstrom
                   Q00  =   0.084361

H          x =  4.567811  y = -0.193229  z =  1.510717 angstrom
           Maximum rank =  0   Radius =  0.325 angstrom
                   Q00  =   0.075898

H          x =  4.663811  y =  0.316771  z = -0.831283 angstrom
           Maximum rank =  0   Radius =  0.325 angstrom
                   Q00  =   0.101670

H          x =  1.405811  y =  2.184771  z = -2.788283 angstrom
           Maximum rank =  0   Radius =  0.325 angstrom
                   Q00  =   0.118579

H          x =  3.809811  y =  1.417771  z = -3.039283 angstrom
           Maximum rank =  0   Radius =  0.325 angstrom
                   Q00  =   0.218648

H          x =  3.589081  y = -1.665369  z =  1.151807 angstrom
           Maximum rank =  0   Radius =  0.325 angstrom
                   Q00  =   0.082520

H          x =  3.541262  y = -0.918849  z =  2.763907 angstrom
           Maximum rank =  0   Radius =  0.325 angstrom
                   Q00  =   0.090219

C          x = -3.864189  y = -2.768229  z =  1.881717 angstrom
           Maximum rank =  0   Radius =  0.650 angstrom
                   Q00  =  -0.195561

C          x = -1.092189  y = -0.761229  z =  0.224717 angstrom
           Maximum rank =  0   Radius =  0.650 angstrom
                   Q00  =  -0.123739

C          x = -1.797189  y =  0.323771  z = -0.275283 angstrom
           Maximum rank =  0   Radius =  0.650 angstrom
                   Q00  =   0.396055

C          x = -1.752189  y = -1.738229  z =  0.953717 angstrom
           Maximum rank =  0   Radius =  0.650 angstrom
                   Q00  =  -0.060418

C          x = -3.140189  y = -1.662229  z =  1.126717 angstrom
           Maximum rank =  0   Radius =  0.650 angstrom
                   Q00  =  -0.148706

C          x = -3.155189  y =  0.439771  z = -0.122283 angstrom
           Maximum rank =  0   Radius =  0.650 angstrom
                   Q00  =  -0.178065

C          x = -3.838189  y = -0.539229  z =  0.605717 angstrom
           Maximum rank =  0   Radius =  0.650 angstrom
                   Q00  =  -0.023379

O          x = -1.163189  y =  1.311771  z = -0.949283 angstrom
           Maximum rank =  0   Radius =  0.650 angstrom
                   Q00  =  -0.607975

H          x = -0.035189  y = -0.839229  z =  0.033717 angstrom
           Maximum rank =  0   Radius =  0.325 angstrom
                   Q00  =   0.091434

H          x = -1.201189  y = -2.588229  z =  1.331717 angstrom
           Maximum rank =  0   Radius =  0.325 angstrom
                   Q00  =   0.060267

H          x = -3.689189  y =  1.291771  z = -0.517283 angstrom
           Maximum rank =  0   Radius =  0.325 angstrom
                   Q00  =   0.064379

H          x = -1.749189  y =  2.046771  z = -1.149283 angstrom
           Maximum rank =  0   Radius =  0.325 angstrom
                   Q00  =   0.387094

H          x = -4.602189  y = -2.324229  z =  2.551717 angstrom
           Maximum rank =  0   Radius =  0.325 angstrom
                   Q00  =   0.094362

H          x = -3.135189  y = -3.285229  z =  2.507717 angstrom
           Maximum rank =  0   Radius =  0.325 angstrom
                   Q00  =   0.092444

H          x = -4.906189  y = -0.452229  z =  0.753717 angstrom
           Maximum rank =  0   Radius =  0.325 angstrom
                   Q00  =   0.065965

H          x = -4.357343  y = -3.504389  z =  1.229897 angstrom
           Maximum rank =  0   Radius =  0.325 angstrom
                   Q00  =   0.097361

Total multipoles referred to origin at
           x =   0.000000,  y =    0.000000,  z =    0.000000 angstrom
                   Q00  =  -0.000000

Finished at 14:9:50 on 28 Apr 2020

  DMA results are available in the Python driver through the
	  variable('DMA DISTRIBUTED MULTIPOLES')
  and
	  variable('DMA TOTAL MULTIPOLES')
  commands.

    Psi4 stopped on: Tuesday, 28 April 2020 02:09PM
    Psi4 wall time for execution: 0:08:41.13

*** Psi4 exiting successfully. Buy a developer a beer!
