                               Psi4 1.3.2 release

  ==> Input File <==

--------------------------------------------------------------------------
import numpy as np
set {scf_type pk
basis cc-pvdz
d_convergence 10
gdma_switch   0
gdma_limit    0
gdma_origin   [ 0.0,  0.0,  0.0 ]
}
molecule test {
    units Angstrom
    0 1
    --
    0 1
    C                0.575103426161251     3.794519531811099    -1.351781583383128
    C               -0.748896573838749     0.239519531811099    -1.089781583383128
    C                0.317103426161251     1.148519531811100    -1.351781583383128
    C               -0.194896573838749     2.487519531811099    -1.176781583383128
    C               -1.505896573838749     2.340519531811100    -0.821781583383128
    C               -0.592896573838749    -1.140480468188900    -1.184781583383128
    C                0.656103426161251    -1.624480468188900    -1.547781583383128
    C                1.570103426161251     0.630519531811099    -1.711781583383128
    C                1.729103426161251    -0.748480468188901    -1.808781583383128
    N               -1.840896573838749     1.000519531811099    -0.765781583383128
    H               -2.763896573838749     0.651519531811099    -0.527781583383128
    H               -1.421896573838749    -1.808480468188901    -0.995781583383128
    H               -2.188896573838749     3.157519531811099    -0.623781583383128
    H                0.793103426161251    -2.691480468188900    -1.653781583383128
    H                2.393103426161251     1.296519531811100    -1.929781583383128
    H               -0.092896573838749     4.527519531811100    -1.804781583383128
    H                1.367103426161251     3.610519531811099    -2.062781583383128
    H                2.690103426161252    -1.150480468188900    -2.100781583383128
    H                0.966725426161251     4.214936531811099    -0.413761583383128
    C                0.686103426161251    -0.737480468188901     1.902218416616872
    C                1.708103426161251    -0.755480468188901     3.020218416616872
    C               -0.453896573838749    -1.714480468188901     2.144218416616873
    O               -1.386896573838749    -1.428480468188901     2.892218416616872
    N               -0.391896573838749    -2.878480468188901     1.510218416616872
    H                0.284103426161251     0.268519531811099     1.774218416616872
    H                1.207103426161251    -1.005480468188901     0.987218416616872
    H                2.613103426161252    -0.280480468188901     2.658218416616872
    H                1.959103426161251    -1.798480468188901     3.218218416616873
    H               -1.133896573838749    -3.547480468188901     1.654218416616872
    H                0.376103426161251    -3.074480468188900     0.890218416616872
    H                1.392147426161251    -0.283700468188901     3.962338416616872

}
e, wfn = energy('scf', return_wfn=True)
gdma(wfn)
dmavals = variable('DMA DISTRIBUTED MULTIPOLES')
charges = np.array(dmavals)
print(charges)
np.save('SSI-111TRP-115GLN-1-dimer.npy', np.array(charges))--------------------------------------------------------------------------

*** tstart() called on ds3
*** at Mon Apr 27 23:12:41 2020

   => Loading Basis Set <=

    Name: CC-PVDZ
    Role: ORBITAL
    Keyword: BASIS
    atoms 1-9, 20-22   entry C          line   138 file /theoryfs2/ds/metcalf/miniconda2/envs/tf2gpu/share/psi4/basis/cc-pvdz.gbs
    atoms 10, 24       entry N          line   168 file /theoryfs2/ds/metcalf/miniconda2/envs/tf2gpu/share/psi4/basis/cc-pvdz.gbs
    atoms 11-19, 25-31 entry H          line    22 file /theoryfs2/ds/metcalf/miniconda2/envs/tf2gpu/share/psi4/basis/cc-pvdz.gbs
    atoms 23           entry O          line   198 file /theoryfs2/ds/metcalf/miniconda2/envs/tf2gpu/share/psi4/basis/cc-pvdz.gbs

         ---------------------------------------------------------
                                   SCF
               by Justin Turney, Rob Parrish, Andy Simmonett
                          and Daniel G. A. Smith
                              RHF Reference
                        1 Threads,    500 MiB Core
         ---------------------------------------------------------

  ==> Geometry <==

    Molecular point group: c1
    Full point group: C1

    Geometry (in Angstrom), charge = 0, multiplicity = 1:

       Center              X                  Y                   Z               Mass
    ------------   -----------------  -----------------  -----------------  -----------------
         C            0.575103426161     3.794519531811    -1.351781583383    12.000000000000
         C           -0.748896573839     0.239519531811    -1.089781583383    12.000000000000
         C            0.317103426161     1.148519531811    -1.351781583383    12.000000000000
         C           -0.194896573839     2.487519531811    -1.176781583383    12.000000000000
         C           -1.505896573839     2.340519531811    -0.821781583383    12.000000000000
         C           -0.592896573839    -1.140480468189    -1.184781583383    12.000000000000
         C            0.656103426161    -1.624480468189    -1.547781583383    12.000000000000
         C            1.570103426161     0.630519531811    -1.711781583383    12.000000000000
         C            1.729103426161    -0.748480468189    -1.808781583383    12.000000000000
         N           -1.840896573839     1.000519531811    -0.765781583383    14.003074004430
         H           -2.763896573839     0.651519531811    -0.527781583383     1.007825032230
         H           -1.421896573839    -1.808480468189    -0.995781583383     1.007825032230
         H           -2.188896573839     3.157519531811    -0.623781583383     1.007825032230
         H            0.793103426161    -2.691480468189    -1.653781583383     1.007825032230
         H            2.393103426161     1.296519531811    -1.929781583383     1.007825032230
         H           -0.092896573839     4.527519531811    -1.804781583383     1.007825032230
         H            1.367103426161     3.610519531811    -2.062781583383     1.007825032230
         H            2.690103426161    -1.150480468189    -2.100781583383     1.007825032230
         H            0.966725426161     4.214936531811    -0.413761583383     1.007825032230
         C            0.686103426161    -0.737480468189     1.902218416617    12.000000000000
         C            1.708103426161    -0.755480468189     3.020218416617    12.000000000000
         C           -0.453896573839    -1.714480468189     2.144218416617    12.000000000000
         O           -1.386896573839    -1.428480468189     2.892218416617    15.994914619570
         N           -0.391896573839    -2.878480468189     1.510218416617    14.003074004430
         H            0.284103426161     0.268519531811     1.774218416617     1.007825032230
         H            1.207103426161    -1.005480468189     0.987218416617     1.007825032230
         H            2.613103426161    -0.280480468189     2.658218416617     1.007825032230
         H            1.959103426161    -1.798480468189     3.218218416617     1.007825032230
         H           -1.133896573839    -3.547480468189     1.654218416617     1.007825032230
         H            0.376103426161    -3.074480468189     0.890218416617     1.007825032230
         H            1.392147426161    -0.283700468189     3.962338416617     1.007825032230

  Running in c1 symmetry.

  Rotational constants: A =      0.02767  B =      0.01316  C =      0.01225 [cm^-1]
  Rotational constants: A =    829.61256  B =    394.51947  C =    367.36410 [MHz]
  Nuclear repulsion =  974.963686001070755

  Charge       = 0
  Multiplicity = 1
  Electrons    = 110
  Nalpha       = 55
  Nbeta        = 55

  ==> Algorithm <==

  SCF Algorithm Type is PK.
  DIIS enabled.
  MOM disabled.
  Fractional occupation disabled.
  Guess Type is SAD.
  Energy threshold   = 1.00e-06
  Density threshold  = 1.00e-10
  Integral threshold = 0.00e+00

  ==> Primary Basis <==

  Basis Set: CC-PVDZ
    Blend: CC-PVDZ
    Number of shells: 138
    Number of basis function: 290
    Number of Cartesian functions: 305
    Spherical Harmonics?: true
    Max angular momentum: 2

  ==> Pre-Iterations <==

   -------------------------------------------------------
    Irrep   Nso     Nmo     Nalpha   Nbeta   Ndocc  Nsocc
   -------------------------------------------------------
     A        290     290       0       0       0       0
   -------------------------------------------------------
    Total     290     290      55      55      55       0
   -------------------------------------------------------

  ==> Integral Setup <==

  Using integral reordering PK algorithm.
  Sizing the integral batches needed.
  Building batch lookup table.
   Calculation information:
      Number of atoms:                  31
      Number of AO shells:             138
      Number of primitives:            410
      Number of atomic orbitals:       305
      Number of basis functions:       290

      Integral cutoff                 1.00e-12
      Number of threads:                 1

	Batch   1 pq = [       0,    9405] index = [             0,44231715] size =     44231715
	Batch   2 pq = [    9405,   13301] index = [      44231715,88464951] size =     44233236
	Batch   3 pq = [   13301,   16290] index = [      88464951,132690195] size =     44225244
	Batch   4 pq = [   16290,   18810] index = [     132690195,176917455] size =     44227260
	Batch   5 pq = [   18810,   21030] index = [     176917455,221140965] size =     44223510
	Batch   6 pq = [   21030,   23037] index = [     221140965,265363203] size =     44222238
	Batch   7 pq = [   23037,   24883] index = [     265363203,309594286] size =     44231083
	Batch   8 pq = [   24883,   26601] index = [     309594286,353819901] size =     44225615
	Batch   9 pq = [   26601,   28214] index = [     353819901,398029005] size =     44209104
	Batch  10 pq = [   28214,   29740] index = [     398029005,442248670] size =     44219665
	Batch  11 pq = [   29740,   31191] index = [     442248670,486454836] size =     44206166
	Batch  12 pq = [   31191,   32578] index = [     486454836,530679331] size =     44224495
	Batch  13 pq = [   32578,   33908] index = [     530679331,574893186] size =     44213855
	Batch  14 pq = [   33908,   35188] index = [     574893186,619115266] size =     44222080
	Batch  15 pq = [   35188,   36423] index = [     619115266,663335676] size =     44220410
	Batch  16 pq = [   36423,   37617] index = [     663335676,707538153] size =     44202477
	Batch  17 pq = [   37617,   38775] index = [     707538153,751769700] size =     44231547
	Batch  18 pq = [   38775,   39899] index = [     751769700,795985050] size =     44215350
	Batch  19 pq = [   39899,   40992] index = [     795985050,840192528] size =     44207478
	Batch  20 pq = [   40992,   42057] index = [     840192528,884416653] size =     44224125
	Batch  21 pq = [   42057,   42195] index = [     884416653,890230110] size =      5813457
  Task number: 81
  Buffer size: 11059200
  Buffer per thread: 2
  We computed 52233626 shell quartets total.
  Whereas there are 45998436 unique shell quartets.
    13.56 percent of shell quartets recomputed by reordering.

  ==> DiskJK: Disk-Based J/K Matrices <==

    J tasked:                  Yes
    K tasked:                  Yes
    wK tasked:                  No
    Memory [MiB]:              375
    Schwarz Cutoff:          1E-12

    OpenMP threads:              1

  Minimum eigenvalue in the overlap matrix is 2.4305717324E-04.
  Using Symmetric Orthogonalization.

  SCF Guess: Superposition of Atomic Densities via on-the-fly atomic UHF.

  ==> Iterations <==

                        Total Energy        Delta E     RMS |[F,P]|

   @RHF iter SAD:  -646.59360345545792   -6.46594e+02   0.00000e+00
   @RHF iter   1:  -647.19573959646516   -6.02136e-01   2.66377e-03 DIIS
   @RHF iter   2:  -647.48666069941828   -2.90921e-01   1.37854e-03 DIIS
   @RHF iter   3:  -647.55363533978345   -6.69746e-02   3.38223e-04 DIIS
   @RHF iter   4:  -647.55933822954717   -5.70289e-03   1.36436e-04 DIIS
   @RHF iter   5:  -647.56026098267444   -9.22753e-04   2.18386e-05 DIIS
   @RHF iter   6:  -647.56031398630228   -5.30036e-05   1.09203e-05 DIIS
   @RHF iter   7:  -647.56032521260636   -1.12263e-05   4.54314e-06 DIIS
   @RHF iter   8:  -647.56032784772867   -2.63512e-06   1.62636e-06 DIIS
   @RHF iter   9:  -647.56032822454142   -3.76813e-07   6.90536e-07 DIIS
   @RHF iter  10:  -647.56032829498747   -7.04460e-08   2.88046e-07 DIIS
   @RHF iter  11:  -647.56032831089806   -1.59106e-08   1.32272e-07 DIIS
   @RHF iter  12:  -647.56032831474670   -3.84864e-09   6.46714e-08 DIIS
   @RHF iter  13:  -647.56032831561811   -8.71410e-10   2.42684e-08 DIIS
   @RHF iter  14:  -647.56032831574828   -1.30171e-10   9.21469e-09 DIIS
   @RHF iter  15:  -647.56032831575567   -7.38964e-12   3.11082e-09 DIIS
   @RHF iter  16:  -647.56032831575999   -4.32010e-12   1.48634e-09 DIIS
   @RHF iter  17:  -647.56032831575726    2.72848e-12   6.07814e-10 DIIS
   @RHF iter  18:  -647.56032831575988   -2.61480e-12   2.64094e-10 DIIS
   @RHF iter  19:  -647.56032831575851    1.36424e-12   1.20968e-10 DIIS
   @RHF iter  20:  -647.56032831575658    1.93268e-12   5.70168e-11 DIIS
  Energy and wave function converged.

  ==> Post-Iterations <==

    Orbital Energies [Eh]
    ---------------------

    Doubly Occupied:

       1A    -20.492503     2A    -15.606312     3A    -15.579183
       4A    -11.332385     5A    -11.271128     6A    -11.270556
       7A    -11.239488     8A    -11.238740     9A    -11.238189
      10A    -11.232787    11A    -11.231863    12A    -11.230236
      13A    -11.225832    14A    -11.220256    15A    -11.219366
      16A     -1.356464    17A     -1.296878    18A     -1.207148
      19A     -1.134639    20A     -1.074700    21A     -1.040382
      22A     -1.003726    23A     -0.992150    24A     -0.935811
      25A     -0.876805    26A     -0.845142    27A     -0.810872
      28A     -0.779261    29A     -0.757895    30A     -0.725217
      31A     -0.716463    32A     -0.668125    33A     -0.654016
      34A     -0.648418    35A     -0.610265    36A     -0.604147
      37A     -0.597476    38A     -0.593334    39A     -0.580789
      40A     -0.572873    41A     -0.561511    42A     -0.555017
      43A     -0.538816    44A     -0.534377    45A     -0.515068
      46A     -0.501441    47A     -0.498155    48A     -0.484453
      49A     -0.477670    50A     -0.462008    51A     -0.395450
      52A     -0.393932    53A     -0.378191    54A     -0.301728
      55A     -0.281593

    Virtual:

      56A      0.115139    57A      0.155307    58A      0.168764
      59A      0.183222    60A      0.187675    61A      0.196594
      62A      0.211519    63A      0.213524    64A      0.221352
      65A      0.230347    66A      0.240431    67A      0.247662
      68A      0.255118    69A      0.261470    70A      0.267867
      71A      0.280777    72A      0.286658    73A      0.300016
      74A      0.304729    75A      0.331057    76A      0.367013
      77A      0.375945    78A      0.385519    79A      0.395642
      80A      0.413211    81A      0.426625    82A      0.436994
      83A      0.459766    84A      0.468153    85A      0.476010
      86A      0.504522    87A      0.508722    88A      0.570375
      89A      0.587744    90A      0.599909    91A      0.606470
      92A      0.621892    93A      0.632548    94A      0.644706
      95A      0.649485    96A      0.669220    97A      0.674082
      98A      0.687254    99A      0.691538   100A      0.709505
     101A      0.714426   102A      0.717307   103A      0.726718
     104A      0.738105   105A      0.746736   106A      0.759152
     107A      0.764992   108A      0.771045   109A      0.776960
     110A      0.792867   111A      0.805261   112A      0.818081
     113A      0.827619   114A      0.852852   115A      0.859868
     116A      0.861127   117A      0.866324   118A      0.877377
     119A      0.879237   120A      0.889961   121A      0.892580
     122A      0.899353   123A      0.903679   124A      0.913733
     125A      0.920898   126A      0.938442   127A      0.939883
     128A      0.944212   129A      0.949718   130A      0.959234
     131A      0.969488   132A      0.975273   133A      0.990298
     134A      0.997991   135A      1.014997   136A      1.023765
     137A      1.054891   138A      1.073678   139A      1.078703
     140A      1.087995   141A      1.098870   142A      1.104833
     143A      1.113856   144A      1.134210   145A      1.137753
     146A      1.145801   147A      1.159436   148A      1.182810
     149A      1.189420   150A      1.216877   151A      1.222025
     152A      1.230754   153A      1.236421   154A      1.248784
     155A      1.277100   156A      1.280978   157A      1.300702
     158A      1.314771   159A      1.321703   160A      1.338303
     161A      1.354610   162A      1.358819   163A      1.364754
     164A      1.384718   165A      1.419987   166A      1.423770
     167A      1.436534   168A      1.450090   169A      1.457190
     170A      1.473405   171A      1.491067   172A      1.511115
     173A      1.539440   174A      1.547694   175A      1.569460
     176A      1.595188   177A      1.621185   178A      1.639953
     179A      1.646251   180A      1.682473   181A      1.688652
     182A      1.691958   183A      1.701620   184A      1.735257
     185A      1.752712   186A      1.758901   187A      1.780482
     188A      1.781734   189A      1.800668   190A      1.812423
     191A      1.833127   192A      1.839652   193A      1.851550
     194A      1.863739   195A      1.879286   196A      1.886546
     197A      1.887500   198A      1.896895   199A      1.906392
     200A      1.912109   201A      1.919110   202A      1.921878
     203A      1.939749   204A      1.946887   205A      1.950153
     206A      1.962597   207A      1.978569   208A      1.980644
     209A      1.990364   210A      2.003903   211A      2.007936
     212A      2.011240   213A      2.025796   214A      2.047509
     215A      2.053432   216A      2.061129   217A      2.071701
     218A      2.077732   219A      2.088557   220A      2.098347
     221A      2.114781   222A      2.118136   223A      2.125272
     224A      2.129436   225A      2.138551   226A      2.151193
     227A      2.160041   228A      2.170105   229A      2.197165
     230A      2.226031   231A      2.241312   232A      2.261333
     233A      2.273449   234A      2.302447   235A      2.314698
     236A      2.322605   237A      2.339445   238A      2.359143
     239A      2.378617   240A      2.384676   241A      2.408050
     242A      2.435126   243A      2.441510   244A      2.460279
     245A      2.462270   246A      2.523270   247A      2.540226
     248A      2.542885   249A      2.579466   250A      2.587014
     251A      2.592122   252A      2.608775   253A      2.622257
     254A      2.624063   255A      2.653417   256A      2.667899
     257A      2.672470   258A      2.707729   259A      2.765161
     260A      2.769792   261A      2.775658   262A      2.778574
     263A      2.786213   264A      2.794095   265A      2.824571
     266A      2.846695   267A      2.848721   268A      2.867245
     269A      2.893805   270A      2.910082   271A      2.929155
     272A      2.961969   273A      2.998130   274A      3.015379
     275A      3.024716   276A      3.056358   277A      3.071230
     278A      3.108858   279A      3.114522   280A      3.150933
     281A      3.196739   282A      3.280253   283A      3.329604
     284A      3.358502   285A      3.525960   286A      3.550091
     287A      3.731007   288A      3.878631   289A      3.917424
     290A      3.935328

    Final Occupation by Irrep:
              A
    DOCC [    55 ]

  @RHF Final Energy:  -647.56032831575658

   => Energetics <=

    Nuclear Repulsion Energy =            974.9636860010707551
    One-Electron Energy =               -2815.8655716948460395
    Two-Electron Energy =                1193.3415573780187060
    Total Energy =                       -647.5603283157565784

Computation Completed

Properties will be evaluated at   0.000000,   0.000000,   0.000000 [a0]

Properties computed using the SCF density matrix

  Nuclear Dipole Moment: [e a0]
     X:     7.9124      Y:     1.9546      Z:     2.8538

  Electronic Dipole Moment: [e a0]
     X:    -7.6326      Y:    -2.1662      Z:    -3.8313

  Dipole Moment: [e a0]
     X:     0.2797      Y:    -0.2116      Z:    -0.9775     Total:     1.0385

  Dipole Moment: [D]
     X:     0.7110      Y:    -0.5378      Z:    -2.4845     Total:     2.6396

*** tstop() called on ds3 at Mon Apr 27 23:24:26 2020
Module time:
	user time   =     494.78 seconds =       8.25 minutes
	system time =     185.99 seconds =       3.10 minutes
	total time  =        705 seconds =      11.75 minutes
Total time:
	user time   =     494.78 seconds =       8.25 minutes
	system time =     185.99 seconds =       3.10 minutes
	total time  =        705 seconds =      11.75 minutes
                                     G D M A

                                 by Anthony Stone

                           version 2.2.06, 22 June 2011

               Distributed Multipoles from Gaussian wavefunctions

Starting at 23:24:26 on 27 Apr 2020

Using SCF density matrix from file ./SSI/SSI-111TRP-115GLN-1-dimer.test.1772.fchk

                         Distributed Multipole Analysis

Standard DMA

Positions and radii in angstrom
Multipole moments in atomic units, ea_0^k for rank k

C          x =  0.575103  y =  3.794520  z = -1.351782 angstrom
           Maximum rank =  0   Radius =  0.650 angstrom
                   Q00  =  -0.214132

C          x = -0.748897  y =  0.239520  z = -1.089782 angstrom
           Maximum rank =  0   Radius =  0.650 angstrom
                   Q00  =   0.302077

C          x =  0.317103  y =  1.148520  z = -1.351782 angstrom
           Maximum rank =  0   Radius =  0.650 angstrom
                   Q00  =  -0.044803

C          x = -0.194897  y =  2.487520  z = -1.176782 angstrom
           Maximum rank =  0   Radius =  0.650 angstrom
                   Q00  =  -0.138005

C          x = -1.505897  y =  2.340520  z = -0.821782 angstrom
           Maximum rank =  0   Radius =  0.650 angstrom
                   Q00  =   0.090649

C          x = -0.592897  y = -1.140480  z = -1.184782 angstrom
           Maximum rank =  0   Radius =  0.650 angstrom
                   Q00  =  -0.116536

C          x =  0.656103  y = -1.624480  z = -1.547782 angstrom
           Maximum rank =  0   Radius =  0.650 angstrom
                   Q00  =  -0.098787

C          x =  1.570103  y =  0.630520  z = -1.711782 angstrom
           Maximum rank =  0   Radius =  0.650 angstrom
                   Q00  =  -0.096699

C          x =  1.729103  y = -0.748480  z = -1.808782 angstrom
           Maximum rank =  0   Radius =  0.650 angstrom
                   Q00  =  -0.093500

N          x = -1.840897  y =  1.000520  z = -0.765782 angstrom
           Maximum rank =  0   Radius =  0.650 angstrom
                   Q00  =  -0.506021

H          x = -2.763897  y =  0.651520  z = -0.527782 angstrom
           Maximum rank =  0   Radius =  0.325 angstrom
                   Q00  =   0.226313

H          x = -1.421897  y = -1.808480  z = -0.995782 angstrom
           Maximum rank =  0   Radius =  0.325 angstrom
                   Q00  =   0.079948

H          x = -2.188897  y =  3.157520  z = -0.623782 angstrom
           Maximum rank =  0   Radius =  0.325 angstrom
                   Q00  =   0.103819

H          x =  0.793103  y = -2.691480  z = -1.653782 angstrom
           Maximum rank =  0   Radius =  0.325 angstrom
                   Q00  =   0.057315

H          x =  2.393103  y =  1.296520  z = -1.929782 angstrom
           Maximum rank =  0   Radius =  0.325 angstrom
                   Q00  =   0.071941

H          x = -0.092897  y =  4.527520  z = -1.804782 angstrom
           Maximum rank =  0   Radius =  0.325 angstrom
                   Q00  =   0.105256

H          x =  1.367103  y =  3.610520  z = -2.062782 angstrom
           Maximum rank =  0   Radius =  0.325 angstrom
                   Q00  =   0.108610

H          x =  2.690103  y = -1.150480  z = -2.100782 angstrom
           Maximum rank =  0   Radius =  0.325 angstrom
                   Q00  =   0.062086

H          x =  0.966725  y =  4.214937  z = -0.413762 angstrom
           Maximum rank =  0   Radius =  0.325 angstrom
                   Q00  =   0.104792

C          x =  0.686103  y = -0.737480  z =  1.902218 angstrom
           Maximum rank =  0   Radius =  0.650 angstrom
                   Q00  =  -0.124098

C          x =  1.708103  y = -0.755480  z =  3.020218 angstrom
           Maximum rank =  0   Radius =  0.650 angstrom
                   Q00  =  -0.209788

C          x = -0.453897  y = -1.714480  z =  2.144218 angstrom
           Maximum rank =  0   Radius =  0.650 angstrom
                   Q00  =   0.805677

O          x = -1.386897  y = -1.428480  z =  2.892218 angstrom
           Maximum rank =  0   Radius =  0.650 angstrom
                   Q00  =  -0.809168

N          x = -0.391897  y = -2.878480  z =  1.510218 angstrom
           Maximum rank =  0   Radius =  0.650 angstrom
                   Q00  =  -0.510406

H          x =  0.284103  y =  0.268520  z =  1.774218 angstrom
           Maximum rank =  0   Radius =  0.325 angstrom
                   Q00  =   0.104128

H          x =  1.207103  y = -1.005480  z =  0.987218 angstrom
           Maximum rank =  0   Radius =  0.325 angstrom
                   Q00  =   0.062587

H          x =  2.613103  y = -0.280480  z =  2.658218 angstrom
           Maximum rank =  0   Radius =  0.325 angstrom
                   Q00  =   0.088429

H          x =  1.959103  y = -1.798480  z =  3.218218 angstrom
           Maximum rank =  0   Radius =  0.325 angstrom
                   Q00  =   0.067516

H          x = -1.133897  y = -3.547480  z =  1.654218 angstrom
           Maximum rank =  0   Radius =  0.325 angstrom
                   Q00  =   0.212641

H          x =  0.376103  y = -3.074480  z =  0.890218 angstrom
           Maximum rank =  0   Radius =  0.325 angstrom
                   Q00  =   0.209115

H          x =  1.392147  y = -0.283700  z =  3.962338 angstrom
           Maximum rank =  0   Radius =  0.325 angstrom
                   Q00  =   0.099045

Total multipoles referred to origin at
           x =   0.000000,  y =    0.000000,  z =    0.000000 angstrom
                   Q00  =  -0.000000

Finished at 23:24:26 on 27 Apr 2020

  DMA results are available in the Python driver through the
	  variable('DMA DISTRIBUTED MULTIPOLES')
  and
	  variable('DMA TOTAL MULTIPOLES')
  commands.

    Psi4 stopped on: Monday, 27 April 2020 11:24PM
    Psi4 wall time for execution: 0:11:44.86

*** Psi4 exiting successfully. Buy a developer a beer!
