                               Psi4 1.3.2 release

  ==> Input File <==

--------------------------------------------------------------------------
import numpy as np
set {scf_type pk
basis cc-pvdz
d_convergence 10
gdma_switch   0
gdma_limit    0
gdma_origin   [ 0.0,  0.0,  0.0 ]
}
molecule test {
    units Angstrom
    0 1
    --
    0 1
    C               -2.455746020847277     0.439293726758594    -0.523443985478300
    C               -0.367746020847277     1.901293726758594    -0.475443985478300
    C               -1.311746020847277     1.115293726758594     0.185556014521700
    C                0.667253979152723     2.505293726758594     0.230556014521700
    C                0.753253979152723     2.346293726758594     1.600556014521700
    C               -1.203746020847277     0.958293726758593     1.555556014521700
    C               -0.178746020847277     1.572293726758594     2.259556014521700
    H               -0.405746020847277     2.063293726758594    -1.541443985478300
    H                1.404253979152723     3.090293726758593    -0.296443985478300
    H               -3.398746020847277     0.839293726758593    -0.151443985478300
    H               -2.436746020847277    -0.608706273241406    -0.236443985478300
    H                1.556253979152723     2.817293726758594     2.151556014521700
    H               -1.927746020847277     0.355293726758594     2.085556014521700
    H               -0.095746020847277     1.426293726758594     3.327556014521700
    H               -2.437726020847277     0.503453726758594    -1.621423165478300
    C                1.775253979152723    -1.117706273241406    -0.567443985478300
    C                0.357253979152723    -3.483706273241406    -0.330443985478300
    S                0.768253979152723    -2.235706273241407    -1.551443985478300
    H                2.559253979152723    -1.673706273241407    -0.053443985478300
    H                2.231253979152723    -0.370706273241406    -1.217443985478300
    H                1.157253979152723    -0.606706273241407     0.170556014521700
    H                1.251253979152723    -3.726706273241406     0.233556014521700
    H               -0.028746020847277    -4.370706273241407    -0.831443985478300
    H               -0.406766020847277    -3.071456273241407     0.345078014521700

}
e, wfn = energy('scf', return_wfn=True)
gdma(wfn)
dmavals = variable('DMA DISTRIBUTED MULTIPOLES')
charges = np.array(dmavals)
print(charges)
np.save('SSI-052PHE-056MET-1-dimer.npy', np.array(charges))--------------------------------------------------------------------------

*** tstart() called on ds3
*** at Mon Apr 27 18:02:31 2020

   => Loading Basis Set <=

    Name: CC-PVDZ
    Role: ORBITAL
    Keyword: BASIS
    atoms 1-7, 16-17  entry C          line   138 file /theoryfs2/ds/metcalf/miniconda2/envs/tf2gpu/share/psi4/basis/cc-pvdz.gbs
    atoms 8-15, 19-24 entry H          line    22 file /theoryfs2/ds/metcalf/miniconda2/envs/tf2gpu/share/psi4/basis/cc-pvdz.gbs
    atoms 18          entry S          line   598 file /theoryfs2/ds/metcalf/miniconda2/envs/tf2gpu/share/psi4/basis/cc-pvdz.gbs

         ---------------------------------------------------------
                                   SCF
               by Justin Turney, Rob Parrish, Andy Simmonett
                          and Daniel G. A. Smith
                              RHF Reference
                        1 Threads,    500 MiB Core
         ---------------------------------------------------------

  ==> Geometry <==

    Molecular point group: c1
    Full point group: C1

    Geometry (in Angstrom), charge = 0, multiplicity = 1:

       Center              X                  Y                   Z               Mass
    ------------   -----------------  -----------------  -----------------  -----------------
         C           -2.455746020847     0.439293726759    -0.523443985478    12.000000000000
         C           -0.367746020847     1.901293726759    -0.475443985478    12.000000000000
         C           -1.311746020847     1.115293726759     0.185556014522    12.000000000000
         C            0.667253979153     2.505293726759     0.230556014522    12.000000000000
         C            0.753253979153     2.346293726759     1.600556014522    12.000000000000
         C           -1.203746020847     0.958293726759     1.555556014522    12.000000000000
         C           -0.178746020847     1.572293726759     2.259556014522    12.000000000000
         H           -0.405746020847     2.063293726759    -1.541443985478     1.007825032230
         H            1.404253979153     3.090293726759    -0.296443985478     1.007825032230
         H           -3.398746020847     0.839293726759    -0.151443985478     1.007825032230
         H           -2.436746020847    -0.608706273241    -0.236443985478     1.007825032230
         H            1.556253979153     2.817293726759     2.151556014522     1.007825032230
         H           -1.927746020847     0.355293726759     2.085556014522     1.007825032230
         H           -0.095746020847     1.426293726759     3.327556014522     1.007825032230
         H           -2.437726020847     0.503453726759    -1.621423165478     1.007825032230
         C            1.775253979153    -1.117706273241    -0.567443985478    12.000000000000
         C            0.357253979153    -3.483706273241    -0.330443985478    12.000000000000
         S            0.768253979153    -2.235706273241    -1.551443985478    31.972071174400
         H            2.559253979153    -1.673706273241    -0.053443985478     1.007825032230
         H            2.231253979153    -0.370706273241    -1.217443985478     1.007825032230
         H            1.157253979153    -0.606706273241     0.170556014522     1.007825032230
         H            1.251253979153    -3.726706273241     0.233556014522     1.007825032230
         H           -0.028746020847    -4.370706273241    -0.831443985478     1.007825032230
         H           -0.406766020847    -3.071456273241     0.345078014522     1.007825032230

  Running in c1 symmetry.

  Rotational constants: A =      0.05183  B =      0.01874  C =      0.01721 [cm^-1]
  Rotational constants: A =   1553.71699  B =    561.93132  C =    515.87181 [MHz]
  Nuclear repulsion =  570.844976775783152

  Charge       = 0
  Multiplicity = 1
  Electrons    = 84
  Nalpha       = 42
  Nbeta        = 42

  ==> Algorithm <==

  SCF Algorithm Type is PK.
  DIIS enabled.
  MOM disabled.
  Fractional occupation disabled.
  Guess Type is SAD.
  Energy threshold   = 1.00e-06
  Density threshold  = 1.00e-10
  Integral threshold = 0.00e+00

  ==> Primary Basis <==

  Basis Set: CC-PVDZ
    Blend: CC-PVDZ
    Number of shells: 104
    Number of basis function: 214
    Number of Cartesian functions: 224
    Spherical Harmonics?: true
    Max angular momentum: 2

  ==> Pre-Iterations <==

   -------------------------------------------------------
    Irrep   Nso     Nmo     Nalpha   Nbeta   Ndocc  Nsocc
   -------------------------------------------------------
     A        214     214       0       0       0       0
   -------------------------------------------------------
    Total     214     214      42      42      42       0
   -------------------------------------------------------

  ==> Integral Setup <==

  Using integral reordering PK algorithm.
  Sizing the integral batches needed.
  Building batch lookup table.
   Calculation information:
      Number of atoms:                  24
      Number of AO shells:             104
      Number of primitives:            318
      Number of atomic orbitals:       224
      Number of basis functions:       214

      Integral cutoff                 1.00e-12
      Number of threads:                 1

	Batch   1 pq = [       0,    9405] index = [             0,44231715] size =     44231715
	Batch   2 pq = [    9405,   13301] index = [      44231715,88464951] size =     44233236
	Batch   3 pq = [   13301,   16290] index = [      88464951,132690195] size =     44225244
	Batch   4 pq = [   16290,   18810] index = [     132690195,176917455] size =     44227260
	Batch   5 pq = [   18810,   21030] index = [     176917455,221140965] size =     44223510
	Batch   6 pq = [   21030,   23005] index = [     221140965,264626515] size =     43485550
  Task number: 24
  Buffer size: 11059200
  Buffer per thread: 2
  We computed 14697156 shell quartets total.
  Whereas there are 14908530 unique shell quartets.

  ==> DiskJK: Disk-Based J/K Matrices <==

    J tasked:                  Yes
    K tasked:                  Yes
    wK tasked:                  No
    Memory [MiB]:              375
    Schwarz Cutoff:          1E-12

    OpenMP threads:              1

  Minimum eigenvalue in the overlap matrix is 2.9780368172E-04.
  Using Symmetric Orthogonalization.

  SCF Guess: Superposition of Atomic Densities via on-the-fly atomic UHF.

  ==> Iterations <==

                        Total Energy        Delta E     RMS |[F,P]|

   @RHF iter SAD:  -745.50848411361540   -7.45508e+02   0.00000e+00
   @RHF iter   1:  -746.30507095539338   -7.96587e-01   2.52194e-03 DIIS
   @RHF iter   2:  -746.48858239821482   -1.83511e-01   9.97553e-04 DIIS
   @RHF iter   3:  -746.51394970317108   -2.53673e-02   2.47506e-04 DIIS
   @RHF iter   4:  -746.51648705952698   -2.53736e-03   5.36732e-05 DIIS
   @RHF iter   5:  -746.51657897371354   -9.19142e-05   1.65275e-05 DIIS
   @RHF iter   6:  -746.51658686228041   -7.88857e-06   4.81803e-06 DIIS
   @RHF iter   7:  -746.51658767551930   -8.13239e-07   1.30496e-06 DIIS
   @RHF iter   8:  -746.51658774380849   -6.82892e-08   3.31778e-07 DIIS
   @RHF iter   9:  -746.51658775272051   -8.91202e-09   1.18376e-07 DIIS
   @RHF iter  10:  -746.51658775428814   -1.56763e-09   5.63790e-08 DIIS
   @RHF iter  11:  -746.51658775468468   -3.96540e-10   2.38905e-08 DIIS
   @RHF iter  12:  -746.51658775478074   -9.60654e-11   8.26332e-09 DIIS
   @RHF iter  13:  -746.51658775478825   -7.50333e-12   2.86146e-09 DIIS
   @RHF iter  14:  -746.51658775478836   -1.13687e-13   7.91241e-10 DIIS
   @RHF iter  15:  -746.51658775478631    2.04636e-12   3.29373e-10 DIIS
   @RHF iter  16:  -746.51658775478927   -2.95586e-12   1.60643e-10 DIIS
   @RHF iter  17:  -746.51658775478484    4.43379e-12   6.79810e-11 DIIS
  Energy and wave function converged.

  ==> Post-Iterations <==

    Orbital Energies [Eh]
    ---------------------

    Doubly Occupied:

       1A    -91.928124     2A    -11.252186     3A    -11.245050
       4A    -11.241524     5A    -11.235499     6A    -11.234633
       7A    -11.230504     8A    -11.229825     9A    -11.229656
      10A    -11.226391    11A     -8.932314    12A     -6.614428
      13A     -6.612855    14A     -6.610599    15A     -1.158265
      16A     -1.058418    17A     -1.047227    18A     -1.014591
      19A     -0.945773    20A     -0.932270    21A     -0.826766
      22A     -0.798088    23A     -0.797583    24A     -0.693896
      25A     -0.633833    26A     -0.630290    27A     -0.602422
      28A     -0.595261    29A     -0.584053    30A     -0.572555
      31A     -0.567345    32A     -0.564881    33A     -0.555449
      34A     -0.536481    35A     -0.495021    36A     -0.487600
      37A     -0.486539    38A     -0.481750    39A     -0.419618
      40A     -0.334965    41A     -0.324927    42A     -0.323611

    Virtual:

      43A      0.132997    44A      0.143546    45A      0.167031
      46A      0.184505    47A      0.201972    48A      0.205220
      49A      0.215693    50A      0.236147    51A      0.240520
      52A      0.247187    53A      0.256071    54A      0.261221
      55A      0.270287    56A      0.279179    57A      0.288702
      58A      0.298521    59A      0.315730    60A      0.322152
      61A      0.371709    62A      0.378458    63A      0.453036
      64A      0.463116    65A      0.474550    66A      0.499861
      67A      0.514889    68A      0.552202    69A      0.566109
      70A      0.577933    71A      0.595501    72A      0.603758
      73A      0.614962    74A      0.642658    75A      0.682128
      76A      0.693289    77A      0.703769    78A      0.707789
      79A      0.715443    80A      0.737327    81A      0.739835
      82A      0.747307    83A      0.754215    84A      0.759513
      85A      0.770403    86A      0.785529    87A      0.802201
      88A      0.807565    89A      0.810034    90A      0.827624
      91A      0.832479    92A      0.854359    93A      0.858832
      94A      0.863904    95A      0.869497    96A      0.884589
      97A      0.890435    98A      0.893785    99A      0.895705
     100A      0.900591   101A      0.905053   102A      0.914042
     103A      0.932342   104A      0.935425   105A      0.938025
     106A      0.955899   107A      0.964234   108A      0.981779
     109A      0.991234   110A      1.003091   111A      1.035216
     112A      1.117730   113A      1.125187   114A      1.143147
     115A      1.153663   116A      1.157451   117A      1.193066
     118A      1.205054   119A      1.221947   120A      1.241517
     121A      1.252776   122A      1.260697   123A      1.275388
     124A      1.295673   125A      1.309047   126A      1.313129
     127A      1.323935   128A      1.328116   129A      1.336992
     130A      1.383641   131A      1.390438   132A      1.425581
     133A      1.486586   134A      1.495102   135A      1.517872
     136A      1.525651   137A      1.573459   138A      1.598387
     139A      1.666737   140A      1.672612   141A      1.686594
     142A      1.690763   143A      1.740024   144A      1.743890
     145A      1.762757   146A      1.796731   147A      1.833668
     148A      1.853968   149A      1.875499   150A      1.886344
     151A      1.889193   152A      1.898711   153A      1.908333
     154A      1.911793   155A      1.922481   156A      1.925930
     157A      1.928343   158A      1.941523   159A      1.959968
     160A      1.966500   161A      1.972123   162A      1.985396
     163A      1.989771   164A      1.997345   165A      2.015207
     166A      2.025615   167A      2.036322   168A      2.038490
     169A      2.058723   170A      2.089457   171A      2.093512
     172A      2.117233   173A      2.137312   174A      2.163802
     175A      2.177433   176A      2.183793   177A      2.204166
     178A      2.210861   179A      2.243426   180A      2.246195
     181A      2.275818   182A      2.279833   183A      2.299258
     184A      2.321468   185A      2.395278   186A      2.415602
     187A      2.443925   188A      2.452203   189A      2.453046
     190A      2.468333   191A      2.478428   192A      2.520067
     193A      2.535827   194A      2.645914   195A      2.728900
     196A      2.743452   197A      2.752011   198A      2.768932
     199A      2.781827   200A      2.783341   201A      2.798195
     202A      2.800415   203A      2.811228   204A      2.823558
     205A      2.858284   206A      2.862610   207A      2.869991
     208A      2.994987   209A      3.016099   210A      3.054643
     211A      3.177780   212A      3.215889   213A      3.311567
     214A      3.988369

    Final Occupation by Irrep:
              A
    DOCC [    42 ]

  @RHF Final Energy:  -746.51658775478484

   => Energetics <=

    Nuclear Repulsion Energy =            570.8449767757831523
    One-Electron Energy =               -2154.1370008646313181
    Two-Electron Energy =                 836.7754363340633290
    Total Energy =                       -746.5165877547848368

Computation Completed

Properties will be evaluated at   0.000000,   0.000000,   0.000000 [a0]

Properties computed using the SCF density matrix

  Nuclear Dipole Moment: [e a0]
     X:    -0.8970      Y:    -3.1840      Z:     2.1755

  Electronic Dipole Moment: [e a0]
     X:     0.9373      Y:     3.1379      Z:    -1.5851

  Dipole Moment: [e a0]
     X:     0.0403      Y:    -0.0461      Z:     0.5904     Total:     0.5936

  Dipole Moment: [D]
     X:     0.1024      Y:    -0.1172      Z:     1.5008     Total:     1.5088

*** tstop() called on ds3 at Mon Apr 27 18:05:40 2020
Module time:
	user time   =     124.71 seconds =       2.08 minutes
	system time =      38.25 seconds =       0.64 minutes
	total time  =        189 seconds =       3.15 minutes
Total time:
	user time   =     124.71 seconds =       2.08 minutes
	system time =      38.25 seconds =       0.64 minutes
	total time  =        189 seconds =       3.15 minutes
                                     G D M A

                                 by Anthony Stone

                           version 2.2.06, 22 June 2011

               Distributed Multipoles from Gaussian wavefunctions

Starting at 18:5:40 on 27 Apr 2020

Using SCF density matrix from file ./SSI/SSI-052PHE-056MET-1-dimer.test.18714.fchk

                         Distributed Multipole Analysis

Standard DMA

Positions and radii in angstrom
Multipole moments in atomic units, ea_0^k for rank k

C          x = -2.455746  y =  0.439294  z = -0.523444 angstrom
           Maximum rank =  0   Radius =  0.650 angstrom
                   Q00  =  -0.205751

C          x = -0.367746  y =  1.901294  z = -0.475444 angstrom
           Maximum rank =  0   Radius =  0.650 angstrom
                   Q00  =  -0.069395

C          x = -1.311746  y =  1.115294  z =  0.185556 angstrom
           Maximum rank =  0   Radius =  0.650 angstrom
                   Q00  =  -0.085687

C          x =  0.667254  y =  2.505294  z =  0.230556 angstrom
           Maximum rank =  0   Radius =  0.650 angstrom
                   Q00  =  -0.071087

C          x =  0.753254  y =  2.346294  z =  1.600556 angstrom
           Maximum rank =  0   Radius =  0.650 angstrom
                   Q00  =  -0.088360

C          x = -1.203746  y =  0.958294  z =  1.555556 angstrom
           Maximum rank =  0   Radius =  0.650 angstrom
                   Q00  =  -0.052702

C          x = -0.178746  y =  1.572294  z =  2.259556 angstrom
           Maximum rank =  0   Radius =  0.650 angstrom
                   Q00  =  -0.023437

H          x = -0.405746  y =  2.063294  z = -1.541444 angstrom
           Maximum rank =  0   Radius =  0.325 angstrom
                   Q00  =   0.059682

H          x =  1.404254  y =  3.090294  z = -0.296444 angstrom
           Maximum rank =  0   Radius =  0.325 angstrom
                   Q00  =   0.063268

H          x = -3.398746  y =  0.839294  z = -0.151444 angstrom
           Maximum rank =  0   Radius =  0.325 angstrom
                   Q00  =   0.097368

H          x = -2.436746  y = -0.608706  z = -0.236444 angstrom
           Maximum rank =  0   Radius =  0.325 angstrom
                   Q00  =   0.100857

H          x =  1.556254  y =  2.817294  z =  2.151556 angstrom
           Maximum rank =  0   Radius =  0.325 angstrom
                   Q00  =   0.058738

H          x = -1.927746  y =  0.355294  z =  2.085556 angstrom
           Maximum rank =  0   Radius =  0.325 angstrom
                   Q00  =   0.052296

H          x = -0.095746  y =  1.426294  z =  3.327556 angstrom
           Maximum rank =  0   Radius =  0.325 angstrom
                   Q00  =   0.062036

H          x = -2.437726  y =  0.503454  z = -1.621423 angstrom
           Maximum rank =  0   Radius =  0.325 angstrom
                   Q00  =   0.108184

C          x =  1.775254  y = -1.117706  z = -0.567444 angstrom
           Maximum rank =  0   Radius =  0.650 angstrom
                   Q00  =  -0.352121

C          x =  0.357254  y = -3.483706  z = -0.330444 angstrom
           Maximum rank =  0   Radius =  0.650 angstrom
                   Q00  =  -0.341452

S          x =  0.768254  y = -2.235706  z = -1.551444 angstrom
           Maximum rank =  0   Radius =  0.650 angstrom
                   Q00  =   0.102092

H          x =  2.559254  y = -1.673706  z = -0.053444 angstrom
           Maximum rank =  0   Radius =  0.325 angstrom
                   Q00  =   0.081121

H          x =  2.231254  y = -0.370706  z = -1.217444 angstrom
           Maximum rank =  0   Radius =  0.325 angstrom
                   Q00  =   0.118448

H          x =  1.157254  y = -0.606706  z =  0.170556 angstrom
           Maximum rank =  0   Radius =  0.325 angstrom
                   Q00  =   0.098947

H          x =  1.251254  y = -3.726706  z =  0.233556 angstrom
           Maximum rank =  0   Radius =  0.325 angstrom
                   Q00  =   0.088016

H          x = -0.028746  y = -4.370706  z = -0.831444 angstrom
           Maximum rank =  0   Radius =  0.325 angstrom
                   Q00  =   0.119244

H          x = -0.406766  y = -3.071456  z =  0.345078 angstrom
           Maximum rank =  0   Radius =  0.325 angstrom
                   Q00  =   0.079696

Total multipoles referred to origin at
           x =   0.000000,  y =    0.000000,  z =    0.000000 angstrom
                   Q00  =  -0.000000

Finished at 18:5:40 on 27 Apr 2020

  DMA results are available in the Python driver through the
	  variable('DMA DISTRIBUTED MULTIPOLES')
  and
	  variable('DMA TOTAL MULTIPOLES')
  commands.

    Psi4 stopped on: Monday, 27 April 2020 06:05PM
    Psi4 wall time for execution: 0:03:08.64

*** Psi4 exiting successfully. Buy a developer a beer!
