                               Psi4 1.3.2 release

  ==> Input File <==

--------------------------------------------------------------------------
import numpy as np
set {scf_type pk
basis cc-pvdz
d_convergence 10
gdma_switch   0
gdma_limit    0
gdma_origin   [ 0.0,  0.0,  0.0 ]
}
molecule test {
    units Angstrom
    0 1
    --
    0 1
    C               -0.888295583136058    -0.127690888544458    -1.438110061727629
    C               -1.987295583136058    -0.611690888544458    -2.306110061727629
    H               -0.644295583136058     0.905309111455542    -1.668110061727629
    H               -1.213295583136058    -0.176690888544458    -0.400110061727629
    H                0.001704416863942    -0.744690888544458    -1.560110061727630
    H               -2.856295583136059     0.037309111455542    -2.188110061727630
    H               -2.247295583136059    -1.610690888544458    -1.955110061727630
    H               -1.675893583136059    -0.641244888544457    -3.360700061727629
    C                1.664704416863941     0.626309111455542     1.159889938272370
    C                1.210704416863942     0.111309111455542     2.579889938272371
    H                1.105704416863941     1.524309111455542     0.888889938272371
    H                2.723704416863942     0.875309111455542     1.214889938272370
    H                1.510704416863942    -0.146690888544458     0.405889938272371
    H                1.421704416863942     0.885309111455542     3.311889938272371
    H                0.128360416863942    -0.075054888544457     2.518249938272371
    H                1.747364416863941    -0.811483888544458     2.845309938272371

}
e, wfn = energy('scf', return_wfn=True)
gdma(wfn)
dmavals = variable('DMA DISTRIBUTED MULTIPOLES')
charges = np.array(dmavals)
print(charges)
np.save('SSI-105ILE-135LEU-1-dimer.npy', np.array(charges))--------------------------------------------------------------------------

*** tstart() called on ds3
*** at Mon Apr 27 18:54:48 2020

   => Loading Basis Set <=

    Name: CC-PVDZ
    Role: ORBITAL
    Keyword: BASIS
    atoms 1-2, 9-10  entry C          line   138 file /theoryfs2/ds/metcalf/miniconda2/envs/tf2gpu/share/psi4/basis/cc-pvdz.gbs
    atoms 3-8, 11-16 entry H          line    22 file /theoryfs2/ds/metcalf/miniconda2/envs/tf2gpu/share/psi4/basis/cc-pvdz.gbs

         ---------------------------------------------------------
                                   SCF
               by Justin Turney, Rob Parrish, Andy Simmonett
                          and Daniel G. A. Smith
                              RHF Reference
                        1 Threads,    500 MiB Core
         ---------------------------------------------------------

  ==> Geometry <==

    Molecular point group: c1
    Full point group: C1

    Geometry (in Angstrom), charge = 0, multiplicity = 1:

       Center              X                  Y                   Z               Mass
    ------------   -----------------  -----------------  -----------------  -----------------
         C           -0.888295583136    -0.127690888544    -1.438110061728    12.000000000000
         C           -1.987295583136    -0.611690888544    -2.306110061728    12.000000000000
         H           -0.644295583136     0.905309111456    -1.668110061728     1.007825032230
         H           -1.213295583136    -0.176690888544    -0.400110061728     1.007825032230
         H            0.001704416864    -0.744690888544    -1.560110061728     1.007825032230
         H           -2.856295583136     0.037309111456    -2.188110061728     1.007825032230
         H           -2.247295583136    -1.610690888544    -1.955110061728     1.007825032230
         H           -1.675893583136    -0.641244888544    -3.360700061728     1.007825032230
         C            1.664704416864     0.626309111456     1.159889938272    12.000000000000
         C            1.210704416864     0.111309111456     2.579889938272    12.000000000000
         H            1.105704416864     1.524309111456     0.888889938272     1.007825032230
         H            2.723704416864     0.875309111456     1.214889938272     1.007825032230
         H            1.510704416864    -0.146690888544     0.405889938272     1.007825032230
         H            1.421704416864     0.885309111456     3.311889938272     1.007825032230
         H            0.128360416864    -0.075054888544     2.518249938272     1.007825032230
         H            1.747364416864    -0.811483888544     2.845309938272     1.007825032230

  Running in c1 symmetry.

  Rotational constants: A =      0.57385  B =      0.04487  C =      0.04298 [cm^-1]
  Rotational constants: A =  17203.47169  B =   1345.07389  C =   1288.54050 [MHz]
  Nuclear repulsion =  121.238257638291515

  Charge       = 0
  Multiplicity = 1
  Electrons    = 36
  Nalpha       = 18
  Nbeta        = 18

  ==> Algorithm <==

  SCF Algorithm Type is PK.
  DIIS enabled.
  MOM disabled.
  Fractional occupation disabled.
  Guess Type is SAD.
  Energy threshold   = 1.00e-06
  Density threshold  = 1.00e-10
  Integral threshold = 0.00e+00

  ==> Primary Basis <==

  Basis Set: CC-PVDZ
    Blend: CC-PVDZ
    Number of shells: 60
    Number of basis function: 116
    Number of Cartesian functions: 120
    Spherical Harmonics?: true
    Max angular momentum: 2

  ==> Pre-Iterations <==

   -------------------------------------------------------
    Irrep   Nso     Nmo     Nalpha   Nbeta   Ndocc  Nsocc
   -------------------------------------------------------
     A        116     116       0       0       0       0
   -------------------------------------------------------
    Total     116     116      18      18      18       0
   -------------------------------------------------------

  ==> Integral Setup <==

  Using integral reordering PK algorithm.
  Sizing the integral batches needed.
  Building batch lookup table.
   Calculation information:
      Number of atoms:                  16
      Number of AO shells:              60
      Number of primitives:            148
      Number of atomic orbitals:       120
      Number of basis functions:       116

      Integral cutoff                 1.00e-12
      Number of threads:                 1

	Batch   1 pq = [       0,    6786] index = [             0,23028291] size =     23028291
  Task number: 3
  Buffer size: 11059200
  Buffer per thread: 2
  We computed 1391473 shell quartets total.
  Whereas there are 1675365 unique shell quartets.

  ==> DiskJK: Disk-Based J/K Matrices <==

    J tasked:                  Yes
    K tasked:                  Yes
    wK tasked:                  No
    Memory [MiB]:              375
    Schwarz Cutoff:          1E-12

    OpenMP threads:              1

  Minimum eigenvalue in the overlap matrix is 5.9822549164E-03.
  Using Symmetric Orthogonalization.

  SCF Guess: Superposition of Atomic Densities via on-the-fly atomic UHF.

  ==> Iterations <==

                        Total Energy        Delta E     RMS |[F,P]|

   @RHF iter SAD:  -157.36011028258079   -1.57360e+02   0.00000e+00
   @RHF iter   1:  -158.30323749200187   -9.43127e-01   4.23573e-03 DIIS
   @RHF iter   2:  -158.43766898073017   -1.34431e-01   1.80389e-03 DIIS
   @RHF iter   3:  -158.46125353438202   -2.35846e-02   3.50550e-04 DIIS
   @RHF iter   4:  -158.46308544338535   -1.83191e-03   3.97726e-05 DIIS
   @RHF iter   5:  -158.46310954787708   -2.41045e-05   8.66995e-06 DIIS
   @RHF iter   6:  -158.46311044015621   -8.92279e-07   2.15075e-06 DIIS
   @RHF iter   7:  -158.46311048479402   -4.46378e-08   3.03275e-07 DIIS
   @RHF iter   8:  -158.46311048597988   -1.18587e-09   4.31309e-08 DIIS
   @RHF iter   9:  -158.46311048601194   -3.20597e-11   8.47788e-09 DIIS
   @RHF iter  10:  -158.46311048601331   -1.36424e-12   2.23280e-09 DIIS
   @RHF iter  11:  -158.46311048601308    2.27374e-13   6.03966e-10 DIIS
   @RHF iter  12:  -158.46311048601299    8.52651e-14   1.60659e-10 DIIS
   @RHF iter  13:  -158.46311048601314   -1.42109e-13   3.04815e-11 DIIS
  Energy and wave function converged.

  ==> Post-Iterations <==

    Orbital Energies [Eh]
    ---------------------

    Doubly Occupied:

       1A    -11.221865     2A    -11.218390     3A    -11.214680
       4A    -11.212258     5A     -1.031863     6A     -1.006417
       7A     -0.838666     8A     -0.831303     9A     -0.606076
      10A     -0.605308    11A     -0.594809    12A     -0.592262
      13A     -0.510757    14A     -0.492546    15A     -0.490681
      16A     -0.482266    17A     -0.480363    18A     -0.479649

    Virtual:

      19A      0.171581    20A      0.195354    21A      0.221559
      22A      0.232643    23A      0.238011    24A      0.258818
      25A      0.267065    26A      0.274231    27A      0.279562
      28A      0.292894    29A      0.326562    30A      0.334670
      31A      0.381245    32A      0.405605    33A      0.560638
      34A      0.593852    35A      0.601973    36A      0.606891
      37A      0.619454    38A      0.628940    39A      0.680655
      40A      0.685145    41A      0.694859    42A      0.761418
      43A      0.821056    44A      0.877379    45A      0.885265
      46A      0.886637    47A      0.895002    48A      0.898581
      49A      0.902778    50A      0.908556    51A      0.919359
      52A      0.932873    53A      0.935108    54A      0.945886
      55A      0.983343    56A      0.999866    57A      1.124042
      58A      1.127488    59A      1.133307    60A      1.144858
      61A      1.229323    62A      1.257340    63A      1.462107
      64A      1.484797    65A      1.487065    66A      1.495425
      67A      1.563906    68A      1.589857    69A      1.675257
      70A      1.676709    71A      1.691304    72A      1.696194
      73A      1.838513    74A      1.859368    75A      1.862842
      76A      1.864569    77A      1.882221    78A      1.927163
      79A      1.932637    80A      1.934596    81A      1.947181
      82A      1.949915    83A      1.952418    84A      1.960665
      85A      1.976964    86A      1.983741    87A      1.997470
      88A      2.058556    89A      2.094569    90A      2.103261
      91A      2.128420    92A      2.135579    93A      2.265624
      94A      2.295524    95A      2.318930    96A      2.340210
      97A      2.451132    98A      2.467433    99A      2.471346
     100A      2.476945   101A      2.554288   102A      2.574704
     103A      2.581314   104A      2.587865   105A      2.766910
     106A      2.768926   107A      2.792698   108A      2.797171
     109A      2.818085   110A      2.837256   111A      2.856135
     112A      2.870997   113A      2.949981   114A      2.951680
     115A      2.965556   116A      2.969442

    Final Occupation by Irrep:
              A
    DOCC [    18 ]

  @RHF Final Energy:  -158.46311048601314

   => Energetics <=

    Nuclear Repulsion Energy =            121.2382576382915147
    One-Electron Energy =                -451.5824169091513909
    Two-Electron Energy =                 171.8810487848467687
    Total Energy =                       -158.4631104860131359

Computation Completed

Properties will be evaluated at   0.000000,   0.000000,   0.000000 [a0]

Properties computed using the SCF density matrix

  Nuclear Dipole Moment: [e a0]
     X:     0.0020      Y:     0.0197      Z:     0.0496

  Electronic Dipole Moment: [e a0]
     X:    -0.0021      Y:    -0.0119      Z:    -0.0532

  Dipole Moment: [e a0]
     X:    -0.0001      Y:     0.0078      Z:    -0.0036     Total:     0.0086

  Dipole Moment: [D]
     X:    -0.0003      Y:     0.0198      Z:    -0.0091     Total:     0.0218

*** tstop() called on ds3 at Mon Apr 27 18:54:57 2020
Module time:
	user time   =       6.79 seconds =       0.11 minutes
	system time =       2.77 seconds =       0.05 minutes
	total time  =          9 seconds =       0.15 minutes
Total time:
	user time   =       6.79 seconds =       0.11 minutes
	system time =       2.77 seconds =       0.05 minutes
	total time  =          9 seconds =       0.15 minutes
                                     G D M A

                                 by Anthony Stone

                           version 2.2.06, 22 June 2011

               Distributed Multipoles from Gaussian wavefunctions

Starting at 18:54:57 on 27 Apr 2020

Using SCF density matrix from file ./SSI/SSI-105ILE-135LEU-1-dimer.test.31216.fchk

                         Distributed Multipole Analysis

Standard DMA

Positions and radii in angstrom
Multipole moments in atomic units, ea_0^k for rank k

C          x = -0.888296  y = -0.127691  z = -1.438110 angstrom
           Maximum rank =  0   Radius =  0.650 angstrom
                   Q00  =  -0.231576

C          x = -1.987296  y = -0.611691  z = -2.306110 angstrom
           Maximum rank =  0   Radius =  0.650 angstrom
                   Q00  =  -0.213746

H          x = -0.644296  y =  0.905309  z = -1.668110 angstrom
           Maximum rank =  0   Radius =  0.325 angstrom
                   Q00  =   0.075104

H          x = -1.213296  y = -0.176691  z = -0.400110 angstrom
           Maximum rank =  0   Radius =  0.325 angstrom
                   Q00  =   0.071827

H          x =  0.001704  y = -0.744691  z = -1.560110 angstrom
           Maximum rank =  0   Radius =  0.325 angstrom
                   Q00  =   0.073995

H          x = -2.856296  y =  0.037309  z = -2.188110 angstrom
           Maximum rank =  0   Radius =  0.325 angstrom
                   Q00  =   0.075952

H          x = -2.247296  y = -1.610691  z = -1.955110 angstrom
           Maximum rank =  0   Radius =  0.325 angstrom
                   Q00  =   0.072304

H          x = -1.675894  y = -0.641245  z = -3.360700 angstrom
           Maximum rank =  0   Radius =  0.325 angstrom
                   Q00  =   0.076183

C          x =  1.664704  y =  0.626309  z =  1.159890 angstrom
           Maximum rank =  0   Radius =  0.650 angstrom
                   Q00  =  -0.257309

C          x =  1.210704  y =  0.111309  z =  2.579890 angstrom
           Maximum rank =  0   Radius =  0.650 angstrom
                   Q00  =  -0.241051

H          x =  1.105704  y =  1.524309  z =  0.888890 angstrom
           Maximum rank =  0   Radius =  0.325 angstrom
                   Q00  =   0.083592

H          x =  2.723704  y =  0.875309  z =  1.214890 angstrom
           Maximum rank =  0   Radius =  0.325 angstrom
                   Q00  =   0.078730

H          x =  1.510704  y = -0.146691  z =  0.405890 angstrom
           Maximum rank =  0   Radius =  0.325 angstrom
                   Q00  =   0.088322

H          x =  1.421704  y =  0.885309  z =  3.311890 angstrom
           Maximum rank =  0   Radius =  0.325 angstrom
                   Q00  =   0.084719

H          x =  0.128360  y = -0.075055  z =  2.518250 angstrom
           Maximum rank =  0   Radius =  0.325 angstrom
                   Q00  =   0.078879

H          x =  1.747364  y = -0.811484  z =  2.845310 angstrom
           Maximum rank =  0   Radius =  0.325 angstrom
                   Q00  =   0.084076

Total multipoles referred to origin at
           x =   0.000000,  y =    0.000000,  z =    0.000000 angstrom
                   Q00  =  -0.000000

Finished at 18:54:57 on 27 Apr 2020

  DMA results are available in the Python driver through the
	  variable('DMA DISTRIBUTED MULTIPOLES')
  and
	  variable('DMA TOTAL MULTIPOLES')
  commands.

    Psi4 stopped on: Monday, 27 April 2020 06:54PM
    Psi4 wall time for execution: 0:00:09.35

*** Psi4 exiting successfully. Buy a developer a beer!
