                               Psi4 1.3.2 release

  ==> Input File <==

--------------------------------------------------------------------------
import numpy as np
set {scf_type pk
basis cc-pvdz
d_convergence 10
gdma_switch   0
gdma_limit    0
gdma_origin   [ 0.0,  0.0,  0.0 ]
}
molecule test {
    units Angstrom
    0 1
    --
    0 1
    C               -2.284183019336715     3.901226919236453     0.140981871738494
    C               -0.671183019336715     0.605226919236453    -0.897018128261506
    C               -0.961183019336715     1.773226919236453    -0.184018128261506
    C               -1.380183019336714     0.306226919236453    -2.063018128261506
    C               -1.946183019336714     2.653226919236453    -0.639018128261506
    C               -2.369183019336715     1.177226919236453    -2.516018128261506
    C               -2.652183019336715     2.342226919236453    -1.804018128261506
    H                0.095816980663285    -0.069773080763547    -0.545018128261506
    H               -0.417183019336715     1.991226919236453     0.722981871738494
    H               -1.162183019336714    -0.600773080763547    -2.611018128261506
    H               -2.928183019336715     0.933226919236453    -3.406018128261506
    H               -2.248183019336715     3.661226919236453     1.204981871738494
    H               -3.310183019336715     4.196226919236453    -0.087018128261506
    H               -3.427183019336715     3.006226919236453    -2.160018128261505
    H               -1.610292019336715     4.749166919236454    -0.051044128261506
    C                0.379816980663285    -1.586773080763547     3.104981871738495
    C                2.062816980663285    -0.719773080763547     1.454981871738494
    C                1.213816980663285    -1.745773080763547     1.866981871738494
    C                2.867816980663285    -0.879773080763547     0.332981871738494
    C                1.178816980663285    -2.937773080763547     1.145981871738494
    C                2.829816980663285    -2.072773080763547    -0.384018128261506
    C                1.980816980663286    -3.103773080763547     0.019981871738494
    H                2.096816980663285     0.206226919236453     2.007981871738494
    H                3.521816980663285    -0.080773080763547     0.012981871738494
    H               -0.570183019336715    -2.105773080763547     2.972981871738495
    H                0.150816980663285    -0.528773080763547     3.244981871738495
    H                0.527816980663285    -3.738773080763547     1.459981871738494
    H                3.472816980663285    -2.200773080763547    -1.243018128261506
    H                1.957816980663285    -4.031773080763547    -0.531018128261506
    H                0.879841980663285    -1.959283080763547     4.011187871738494

}
e, wfn = energy('scf', return_wfn=True)
gdma(wfn)
dmavals = variable('DMA DISTRIBUTED MULTIPOLES')
charges = np.array(dmavals)
print(charges)
np.save('SSI-040PHE-116PHE-1-dimer.npy', np.array(charges))--------------------------------------------------------------------------

*** tstart() called on ds3
*** at Sun Apr 26 16:57:10 2020

   => Loading Basis Set <=

    Name: CC-PVDZ
    Role: ORBITAL
    Keyword: BASIS
    atoms 1-7, 16-22  entry C          line   138 file /theoryfs2/ds/metcalf/miniconda2/envs/tf2gpu/share/psi4/basis/cc-pvdz.gbs
    atoms 8-15, 23-30 entry H          line    22 file /theoryfs2/ds/metcalf/miniconda2/envs/tf2gpu/share/psi4/basis/cc-pvdz.gbs

         ---------------------------------------------------------
                                   SCF
               by Justin Turney, Rob Parrish, Andy Simmonett
                          and Daniel G. A. Smith
                              RHF Reference
                        1 Threads,    500 MiB Core
         ---------------------------------------------------------

  ==> Geometry <==

    Molecular point group: c1
    Full point group: C1

    Geometry (in Angstrom), charge = 0, multiplicity = 1:

       Center              X                  Y                   Z               Mass
    ------------   -----------------  -----------------  -----------------  -----------------
         C           -2.284183019337     3.901226919236     0.140981871738    12.000000000000
         C           -0.671183019337     0.605226919236    -0.897018128262    12.000000000000
         C           -0.961183019337     1.773226919236    -0.184018128262    12.000000000000
         C           -1.380183019337     0.306226919236    -2.063018128262    12.000000000000
         C           -1.946183019337     2.653226919236    -0.639018128262    12.000000000000
         C           -2.369183019337     1.177226919236    -2.516018128262    12.000000000000
         C           -2.652183019337     2.342226919236    -1.804018128262    12.000000000000
         H            0.095816980663    -0.069773080764    -0.545018128262     1.007825032230
         H           -0.417183019337     1.991226919236     0.722981871738     1.007825032230
         H           -1.162183019337    -0.600773080764    -2.611018128262     1.007825032230
         H           -2.928183019337     0.933226919236    -3.406018128262     1.007825032230
         H           -2.248183019337     3.661226919236     1.204981871738     1.007825032230
         H           -3.310183019337     4.196226919236    -0.087018128262     1.007825032230
         H           -3.427183019337     3.006226919236    -2.160018128262     1.007825032230
         H           -1.610292019337     4.749166919236    -0.051044128262     1.007825032230
         C            0.379816980663    -1.586773080764     3.104981871738    12.000000000000
         C            2.062816980663    -0.719773080764     1.454981871738    12.000000000000
         C            1.213816980663    -1.745773080764     1.866981871738    12.000000000000
         C            2.867816980663    -0.879773080764     0.332981871738    12.000000000000
         C            1.178816980663    -2.937773080764     1.145981871738    12.000000000000
         C            2.829816980663    -2.072773080764    -0.384018128262    12.000000000000
         C            1.980816980663    -3.103773080764     0.019981871738    12.000000000000
         H            2.096816980663     0.206226919236     2.007981871738     1.007825032230
         H            3.521816980663    -0.080773080764     0.012981871738     1.007825032230
         H           -0.570183019337    -2.105773080764     2.972981871738     1.007825032230
         H            0.150816980663    -0.528773080764     3.244981871738     1.007825032230
         H            0.527816980663    -3.738773080764     1.459981871738     1.007825032230
         H            3.472816980663    -2.200773080764    -1.243018128262     1.007825032230
         H            1.957816980663    -4.031773080764    -0.531018128262     1.007825032230
         H            0.879841980663    -1.959283080764     4.011187871738     1.007825032230

  Running in c1 symmetry.

  Rotational constants: A =      0.03794  B =      0.00989  C =      0.00897 [cm^-1]
  Rotational constants: A =   1137.52430  B =    296.50518  C =    268.93394 [MHz]
  Nuclear repulsion =  767.706961038099621

  Charge       = 0
  Multiplicity = 1
  Electrons    = 100
  Nalpha       = 50
  Nbeta        = 50

  ==> Algorithm <==

  SCF Algorithm Type is PK.
  DIIS enabled.
  MOM disabled.
  Fractional occupation disabled.
  Guess Type is SAD.
  Energy threshold   = 1.00e-06
  Density threshold  = 1.00e-10
  Integral threshold = 0.00e+00

  ==> Primary Basis <==

  Basis Set: CC-PVDZ
    Blend: CC-PVDZ
    Number of shells: 132
    Number of basis function: 276
    Number of Cartesian functions: 290
    Spherical Harmonics?: true
    Max angular momentum: 2

  ==> Pre-Iterations <==

   -------------------------------------------------------
    Irrep   Nso     Nmo     Nalpha   Nbeta   Ndocc  Nsocc
   -------------------------------------------------------
     A        276     276       0       0       0       0
   -------------------------------------------------------
    Total     276     276      50      50      50       0
   -------------------------------------------------------

  ==> Integral Setup <==

  Using integral reordering PK algorithm.
  Sizing the integral batches needed.
  Building batch lookup table.
   Calculation information:
      Number of atoms:                  30
      Number of AO shells:             132
      Number of primitives:            388
      Number of atomic orbitals:       290
      Number of basis functions:       276

      Integral cutoff                 1.00e-12
      Number of threads:                 1

	Batch   1 pq = [       0,    9405] index = [             0,44231715] size =     44231715
	Batch   2 pq = [    9405,   13301] index = [      44231715,88464951] size =     44233236
	Batch   3 pq = [   13301,   16290] index = [      88464951,132690195] size =     44225244
	Batch   4 pq = [   16290,   18810] index = [     132690195,176917455] size =     44227260
	Batch   5 pq = [   18810,   21030] index = [     176917455,221140965] size =     44223510
	Batch   6 pq = [   21030,   23037] index = [     221140965,265363203] size =     44222238
	Batch   7 pq = [   23037,   24883] index = [     265363203,309594286] size =     44231083
	Batch   8 pq = [   24883,   26601] index = [     309594286,353819901] size =     44225615
	Batch   9 pq = [   26601,   28214] index = [     353819901,398029005] size =     44209104
	Batch  10 pq = [   28214,   29740] index = [     398029005,442248670] size =     44219665
	Batch  11 pq = [   29740,   31191] index = [     442248670,486454836] size =     44206166
	Batch  12 pq = [   31191,   32578] index = [     486454836,530679331] size =     44224495
	Batch  13 pq = [   32578,   33908] index = [     530679331,574893186] size =     44213855
	Batch  14 pq = [   33908,   35188] index = [     574893186,619115266] size =     44222080
	Batch  15 pq = [   35188,   36423] index = [     619115266,663335676] size =     44220410
	Batch  16 pq = [   36423,   37617] index = [     663335676,707538153] size =     44202477
	Batch  17 pq = [   37617,   38226] index = [     707538153,730632651] size =     23094498
  Task number: 67
  Buffer size: 11059200
  Buffer per thread: 2
  We computed 35561494 shell quartets total.
  Whereas there are 38531031 unique shell quartets.

  ==> DiskJK: Disk-Based J/K Matrices <==

    J tasked:                  Yes
    K tasked:                  Yes
    wK tasked:                  No
    Memory [MiB]:              375
    Schwarz Cutoff:          1E-12

    OpenMP threads:              1

  Minimum eigenvalue in the overlap matrix is 3.0523462228E-04.
  Using Symmetric Orthogonalization.

  SCF Guess: Superposition of Atomic Densities via on-the-fly atomic UHF.

  ==> Iterations <==

                        Total Energy        Delta E     RMS |[F,P]|

   @RHF iter SAD:  -538.33678393460275   -5.38337e+02   0.00000e+00
   @RHF iter   1:  -539.23182363429055   -8.95040e-01   2.29195e-03 DIIS
   @RHF iter   2:  -539.48220125468208   -2.50378e-01   9.24919e-04 DIIS
   @RHF iter   3:  -539.51805361705703   -3.58524e-02   2.12577e-04 DIIS
   @RHF iter   4:  -539.52113917293457   -3.08556e-03   4.77068e-05 DIIS
   @RHF iter   5:  -539.52125237944074   -1.13207e-04   1.47807e-05 DIIS
   @RHF iter   6:  -539.52126267012045   -1.02907e-05   4.25791e-06 DIIS
   @RHF iter   7:  -539.52126369075961   -1.02064e-06   1.09480e-06 DIIS
   @RHF iter   8:  -539.52126377275295   -8.19933e-08   2.85172e-07 DIIS
   @RHF iter   9:  -539.52126378244498   -9.69203e-09   1.16127e-07 DIIS
   @RHF iter  10:  -539.52126378424975   -1.80478e-09   5.85432e-08 DIIS
   @RHF iter  11:  -539.52126378489368   -6.43922e-10   2.49390e-08 DIIS
   @RHF iter  12:  -539.52126378502828   -1.34605e-10   1.16746e-08 DIIS
   @RHF iter  13:  -539.52126378505011   -2.18279e-11   4.12614e-09 DIIS
   @RHF iter  14:  -539.52126378504499    5.11591e-12   1.03360e-09 DIIS
   @RHF iter  15:  -539.52126378504738   -2.38742e-12   3.57550e-10 DIIS
   @RHF iter  16:  -539.52126378504909   -1.70530e-12   1.49863e-10 DIIS
   @RHF iter  17:  -539.52126378505295   -3.86535e-12   7.88856e-11 DIIS
  Energy and wave function converged.

  ==> Post-Iterations <==

    Orbital Energies [Eh]
    ---------------------

    Doubly Occupied:

       1A    -11.242589     2A    -11.238876     3A    -11.237962
       4A    -11.237016     5A    -11.234078     6A    -11.232782
       7A    -11.232673     8A    -11.230447     9A    -11.229901
      10A    -11.228078    11A    -11.226893    12A    -11.225926
      13A    -11.225766    14A    -11.225239    15A     -1.155587
      16A     -1.144370    17A     -1.046436    18A     -1.037369
      19A     -1.015175    20A     -1.004085    21A     -0.932404
      22A     -0.925700    23A     -0.827620    24A     -0.818361
      25A     -0.797814    26A     -0.788839    27A     -0.693432
      28A     -0.684125    29A     -0.633536    30A     -0.632968
      31A     -0.624962    32A     -0.623981    33A     -0.586348
      34A     -0.580491    35A     -0.574441    36A     -0.572681
      37A     -0.564046    38A     -0.556092    39A     -0.535458
      40A     -0.530528    41A     -0.491696    42A     -0.487027
      43A     -0.484343    44A     -0.480068    45A     -0.476773
      46A     -0.474734    47A     -0.335903    48A     -0.326405
      49A     -0.323078    50A     -0.315926

    Virtual:

      51A      0.131724    52A      0.136293    53A      0.141063
      54A      0.146887    55A      0.170236    56A      0.193882
      57A      0.199965    58A      0.208810    59A      0.212093
      60A      0.236388    61A      0.239074    62A      0.248675
      63A      0.259677    64A      0.260691    65A      0.268356
      66A      0.278695    67A      0.284052    68A      0.289284
      69A      0.299908    70A      0.308519    71A      0.362788
      72A      0.370091    73A      0.375026    74A      0.381742
      75A      0.449780    76A      0.458029    77A      0.459231
      78A      0.465107    79A      0.479664    80A      0.480875
      81A      0.486847    82A      0.499164    83A      0.559989
      84A      0.566827    85A      0.589527    86A      0.600858
      87A      0.637678    88A      0.650336    89A      0.666309
      90A      0.676509    91A      0.684732    92A      0.687372
      93A      0.697330    94A      0.700534    95A      0.722580
      96A      0.729426    97A      0.731065    98A      0.735814
      99A      0.741145   100A      0.742222   101A      0.743706
     102A      0.751919   103A      0.755369   104A      0.761412
     105A      0.766681   106A      0.772025   107A      0.781400
     108A      0.785665   109A      0.788607   110A      0.822377
     111A      0.831162   112A      0.846940   113A      0.851607
     114A      0.860726   115A      0.862472   116A      0.869624
     117A      0.876705   118A      0.878025   119A      0.887293
     120A      0.894269   121A      0.895437   122A      0.899205
     123A      0.901157   124A      0.917838   125A      0.927165
     126A      0.930919   127A      0.939627   128A      0.941955
     129A      0.955583   130A      0.978451   131A      0.985589
     132A      0.997122   133A      1.008123   134A      1.036455
     135A      1.047258   136A      1.103785   137A      1.111187
     138A      1.125397   139A      1.137732   140A      1.148873
     141A      1.152733   142A      1.156204   143A      1.161405
     144A      1.183724   145A      1.190761   146A      1.217308
     147A      1.234915   148A      1.238997   149A      1.245620
     150A      1.246516   151A      1.252604   152A      1.257974
     153A      1.273262   154A      1.291335   155A      1.298883
     156A      1.302397   157A      1.309079   158A      1.317188
     159A      1.319935   160A      1.325025   161A      1.329137
     162A      1.354362   163A      1.415544   164A      1.423661
     165A      1.507102   166A      1.512125   167A      1.524168
     168A      1.526436   169A      1.555763   170A      1.563235
     171A      1.598682   172A      1.613486   173A      1.674913
     174A      1.685233   175A      1.700355   176A      1.701483
     177A      1.731460   178A      1.736428   179A      1.745653
     180A      1.753681   181A      1.754773   182A      1.763643
     183A      1.788710   184A      1.792563   185A      1.812807
     186A      1.831068   187A      1.854851   188A      1.862394
     189A      1.877184   190A      1.886200   191A      1.898419
     192A      1.902125   193A      1.910534   194A      1.911649
     195A      1.918097   196A      1.920314   197A      1.927764
     198A      1.932483   199A      1.941822   200A      1.943724
     201A      1.949210   202A      1.957816   203A      1.972460
     204A      1.975607   205A      1.984739   206A      1.988182
     207A      1.994188   208A      2.002324   209A      2.035174
     210A      2.039878   211A      2.060927   212A      2.066958
     213A      2.070294   214A      2.076113   215A      2.104794
     216A      2.111169   217A      2.141922   218A      2.145140
     219A      2.151323   220A      2.157354   221A      2.158482
     222A      2.168832   223A      2.171695   224A      2.174183
     225A      2.184933   226A      2.206146   227A      2.253084
     228A      2.260356   229A      2.275184   230A      2.281574
     231A      2.291104   232A      2.298238   233A      2.300941
     234A      2.308183   235A      2.310986   236A      2.321414
     237A      2.325795   238A      2.355416   239A      2.466387
     240A      2.467965   241A      2.479664   242A      2.486464
     243A      2.492158   244A      2.503757   245A      2.541167
     246A      2.542601   247A      2.620422   248A      2.623027
     249A      2.739766   250A      2.745001   251A      2.753127
     252A      2.764645   253A      2.767926   254A      2.774172
     255A      2.784899   256A      2.787326   257A      2.808356
     258A      2.844868   259A      2.847446   260A      2.853748
     261A      2.867360   262A      2.874197   263A      2.976947
     264A      2.983469   265A      3.007187   266A      3.012919
     267A      3.021411   268A      3.030301   269A      3.152995
     270A      3.157364   271A      3.197629   272A      3.200351
     273A      3.297585   274A      3.304839   275A      3.961280
     276A      3.968315

    Final Occupation by Irrep:
              A
    DOCC [    50 ]

  @RHF Final Energy:  -539.52126378505295

   => Energetics <=

    Nuclear Repulsion Energy =            767.7069610380996210
    One-Electron Energy =               -2251.7943943074496929
    Two-Electron Energy =                 944.5661694842972338
    Total Energy =                       -539.5212637850529518

Computation Completed

Properties will be evaluated at   0.000000,   0.000000,   0.000000 [a0]

Properties computed using the SCF density matrix

  Nuclear Dipole Moment: [e a0]
     X:    -2.7843      Y:     3.2128      Z:     4.6910

  Electronic Dipole Moment: [e a0]
     X:     2.7862      Y:    -3.2426      Z:    -4.4789

  Dipole Moment: [e a0]
     X:     0.0019      Y:    -0.0299      Z:     0.2121     Total:     0.2142

  Dipole Moment: [D]
     X:     0.0047      Y:    -0.0760      Z:     0.5392     Total:     0.5445

*** tstop() called on ds3 at Sun Apr 26 17:06:36 2020
Module time:
	user time   =     310.39 seconds =       5.17 minutes
	system time =     123.36 seconds =       2.06 minutes
	total time  =        566 seconds =       9.43 minutes
Total time:
	user time   =     310.39 seconds =       5.17 minutes
	system time =     123.36 seconds =       2.06 minutes
	total time  =        566 seconds =       9.43 minutes
                                     G D M A

                                 by Anthony Stone

                           version 2.2.06, 22 June 2011

               Distributed Multipoles from Gaussian wavefunctions

Starting at 17:6:36 on 26 Apr 2020

Using SCF density matrix from file ./SSI/SSI-040PHE-116PHE-1-dimer.test.17003.fchk

                         Distributed Multipole Analysis

Standard DMA

Positions and radii in angstrom
Multipole moments in atomic units, ea_0^k for rank k

C          x = -2.284183  y =  3.901227  z =  0.140982 angstrom
           Maximum rank =  0   Radius =  0.650 angstrom
                   Q00  =  -0.203086

C          x = -0.671183  y =  0.605227  z = -0.897018 angstrom
           Maximum rank =  0   Radius =  0.650 angstrom
                   Q00  =  -0.056859

C          x = -0.961183  y =  1.773227  z = -0.184018 angstrom
           Maximum rank =  0   Radius =  0.650 angstrom
                   Q00  =  -0.094910

C          x = -1.380183  y =  0.306227  z = -2.063018 angstrom
           Maximum rank =  0   Radius =  0.650 angstrom
                   Q00  =  -0.079810

C          x = -1.946183  y =  2.653227  z = -0.639018 angstrom
           Maximum rank =  0   Radius =  0.650 angstrom
                   Q00  =  -0.099762

C          x = -2.369183  y =  1.177227  z = -2.516018 angstrom
           Maximum rank =  0   Radius =  0.650 angstrom
                   Q00  =  -0.078502

C          x = -2.652183  y =  2.342227  z = -1.804018 angstrom
           Maximum rank =  0   Radius =  0.650 angstrom
                   Q00  =   0.004338

H          x =  0.095817  y = -0.069773  z = -0.545018 angstrom
           Maximum rank =  0   Radius =  0.325 angstrom
                   Q00  =   0.080453

H          x = -0.417183  y =  1.991227  z =  0.722982 angstrom
           Maximum rank =  0   Radius =  0.325 angstrom
                   Q00  =   0.049083

H          x = -1.162183  y = -0.600773  z = -2.611018 angstrom
           Maximum rank =  0   Radius =  0.325 angstrom
                   Q00  =   0.058759

H          x = -2.928183  y =  0.933227  z = -3.406018 angstrom
           Maximum rank =  0   Radius =  0.325 angstrom
                   Q00  =   0.062953

H          x = -2.248183  y =  3.661227  z =  1.204982 angstrom
           Maximum rank =  0   Radius =  0.325 angstrom
                   Q00  =   0.095920

H          x = -3.310183  y =  4.196227  z = -0.087018 angstrom
           Maximum rank =  0   Radius =  0.325 angstrom
                   Q00  =   0.096543

H          x = -3.427183  y =  3.006227  z = -2.160018 angstrom
           Maximum rank =  0   Radius =  0.325 angstrom
                   Q00  =   0.055854

H          x = -1.610292  y =  4.749167  z = -0.051044 angstrom
           Maximum rank =  0   Radius =  0.325 angstrom
                   Q00  =   0.104062

C          x =  0.379817  y = -1.586773  z =  3.104982 angstrom
           Maximum rank =  0   Radius =  0.650 angstrom
                   Q00  =  -0.197395

C          x =  2.062817  y = -0.719773  z =  1.454982 angstrom
           Maximum rank =  0   Radius =  0.650 angstrom
                   Q00  =  -0.018658

C          x =  1.213817  y = -1.745773  z =  1.866982 angstrom
           Maximum rank =  0   Radius =  0.650 angstrom
                   Q00  =  -0.098638

C          x =  2.867817  y = -0.879773  z =  0.332982 angstrom
           Maximum rank =  0   Radius =  0.650 angstrom
                   Q00  =  -0.069880

C          x =  1.178817  y = -2.937773  z =  1.145982 angstrom
           Maximum rank =  0   Radius =  0.650 angstrom
                   Q00  =  -0.057122

C          x =  2.829817  y = -2.072773  z = -0.384018 angstrom
           Maximum rank =  0   Radius =  0.650 angstrom
                   Q00  =  -0.090665

C          x =  1.980817  y = -3.103773  z =  0.019982 angstrom
           Maximum rank =  0   Radius =  0.650 angstrom
                   Q00  =  -0.077083

H          x =  2.096817  y =  0.206227  z =  2.007982 angstrom
           Maximum rank =  0   Radius =  0.325 angstrom
                   Q00  =   0.056449

H          x =  3.521817  y = -0.080773  z =  0.012982 angstrom
           Maximum rank =  0   Radius =  0.325 angstrom
                   Q00  =   0.067623

H          x = -0.570183  y = -2.105773  z =  2.972982 angstrom
           Maximum rank =  0   Radius =  0.325 angstrom
                   Q00  =   0.100850

H          x =  0.150817  y = -0.528773  z =  3.244982 angstrom
           Maximum rank =  0   Radius =  0.325 angstrom
                   Q00  =   0.096117

H          x =  0.527817  y = -3.738773  z =  1.459982 angstrom
           Maximum rank =  0   Radius =  0.325 angstrom
                   Q00  =   0.058378

H          x =  3.472817  y = -2.200773  z = -1.243018 angstrom
           Maximum rank =  0   Radius =  0.325 angstrom
                   Q00  =   0.063194

H          x =  1.957817  y = -4.031773  z = -0.531018 angstrom
           Maximum rank =  0   Radius =  0.325 angstrom
                   Q00  =   0.066844

H          x =  0.879842  y = -1.959283  z =  4.011188 angstrom
           Maximum rank =  0   Radius =  0.325 angstrom
                   Q00  =   0.104950

Total multipoles referred to origin at
           x =   0.000000,  y =    0.000000,  z =    0.000000 angstrom
                   Q00  =  -0.000000

Finished at 17:6:36 on 26 Apr 2020

  DMA results are available in the Python driver through the
	  variable('DMA DISTRIBUTED MULTIPOLES')
  and
	  variable('DMA TOTAL MULTIPOLES')
  commands.

    Psi4 stopped on: Sunday, 26 April 2020 05:06PM
    Psi4 wall time for execution: 0:09:25.46

*** Psi4 exiting successfully. Buy a developer a beer!
