                               Psi4 1.3.2 release

  ==> Input File <==

--------------------------------------------------------------------------
import numpy as np
set {scf_type pk
basis cc-pvdz
d_convergence 10
gdma_switch   0
gdma_limit    0
gdma_origin   [ 0.0,  0.0,  0.0 ]
}
molecule test {
    units Angstrom
    0 1
    --
    0 1
    C                1.499595576089922     2.608091676642561    -1.411502162500127
    C                0.452595576089922     3.700091676642561    -1.584502162500127
    H                1.580595576089922     2.338091676642561    -0.357502162500127
    H                1.170595576089922     1.726091676642561    -1.957502162500127
    H                2.471595576089922     2.949091676642561    -1.771502162500127
    H               -0.522404423910078     3.251091676642561    -1.396502162500127
    H                0.622175576089922     4.501981676642561    -0.850872162500128
    H                0.461215576089922     4.096691676642561    -2.610482162500127
    C               -2.424404423910078    -1.924908323357439    -1.279502162500127
    C                0.972595576089922    -0.688908323357439    -0.115502162500127
    C               -0.048404423910078    -1.176908323357439    -0.917502162500128
    C                0.733595576089922    -0.395908323357439     1.218497837499873
    C               -1.331404423910078    -1.369908323357439    -0.404502162500127
    C               -0.537404423910078    -0.579908323357439     1.753497837499872
    C               -1.566404423910078    -1.068908323357439     0.941497837499872
    O                1.744595576089922     0.082091676642561     1.997497837499872
    H                1.952595576089922    -0.518908323357439    -0.541502162500127
    H                0.150595576089922    -1.405908323357439    -1.956502162500128
    H                2.573595576089922     0.137091676642561     1.518497837499873
    H               -0.719404423910078    -0.347908323357439     2.793497837499873
    H               -2.247404423910079    -1.615908323357439    -2.311502162500127
    H               -3.375404423910079    -1.497908323357439    -0.964502162500128
    H               -2.553404423910079    -1.210908323357439     1.362497837499873
    H               -2.466864423910078    -3.023028323357439    -1.231292162500127

}
e, wfn = energy('scf', return_wfn=True)
gdma(wfn)
dmavals = variable('DMA DISTRIBUTED MULTIPOLES')
charges = np.array(dmavals)
print(charges)
np.save('SSI-111LEU-130TYR-1-dimer.npy', np.array(charges))--------------------------------------------------------------------------

*** tstart() called on ds3
*** at Tue Apr 28 09:35:29 2020

   => Loading Basis Set <=

    Name: CC-PVDZ
    Role: ORBITAL
    Keyword: BASIS
    atoms 1-2, 9-15  entry C          line   138 file /theoryfs2/ds/metcalf/miniconda2/envs/tf2gpu/share/psi4/basis/cc-pvdz.gbs
    atoms 3-8, 17-24 entry H          line    22 file /theoryfs2/ds/metcalf/miniconda2/envs/tf2gpu/share/psi4/basis/cc-pvdz.gbs
    atoms 16         entry O          line   198 file /theoryfs2/ds/metcalf/miniconda2/envs/tf2gpu/share/psi4/basis/cc-pvdz.gbs

         ---------------------------------------------------------
                                   SCF
               by Justin Turney, Rob Parrish, Andy Simmonett
                          and Daniel G. A. Smith
                              RHF Reference
                        1 Threads,    500 MiB Core
         ---------------------------------------------------------

  ==> Geometry <==

    Molecular point group: c1
    Full point group: C1

    Geometry (in Angstrom), charge = 0, multiplicity = 1:

       Center              X                  Y                   Z               Mass
    ------------   -----------------  -----------------  -----------------  -----------------
         C            1.499595576090     2.608091676643    -1.411502162500    12.000000000000
         C            0.452595576090     3.700091676643    -1.584502162500    12.000000000000
         H            1.580595576090     2.338091676643    -0.357502162500     1.007825032230
         H            1.170595576090     1.726091676643    -1.957502162500     1.007825032230
         H            2.471595576090     2.949091676643    -1.771502162500     1.007825032230
         H           -0.522404423910     3.251091676643    -1.396502162500     1.007825032230
         H            0.622175576090     4.501981676643    -0.850872162500     1.007825032230
         H            0.461215576090     4.096691676643    -2.610482162500     1.007825032230
         C           -2.424404423910    -1.924908323357    -1.279502162500    12.000000000000
         C            0.972595576090    -0.688908323357    -0.115502162500    12.000000000000
         C           -0.048404423910    -1.176908323357    -0.917502162500    12.000000000000
         C            0.733595576090    -0.395908323357     1.218497837500    12.000000000000
         C           -1.331404423910    -1.369908323357    -0.404502162500    12.000000000000
         C           -0.537404423910    -0.579908323357     1.753497837500    12.000000000000
         C           -1.566404423910    -1.068908323357     0.941497837500    12.000000000000
         O            1.744595576090     0.082091676643     1.997497837500    15.994914619570
         H            1.952595576090    -0.518908323357    -0.541502162500     1.007825032230
         H            0.150595576090    -1.405908323357    -1.956502162500     1.007825032230
         H            2.573595576090     0.137091676643     1.518497837500     1.007825032230
         H           -0.719404423910    -0.347908323357     2.793497837500     1.007825032230
         H           -2.247404423910    -1.615908323357    -2.311502162500     1.007825032230
         H           -3.375404423910    -1.497908323357    -0.964502162500     1.007825032230
         H           -2.553404423910    -1.210908323357     1.362497837500     1.007825032230
         H           -2.466864423910    -3.023028323357    -1.231292162500     1.007825032230

  Running in c1 symmetry.

  Rotational constants: A =      0.04389  B =      0.02539  C =      0.01907 [cm^-1]
  Rotational constants: A =   1315.64632  B =    761.12280  C =    571.75916 [MHz]
  Nuclear repulsion =  497.191428480342097

  Charge       = 0
  Multiplicity = 1
  Electrons    = 76
  Nalpha       = 38
  Nbeta        = 38

  ==> Algorithm <==

  SCF Algorithm Type is PK.
  DIIS enabled.
  MOM disabled.
  Fractional occupation disabled.
  Guess Type is SAD.
  Energy threshold   = 1.00e-06
  Density threshold  = 1.00e-10
  Integral threshold = 0.00e+00

  ==> Primary Basis <==

  Basis Set: CC-PVDZ
    Blend: CC-PVDZ
    Number of shells: 102
    Number of basis function: 210
    Number of Cartesian functions: 220
    Spherical Harmonics?: true
    Max angular momentum: 2

  ==> Pre-Iterations <==

   -------------------------------------------------------
    Irrep   Nso     Nmo     Nalpha   Nbeta   Ndocc  Nsocc
   -------------------------------------------------------
     A        210     210       0       0       0       0
   -------------------------------------------------------
    Total     210     210      38      38      38       0
   -------------------------------------------------------

  ==> Integral Setup <==

  Using integral reordering PK algorithm.
  Sizing the integral batches needed.
  Building batch lookup table.
   Calculation information:
      Number of atoms:                  24
      Number of AO shells:             102
      Number of primitives:            290
      Number of atomic orbitals:       220
      Number of basis functions:       210

      Integral cutoff                 1.00e-12
      Number of threads:                 1

	Batch   1 pq = [       0,    9405] index = [             0,44231715] size =     44231715
	Batch   2 pq = [    9405,   13301] index = [      44231715,88464951] size =     44233236
	Batch   3 pq = [   13301,   16290] index = [      88464951,132690195] size =     44225244
	Batch   4 pq = [   16290,   18810] index = [     132690195,176917455] size =     44227260
	Batch   5 pq = [   18810,   21030] index = [     176917455,221140965] size =     44223510
	Batch   6 pq = [   21030,   22155] index = [     221140965,245433090] size =     24292125
  Task number: 23
  Buffer size: 11059200
  Buffer per thread: 2
  We computed 11907908 shell quartets total.
  Whereas there are 13799631 unique shell quartets.

  ==> DiskJK: Disk-Based J/K Matrices <==

    J tasked:                  Yes
    K tasked:                  Yes
    wK tasked:                  No
    Memory [MiB]:              375
    Schwarz Cutoff:          1E-12

    OpenMP threads:              1

  Minimum eigenvalue in the overlap matrix is 3.2358741018E-04.
  Using Symmetric Orthogonalization.

  SCF Guess: Superposition of Atomic Densities via on-the-fly atomic UHF.

  ==> Iterations <==

                        Total Energy        Delta E     RMS |[F,P]|

   @RHF iter SAD:  -422.69495120516007   -4.22695e+02   0.00000e+00
   @RHF iter   1:  -423.60089450211461   -9.05943e-01   2.98804e-03 DIIS
   @RHF iter   2:  -423.81786384097018   -2.16969e-01   1.26420e-03 DIIS
   @RHF iter   3:  -423.85315377648561   -3.52899e-02   2.82196e-04 DIIS
   @RHF iter   4:  -423.85600991085300   -2.85613e-03   1.15079e-04 DIIS
   @RHF iter   5:  -423.85634973020933   -3.39819e-04   2.09528e-05 DIIS
   @RHF iter   6:  -423.85636717594400   -1.74457e-05   6.34062e-06 DIIS
   @RHF iter   7:  -423.85636874165283   -1.56571e-06   1.96839e-06 DIIS
   @RHF iter   8:  -423.85636893460924   -1.92956e-07   7.15087e-07 DIIS
   @RHF iter   9:  -423.85636896005224   -2.54430e-08   2.53719e-07 DIIS
   @RHF iter  10:  -423.85636896363837   -3.58614e-09   8.99764e-08 DIIS
   @RHF iter  11:  -423.85636896444873   -8.10360e-10   4.23125e-08 DIIS
   @RHF iter  12:  -423.85636896465536   -2.06626e-10   2.32657e-08 DIIS
   @RHF iter  13:  -423.85636896471055   -5.51950e-11   7.98039e-09 DIIS
   @RHF iter  14:  -423.85636896472192   -1.13687e-11   2.12258e-09 DIIS
   @RHF iter  15:  -423.85636896472010    1.81899e-12   6.67324e-10 DIIS
   @RHF iter  16:  -423.85636896472096   -8.52651e-13   2.03857e-10 DIIS
   @RHF iter  17:  -423.85636896472164   -6.82121e-13   7.93125e-11 DIIS
  Energy and wave function converged.

  ==> Post-Iterations <==

    Orbital Energies [Eh]
    ---------------------

    Doubly Occupied:

       1A    -20.582837     2A    -11.298119     3A    -11.239199
       4A    -11.237745     5A    -11.233669     6A    -11.231671
       7A    -11.231445     8A    -11.228419     9A    -11.215439
      10A    -11.213546    11A     -1.400541    12A     -1.150585
      13A     -1.038065    14A     -1.018516    15A     -1.016390
      16A     -0.926482    17A     -0.844412    18A     -0.832239
      19A     -0.802024    20A     -0.732677    21A     -0.668740
      22A     -0.640714    23A     -0.605734    24A     -0.599004
      25A     -0.596321    26A     -0.586246    27A     -0.586072
      28A     -0.571684    29A     -0.567861    30A     -0.527234
      31A     -0.499047    32A     -0.495392    33A     -0.484914
      34A     -0.482960    35A     -0.481827    36A     -0.466374
      37A     -0.338061    38A     -0.301577

    Virtual:

      39A      0.129906    40A      0.154128    41A      0.171583
      42A      0.183949    43A      0.197194    44A      0.214853
      45A      0.217137    46A      0.246787    47A      0.258271
      48A      0.261553    49A      0.264544    50A      0.270666
      51A      0.280881    52A      0.287769    53A      0.300159
      54A      0.312578    55A      0.371127    56A      0.372522
      57A      0.405949    58A      0.430418    59A      0.454743
      60A      0.484985    61A      0.498558    62A      0.504584
      63A      0.589126    64A      0.601245    65A      0.605421
      66A      0.616036    67A      0.638130    68A      0.646173
      69A      0.651039    70A      0.668940    71A      0.679757
      72A      0.689682    73A      0.700315    74A      0.720976
      75A      0.729417    76A      0.738098    77A      0.764524
      78A      0.770825    79A      0.783672    80A      0.791071
      81A      0.823941    82A      0.834252    83A      0.846133
      84A      0.854180    85A      0.875426    86A      0.881278
      87A      0.886010    88A      0.892114    89A      0.897757
      90A      0.902146    91A      0.904019    92A      0.908069
      93A      0.922380    94A      0.928551    95A      0.940066
      96A      0.942930    97A      0.951014    98A      0.972964
      99A      0.994486   100A      1.012413   101A      1.024832
     102A      1.063092   103A      1.119634   104A      1.128824
     105A      1.138194   106A      1.142505   107A      1.150729
     108A      1.173676   109A      1.205604   110A      1.233543
     111A      1.247418   112A      1.249777   113A      1.267057
     114A      1.293917   115A      1.300531   116A      1.312165
     117A      1.334729   118A      1.351348   119A      1.363627
     120A      1.386072   121A      1.478148   122A      1.482143
     123A      1.493197   124A      1.500850   125A      1.535571
     126A      1.560290   127A      1.575784   128A      1.613337
     129A      1.625779   130A      1.677026   131A      1.680498
     132A      1.688539   133A      1.705990   134A      1.733939
     135A      1.755976   136A      1.786382   137A      1.805221
     138A      1.812314   139A      1.857472   140A      1.871843
     141A      1.876703   142A      1.888247   143A      1.895839
     144A      1.904165   145A      1.908436   146A      1.918967
     147A      1.927314   148A      1.941382   149A      1.946316
     150A      1.951036   151A      1.953027   152A      1.964111
     153A      1.969754   154A      1.976366   155A      1.980044
     156A      2.003433   157A      2.038650   158A      2.054305
     159A      2.058490   160A      2.067295   161A      2.074792
     162A      2.115808   163A      2.138362   164A      2.147077
     165A      2.148082   166A      2.159755   167A      2.211048
     168A      2.229832   169A      2.263739   170A      2.281428
     171A      2.284523   172A      2.298857   173A      2.307370
     174A      2.327122   175A      2.379277   176A      2.426163
     177A      2.454228   178A      2.455606   179A      2.465633
     180A      2.474203   181A      2.482523   182A      2.535199
     183A      2.544803   184A      2.574878   185A      2.589644
     186A      2.605450   187A      2.651276   188A      2.751704
     189A      2.766368   190A      2.770387   191A      2.786124
     192A      2.799014   193A      2.804610   194A      2.834850
     195A      2.844085   196A      2.850320   197A      2.902824
     198A      2.944937   199A      2.965394   200A      2.978718
     201A      3.000291   202A      3.087074   203A      3.104472
     204A      3.251724   205A      3.279134   206A      3.349874
     207A      3.577162   208A      3.673385   209A      3.978339
     210A      4.198006

    Final Occupation by Irrep:
              A
    DOCC [    38 ]

  @RHF Final Energy:  -423.85636896472164

   => Energetics <=

    Nuclear Repulsion Energy =            497.1914284803420969
    One-Electron Energy =               -1560.1480312910725843
    Two-Electron Energy =                 639.1002338460089049
    Total Energy =                       -423.8563689647216961

Computation Completed

Properties will be evaluated at   0.000000,   0.000000,   0.000000 [a0]

Properties computed using the SCF density matrix

  Nuclear Dipole Moment: [e a0]
     X:    -0.8371      Y:     8.7935      Z:    -9.6231

  Electronic Dipole Moment: [e a0]
     X:     1.0006      Y:    -8.9412      Z:     9.1272

  Dipole Moment: [e a0]
     X:     0.1635      Y:    -0.1477      Z:    -0.4959     Total:     0.5426

  Dipole Moment: [D]
     X:     0.4155      Y:    -0.3754      Z:    -1.2605     Total:     1.3793

*** tstop() called on ds3 at Tue Apr 28 09:38:16 2020
Module time:
	user time   =      88.11 seconds =       1.47 minutes
	system time =      38.36 seconds =       0.64 minutes
	total time  =        167 seconds =       2.78 minutes
Total time:
	user time   =      88.11 seconds =       1.47 minutes
	system time =      38.36 seconds =       0.64 minutes
	total time  =        167 seconds =       2.78 minutes
                                     G D M A

                                 by Anthony Stone

                           version 2.2.06, 22 June 2011

               Distributed Multipoles from Gaussian wavefunctions

Starting at 9:38:16 on 28 Apr 2020

Using SCF density matrix from file ./SSI/SSI-111LEU-130TYR-1-dimer.test.10866.fchk

                         Distributed Multipole Analysis

Standard DMA

Positions and radii in angstrom
Multipole moments in atomic units, ea_0^k for rank k

C          x =  1.499596  y =  2.608092  z = -1.411502 angstrom
           Maximum rank =  0   Radius =  0.650 angstrom
                   Q00  =  -0.231736

C          x =  0.452596  y =  3.700092  z = -1.584502 angstrom
           Maximum rank =  0   Radius =  0.650 angstrom
                   Q00  =  -0.231191

H          x =  1.580596  y =  2.338092  z = -0.357502 angstrom
           Maximum rank =  0   Radius =  0.325 angstrom
                   Q00  =   0.074500

H          x =  1.170596  y =  1.726092  z = -1.957502 angstrom
           Maximum rank =  0   Radius =  0.325 angstrom
                   Q00  =   0.078297

H          x =  2.471596  y =  2.949092  z = -1.771502 angstrom
           Maximum rank =  0   Radius =  0.325 angstrom
                   Q00  =   0.071990

H          x = -0.522404  y =  3.251092  z = -1.396502 angstrom
           Maximum rank =  0   Radius =  0.325 angstrom
                   Q00  =   0.080470

H          x =  0.622176  y =  4.501982  z = -0.850872 angstrom
           Maximum rank =  0   Radius =  0.325 angstrom
                   Q00  =   0.077377

H          x =  0.461216  y =  4.096692  z = -2.610482 angstrom
           Maximum rank =  0   Radius =  0.325 angstrom
                   Q00  =   0.076238

C          x = -2.424404  y = -1.924908  z = -1.279502 angstrom
           Maximum rank =  0   Radius =  0.650 angstrom
                   Q00  =  -0.193424

C          x =  0.972596  y = -0.688908  z = -0.115502 angstrom
           Maximum rank =  0   Radius =  0.650 angstrom
                   Q00  =  -0.135399

C          x = -0.048404  y = -1.176908  z = -0.917502 angstrom
           Maximum rank =  0   Radius =  0.650 angstrom
                   Q00  =   0.031637

C          x =  0.733596  y = -0.395908  z =  1.218498 angstrom
           Maximum rank =  0   Radius =  0.650 angstrom
                   Q00  =   0.317142

C          x = -1.331404  y = -1.369908  z = -0.404502 angstrom
           Maximum rank =  0   Radius =  0.650 angstrom
                   Q00  =  -0.139089

C          x = -0.537404  y = -0.579908  z =  1.753498 angstrom
           Maximum rank =  0   Radius =  0.650 angstrom
                   Q00  =  -0.121381

C          x = -1.566404  y = -1.068908  z =  0.941498 angstrom
           Maximum rank =  0   Radius =  0.650 angstrom
                   Q00  =  -0.061052

O          x =  1.744596  y =  0.082092  z =  1.997498 angstrom
           Maximum rank =  0   Radius =  0.650 angstrom
                   Q00  =  -0.679431

H          x =  1.952596  y = -0.518908  z = -0.541502 angstrom
           Maximum rank =  0   Radius =  0.325 angstrom
                   Q00  =   0.072481

H          x =  0.150596  y = -1.405908  z = -1.956502 angstrom
           Maximum rank =  0   Radius =  0.325 angstrom
                   Q00  =   0.067063

H          x =  2.573596  y =  0.137092  z =  1.518498 angstrom
           Maximum rank =  0   Radius =  0.325 angstrom
                   Q00  =   0.406988

H          x = -0.719404  y = -0.347908  z =  2.793498 angstrom
           Maximum rank =  0   Radius =  0.325 angstrom
                   Q00  =   0.081871

H          x = -2.247404  y = -1.615908  z = -2.311502 angstrom
           Maximum rank =  0   Radius =  0.325 angstrom
                   Q00  =   0.094983

H          x = -3.375404  y = -1.497908  z = -0.964502 angstrom
           Maximum rank =  0   Radius =  0.325 angstrom
                   Q00  =   0.097120

H          x = -2.553404  y = -1.210908  z =  1.362498 angstrom
           Maximum rank =  0   Radius =  0.325 angstrom
                   Q00  =   0.064018

H          x = -2.466864  y = -3.023028  z = -1.231292 angstrom
           Maximum rank =  0   Radius =  0.325 angstrom
                   Q00  =   0.100526

Total multipoles referred to origin at
           x =   0.000000,  y =    0.000000,  z =    0.000000 angstrom
                   Q00  =  -0.000000

Finished at 9:38:17 on 28 Apr 2020

  DMA results are available in the Python driver through the
	  variable('DMA DISTRIBUTED MULTIPOLES')
  and
	  variable('DMA TOTAL MULTIPOLES')
  commands.

    Psi4 stopped on: Tuesday, 28 April 2020 09:38AM
    Psi4 wall time for execution: 0:02:47.24

*** Psi4 exiting successfully. Buy a developer a beer!
