                               Psi4 1.3.2 release

  ==> Input File <==

--------------------------------------------------------------------------
import numpy as np
set {scf_type pk
basis cc-pvdz
d_convergence 10
gdma_switch   0
gdma_limit    0
gdma_origin   [ 0.0,  0.0,  0.0 ]
}
molecule test {
    units Angstrom
    0 1
    --
    0 1
    C               -0.950092720464378    -0.423019790821453    -2.556573066346206
    C                0.143907279535622    -0.382019790821453    -1.551573066346207
    O               -0.063092720464378    -0.960019790821453    -0.488573066346207
    O                1.199907279535622     0.214980209178547    -1.848573066346207
    H               -1.104092720464378    -1.462019790821453    -2.855573066346206
    H               -0.677092720464378     0.142980209178547    -3.449573066346207
    H               -1.891922720464378    -0.026199790821453    -2.149773066346206
    C               -0.021092720464378     1.083980209178548     2.090426933653793
    C               -1.453092720464378     0.481980209178547     2.251426933653794
    N                1.020907279535622     0.026980209178547     1.887426933653793
    H               -0.027092720464378     1.763980209178547     1.232426933653793
    H                0.214907279535622     1.671980209178547     2.982426933653794
    H               -1.471092720464378    -0.209019790821453     3.095426933653794
    H               -1.701092720464378    -0.071019790821453     1.345426933653793
    H                0.794907279535622    -0.501019790821453     1.041426933653794
    H                1.939907279535622     0.431980209178547     1.765426933653793
    H                1.056907279535622    -0.617019790821453     2.665426933653793
    H               -2.209172720464378     1.264670209178547     2.411846933653794

}
e, wfn = energy('scf', return_wfn=True)
gdma(wfn)
dmavals = variable('DMA DISTRIBUTED MULTIPOLES')
charges = np.array(dmavals)
print(charges)
np.save('SSI-211ASP-214LYS-1-dimer.npy', np.array(charges))--------------------------------------------------------------------------

*** tstart() called on ds3
*** at Sun Apr 26 18:42:12 2020

   => Loading Basis Set <=

    Name: CC-PVDZ
    Role: ORBITAL
    Keyword: BASIS
    atoms 1-2, 8-9   entry C          line   138 file /theoryfs2/ds/metcalf/miniconda2/envs/tf2gpu/share/psi4/basis/cc-pvdz.gbs
    atoms 3-4        entry O          line   198 file /theoryfs2/ds/metcalf/miniconda2/envs/tf2gpu/share/psi4/basis/cc-pvdz.gbs
    atoms 5-7, 11-18 entry H          line    22 file /theoryfs2/ds/metcalf/miniconda2/envs/tf2gpu/share/psi4/basis/cc-pvdz.gbs
    atoms 10         entry N          line   168 file /theoryfs2/ds/metcalf/miniconda2/envs/tf2gpu/share/psi4/basis/cc-pvdz.gbs

         ---------------------------------------------------------
                                   SCF
               by Justin Turney, Rob Parrish, Andy Simmonett
                          and Daniel G. A. Smith
                              RHF Reference
                        1 Threads,    500 MiB Core
         ---------------------------------------------------------

  ==> Geometry <==

    Molecular point group: c1
    Full point group: C1

    Geometry (in Angstrom), charge = 0, multiplicity = 1:

       Center              X                  Y                   Z               Mass
    ------------   -----------------  -----------------  -----------------  -----------------
         C           -0.950092720464    -0.423019790821    -2.556573066346    12.000000000000
         C            0.143907279536    -0.382019790821    -1.551573066346    12.000000000000
         O           -0.063092720464    -0.960019790821    -0.488573066346    15.994914619570
         O            1.199907279536     0.214980209179    -1.848573066346    15.994914619570
         H           -1.104092720464    -1.462019790821    -2.855573066346     1.007825032230
         H           -0.677092720464     0.142980209179    -3.449573066346     1.007825032230
         H           -1.891922720464    -0.026199790821    -2.149773066346     1.007825032230
         C           -0.021092720464     1.083980209179     2.090426933654    12.000000000000
         C           -1.453092720464     0.481980209179     2.251426933654    12.000000000000
         N            1.020907279536     0.026980209179     1.887426933654    14.003074004430
         H           -0.027092720464     1.763980209179     1.232426933654     1.007825032230
         H            0.214907279536     1.671980209179     2.982426933654     1.007825032230
         H           -1.471092720464    -0.209019790821     3.095426933654     1.007825032230
         H           -1.701092720464    -0.071019790821     1.345426933654     1.007825032230
         H            0.794907279536    -0.501019790821     1.041426933654     1.007825032230
         H            1.939907279536     0.431980209179     1.765426933654     1.007825032230
         H            1.056907279536    -0.617019790821     2.665426933654     1.007825032230
         H           -2.209172720464     1.264670209179     2.411846933654     1.007825032230

  Running in c1 symmetry.

  Rotational constants: A =      0.13385  B =      0.03827  C =      0.03348 [cm^-1]
  Rotational constants: A =   4012.77789  B =   1147.17097  C =   1003.82846 [MHz]
  Nuclear repulsion =  314.993949720320302

  Charge       = 0
  Multiplicity = 1
  Electrons    = 58
  Nalpha       = 29
  Nbeta        = 29

  ==> Algorithm <==

  SCF Algorithm Type is PK.
  DIIS enabled.
  MOM disabled.
  Fractional occupation disabled.
  Guess Type is SAD.
  Energy threshold   = 1.00e-06
  Density threshold  = 1.00e-10
  Integral threshold = 0.00e+00

  ==> Primary Basis <==

  Basis Set: CC-PVDZ
    Blend: CC-PVDZ
    Number of shells: 75
    Number of basis function: 153
    Number of Cartesian functions: 160
    Spherical Harmonics?: true
    Max angular momentum: 2

  ==> Pre-Iterations <==

   -------------------------------------------------------
    Irrep   Nso     Nmo     Nalpha   Nbeta   Ndocc  Nsocc
   -------------------------------------------------------
     A        153     153       0       0       0       0
   -------------------------------------------------------
    Total     153     153      29      29      29       0
   -------------------------------------------------------

  ==> Integral Setup <==

  Using integral reordering PK algorithm.
  Sizing the integral batches needed.
  Building batch lookup table.
   Calculation information:
      Number of atoms:                  18
      Number of AO shells:              75
      Number of primitives:            209
      Number of atomic orbitals:       160
      Number of basis functions:       153

      Integral cutoff                 1.00e-12
      Number of threads:                 1

	Batch   1 pq = [       0,    9405] index = [             0,44231715] size =     44231715
	Batch   2 pq = [    9405,   11781] index = [      44231715,69401871] size =     25170156
  Task number: 7
  Buffer size: 11059200
  Buffer per thread: 2
  We computed 3701664 shell quartets total.
  Whereas there are 4062675 unique shell quartets.

  ==> DiskJK: Disk-Based J/K Matrices <==

    J tasked:                  Yes
    K tasked:                  Yes
    wK tasked:                  No
    Memory [MiB]:              375
    Schwarz Cutoff:          1E-12

    OpenMP threads:              1

  Minimum eigenvalue in the overlap matrix is 4.8037215778E-03.
  Using Symmetric Orthogonalization.

  SCF Guess: Superposition of Atomic Densities via on-the-fly atomic UHF.

  ==> Iterations <==

                        Total Energy        Delta E     RMS |[F,P]|

   @RHF iter SAD:  -360.78579861227433   -3.60786e+02   0.00000e+00
   @RHF iter   1:  -361.80133130735453   -1.01553e+00   4.58803e-03 DIIS
   @RHF iter   2:  -362.00136727959733   -2.00036e-01   2.42477e-03 DIIS
   @RHF iter   3:  -362.05141825182511   -5.00510e-02   4.28811e-04 DIIS
   @RHF iter   4:  -362.05431185539453   -2.89360e-03   1.56606e-04 DIIS
   @RHF iter   5:  -362.05466713733045   -3.55282e-04   3.20633e-05 DIIS
   @RHF iter   6:  -362.05468542859711   -1.82913e-05   1.67193e-05 DIIS
   @RHF iter   7:  -362.05468899166596   -3.56307e-06   3.47026e-06 DIIS
   @RHF iter   8:  -362.05468946513656   -4.73471e-07   1.49195e-06 DIIS
   @RHF iter   9:  -362.05468954825830   -8.31217e-08   4.51396e-07 DIIS
   @RHF iter  10:  -362.05468955577021   -7.51191e-09   1.38983e-07 DIIS
   @RHF iter  11:  -362.05468955634393   -5.73721e-10   3.45905e-08 DIIS
   @RHF iter  12:  -362.05468955637849   -3.45608e-11   8.04353e-09 DIIS
   @RHF iter  13:  -362.05468955637775    7.38964e-13   2.08152e-09 DIIS
   @RHF iter  14:  -362.05468955637895   -1.19371e-12   7.66061e-10 DIIS
   @RHF iter  15:  -362.05468955637940   -4.54747e-13   2.11950e-10 DIIS
   @RHF iter  16:  -362.05468955637923    1.70530e-13   8.75319e-11 DIIS
  Energy and wave function converged.

  ==> Post-Iterations <==

    Orbital Energies [Eh]
    ---------------------

    Doubly Occupied:

       1A    -20.436242     2A    -20.407868     3A    -15.721489
       4A    -11.337318     5A    -11.267921     6A    -11.262796
       7A    -11.166185     8A     -1.347990     9A     -1.323053
      10A     -1.202738    11A     -1.062354    12A     -0.927103
      13A     -0.907987    14A     -0.806493    15A     -0.797551
      16A     -0.698847    17A     -0.652512    18A     -0.642385
      19A     -0.582772    20A     -0.566578    21A     -0.553809
      22A     -0.550812    23A     -0.548337    24A     -0.539603
      25A     -0.480016    26A     -0.454264    27A     -0.349472
      28A     -0.326535    29A     -0.325689

    Virtual:

      30A      0.108368    31A      0.164447    32A      0.166481
      33A      0.200856    34A      0.218464    35A      0.236085
      36A      0.246336    37A      0.268474    38A      0.298990
      39A      0.300552    40A      0.316145    41A      0.327603
      42A      0.351564    43A      0.369494    44A      0.460533
      45A      0.513008    46A      0.538217    47A      0.553074
      48A      0.567482    49A      0.585654    50A      0.610404
      51A      0.642120    52A      0.708814    53A      0.730102
      54A      0.739579    55A      0.761816    56A      0.771251
      57A      0.805066    58A      0.816092    59A      0.821678
      60A      0.850525    61A      0.853571    62A      0.876055
      63A      0.886790    64A      0.901457    65A      0.905656
      66A      0.911176    67A      0.932516    68A      0.955981
      69A      0.975435    70A      0.997659    71A      1.014277
      72A      1.029363    73A      1.083125    74A      1.097550
      75A      1.111700    76A      1.166423    77A      1.211651
      78A      1.223979    79A      1.317639    80A      1.343077
      81A      1.384573    82A      1.414393    83A      1.424939
      84A      1.440343    85A      1.443615    86A      1.491845
      87A      1.538062    88A      1.567857    89A      1.590540
      90A      1.593667    91A      1.643169    92A      1.652454
      93A      1.670613    94A      1.726307    95A      1.732670
      96A      1.773144    97A      1.801171    98A      1.849595
      99A      1.860537   100A      1.880027   101A      1.898877
     102A      1.914605   103A      1.925097   104A      1.937524
     105A      1.944229   106A      1.972111   107A      1.982244
     108A      1.997503   109A      2.031429   110A      2.060729
     111A      2.074950   112A      2.092981   113A      2.160476
     114A      2.174089   115A      2.186662   116A      2.206009
     117A      2.225292   118A      2.257199   119A      2.289691
     120A      2.318384   121A      2.324342   122A      2.358519
     123A      2.443070   124A      2.453363   125A      2.518422
     126A      2.531649   127A      2.532696   128A      2.605896
     129A      2.624111   130A      2.649023   131A      2.690327
     132A      2.707535   133A      2.738666   134A      2.780156
     135A      2.800070   136A      2.819477   137A      2.837347
     138A      2.883847   139A      2.897982   140A      2.968227
     141A      2.994886   142A      3.081389   143A      3.116877
     144A      3.141480   145A      3.204531   146A      3.284095
     147A      3.356584   148A      3.483196   149A      3.686609
     150A      3.715727   151A      3.930482   152A      3.971908
     153A      4.078438

    Final Occupation by Irrep:
              A
    DOCC [    29 ]

  @RHF Final Energy:  -362.05468955637923

   => Energetics <=

    Nuclear Repulsion Energy =            314.9939497203203018
    One-Electron Energy =               -1119.6038411804590851
    Two-Electron Energy =                 442.5552019037595528
    Total Energy =                       -362.0546895563792305

Computation Completed

Properties will be evaluated at   0.000000,   0.000000,   0.000000 [a0]

Properties computed using the SCF density matrix

  Nuclear Dipole Moment: [e a0]
     X:    -4.7551      Y:     2.2362      Z:     7.5627

  Electronic Dipole Moment: [e a0]
     X:     4.7436      Y:    -1.4748      Z:    -3.2043

  Dipole Moment: [e a0]
     X:    -0.0115      Y:     0.7615      Z:     4.3584     Total:     4.4244

  Dipole Moment: [D]
     X:    -0.0293      Y:     1.9355      Z:    11.0779     Total:    11.2458

*** tstop() called on ds3 at Sun Apr 26 18:42:48 2020
Module time:
	user time   =      25.26 seconds =       0.42 minutes
	system time =      10.24 seconds =       0.17 minutes
	total time  =         36 seconds =       0.60 minutes
Total time:
	user time   =      25.26 seconds =       0.42 minutes
	system time =      10.24 seconds =       0.17 minutes
	total time  =         36 seconds =       0.60 minutes
                                     G D M A

                                 by Anthony Stone

                           version 2.2.06, 22 June 2011

               Distributed Multipoles from Gaussian wavefunctions

Starting at 18:42:48 on 26 Apr 2020

Using SCF density matrix from file ./SSI/SSI-211ASP-214LYS-1-dimer.test.17224.fchk

                         Distributed Multipole Analysis

Standard DMA

Positions and radii in angstrom
Multipole moments in atomic units, ea_0^k for rank k

C          x = -0.950093  y = -0.423020  z = -2.556573 angstrom
           Maximum rank =  0   Radius =  0.650 angstrom
                   Q00  =  -0.264131

C          x =  0.143907  y = -0.382020  z = -1.551573 angstrom
           Maximum rank =  0   Radius =  0.650 angstrom
                   Q00  =   0.917878

O          x = -0.063093  y = -0.960020  z = -0.488573 angstrom
           Maximum rank =  0   Radius =  0.650 angstrom
                   Q00  =  -0.967255

O          x =  1.199907  y =  0.214980  z = -1.848573 angstrom
           Maximum rank =  0   Radius =  0.650 angstrom
                   Q00  =  -0.907809

H          x = -1.104093  y = -1.462020  z = -2.855573 angstrom
           Maximum rank =  0   Radius =  0.325 angstrom
                   Q00  =   0.096674

H          x = -0.677093  y =  0.142980  z = -3.449573 angstrom
           Maximum rank =  0   Radius =  0.325 angstrom
                   Q00  =   0.079547

H          x = -1.891923  y = -0.026200  z = -2.149773 angstrom
           Maximum rank =  0   Radius =  0.325 angstrom
                   Q00  =   0.076303

C          x = -0.021093  y =  1.083980  z =  2.090427 angstrom
           Maximum rank =  0   Radius =  0.650 angstrom
                   Q00  =  -0.027396

C          x = -1.453093  y =  0.481980  z =  2.251427 angstrom
           Maximum rank =  0   Radius =  0.650 angstrom
                   Q00  =  -0.212875

N          x =  1.020907  y =  0.026980  z =  1.887427 angstrom
           Maximum rank =  0   Radius =  0.650 angstrom
                   Q00  =  -0.119491

H          x = -0.027093  y =  1.763980  z =  1.232427 angstrom
           Maximum rank =  0   Radius =  0.325 angstrom
                   Q00  =   0.142369

H          x =  0.214907  y =  1.671980  z =  2.982427 angstrom
           Maximum rank =  0   Radius =  0.325 angstrom
                   Q00  =   0.083477

H          x = -1.471093  y = -0.209020  z =  3.095427 angstrom
           Maximum rank =  0   Radius =  0.325 angstrom
                   Q00  =   0.079478

H          x = -1.701093  y = -0.071020  z =  1.345427 angstrom
           Maximum rank =  0   Radius =  0.325 angstrom
                   Q00  =   0.130507

H          x =  0.794907  y = -0.501020  z =  1.041427 angstrom
           Maximum rank =  0   Radius =  0.325 angstrom
                   Q00  =   0.327006

H          x =  1.939907  y =  0.431980  z =  1.765427 angstrom
           Maximum rank =  0   Radius =  0.325 angstrom
                   Q00  =   0.234655

H          x =  1.056907  y = -0.617020  z =  2.665427 angstrom
           Maximum rank =  0   Radius =  0.325 angstrom
                   Q00  =   0.212642

H          x = -2.209173  y =  1.264670  z =  2.411847 angstrom
           Maximum rank =  0   Radius =  0.325 angstrom
                   Q00  =   0.118418

Total multipoles referred to origin at
           x =   0.000000,  y =    0.000000,  z =    0.000000 angstrom
                   Q00  =  -0.000000

Finished at 18:42:48 on 26 Apr 2020

  DMA results are available in the Python driver through the
	  variable('DMA DISTRIBUTED MULTIPOLES')
  and
	  variable('DMA TOTAL MULTIPOLES')
  commands.

    Psi4 stopped on: Sunday, 26 April 2020 06:42PM
    Psi4 wall time for execution: 0:00:35.52

*** Psi4 exiting successfully. Buy a developer a beer!
