                               Psi4 1.3.2 release

  ==> Input File <==

--------------------------------------------------------------------------
import numpy as np
set {scf_type pk
basis cc-pvdz
d_convergence 10
gdma_switch   0
gdma_limit    0
gdma_origin   [ 0.0,  0.0,  0.0 ]
}
molecule test {
    units Angstrom
    -2 1
    --
    -2 1
    C                0.931353963881311     1.584837822835823    -2.981344876522876
    C                0.151353963881311     1.141837822835823    -1.753344876522877
    O                0.531353963881311     0.091837822835823    -1.201344876522876
    O               -0.819646036118689     1.826837822835823    -1.351344876522877
    H                1.826353963881311     2.109837822835823    -2.638344876522876
    H                0.327353963881311     2.285837822835823    -3.559344876522877
    H                1.230476963881311     0.730200822835823    -3.605944876522877
    C                0.827353963881311    -2.113162177164177     1.421655123477124
    C               -0.245646036118689    -1.105162177164177     1.848655123477124
    O               -0.669646036118689    -0.282162177164177     1.014655123477124
    O               -0.710646036118689    -1.143162177164177     3.009655123477124
    H                1.425353963881311    -1.683162177164177     0.617655123477124
    H                0.343353963881311    -3.011162177164177     1.034655123477124
    H                1.510833963881311    -2.407418177164177     2.231755123477124

}
e, wfn = energy('scf', return_wfn=True)
gdma(wfn)
dmavals = variable('DMA DISTRIBUTED MULTIPOLES')
charges = np.array(dmavals)
print(charges)
np.save('SSI-045ASP-081GLU-1-dimer.npy', np.array(charges))--------------------------------------------------------------------------

*** tstart() called on ds3
*** at Tue Apr 28 12:11:08 2020

   => Loading Basis Set <=

    Name: CC-PVDZ
    Role: ORBITAL
    Keyword: BASIS
    atoms 1-2, 8-9   entry C          line   138 file /theoryfs2/ds/metcalf/miniconda2/envs/tf2gpu/share/psi4/basis/cc-pvdz.gbs
    atoms 3-4, 10-11 entry O          line   198 file /theoryfs2/ds/metcalf/miniconda2/envs/tf2gpu/share/psi4/basis/cc-pvdz.gbs
    atoms 5-7, 12-14 entry H          line    22 file /theoryfs2/ds/metcalf/miniconda2/envs/tf2gpu/share/psi4/basis/cc-pvdz.gbs

         ---------------------------------------------------------
                                   SCF
               by Justin Turney, Rob Parrish, Andy Simmonett
                          and Daniel G. A. Smith
                              RHF Reference
                        1 Threads,    500 MiB Core
         ---------------------------------------------------------

  ==> Geometry <==

    Molecular point group: c1
    Full point group: C1

    Geometry (in Angstrom), charge = -2, multiplicity = 1:

       Center              X                  Y                   Z               Mass
    ------------   -----------------  -----------------  -----------------  -----------------
         C            0.931353963881     1.584837822836    -2.981344876523    12.000000000000
         C            0.151353963881     1.141837822836    -1.753344876523    12.000000000000
         O            0.531353963881     0.091837822836    -1.201344876523    15.994914619570
         O           -0.819646036119     1.826837822836    -1.351344876523    15.994914619570
         H            1.826353963881     2.109837822836    -2.638344876523     1.007825032230
         H            0.327353963881     2.285837822836    -3.559344876523     1.007825032230
         H            1.230476963881     0.730200822836    -3.605944876523     1.007825032230
         C            0.827353963881    -2.113162177164     1.421655123477    12.000000000000
         C           -0.245646036119    -1.105162177164     1.848655123477    12.000000000000
         O           -0.669646036119    -0.282162177164     1.014655123477    15.994914619570
         O           -0.710646036119    -1.143162177164     3.009655123477    15.994914619570
         H            1.425353963881    -1.683162177164     0.617655123477     1.007825032230
         H            0.343353963881    -3.011162177164     1.034655123477     1.007825032230
         H            1.510833963881    -2.407418177164     2.231755123477     1.007825032230

  Running in c1 symmetry.

  Rotational constants: A =      0.16980  B =      0.02612  C =      0.02297 [cm^-1]
  Rotational constants: A =   5090.46760  B =    783.02301  C =    688.67989 [MHz]
  Nuclear repulsion =  343.754835950210975

  Charge       = -2
  Multiplicity = 1
  Electrons    = 64
  Nalpha       = 32
  Nbeta        = 32

  ==> Algorithm <==

  SCF Algorithm Type is PK.
  DIIS enabled.
  MOM disabled.
  Fractional occupation disabled.
  Guess Type is SAD.
  Energy threshold   = 1.00e-06
  Density threshold  = 1.00e-10
  Integral threshold = 0.00e+00

  ==> Primary Basis <==

  Basis Set: CC-PVDZ
    Blend: CC-PVDZ
    Number of shells: 66
    Number of basis function: 142
    Number of Cartesian functions: 150
    Spherical Harmonics?: true
    Max angular momentum: 2

  ==> Pre-Iterations <==

   -------------------------------------------------------
    Irrep   Nso     Nmo     Nalpha   Nbeta   Ndocc  Nsocc
   -------------------------------------------------------
     A        142     142       0       0       0       0
   -------------------------------------------------------
    Total     142     142      32      32      32       0
   -------------------------------------------------------

  ==> Integral Setup <==

  Using integral reordering PK algorithm.
  Sizing the integral batches needed.
  Building batch lookup table.
   Calculation information:
      Number of atoms:                  14
      Number of AO shells:              66
      Number of primitives:            206
      Number of atomic orbitals:       150
      Number of basis functions:       142

      Integral cutoff                 1.00e-12
      Number of threads:                 1

	Batch   1 pq = [       0,    9405] index = [             0,44231715] size =     44231715
	Batch   2 pq = [    9405,   10153] index = [      44231715,51546781] size =      7315066
  Task number: 5
  Buffer size: 11059200
  Buffer per thread: 2
  We computed 1736232 shell quartets total.
  Whereas there are 2445366 unique shell quartets.

  ==> DiskJK: Disk-Based J/K Matrices <==

    J tasked:                  Yes
    K tasked:                  Yes
    wK tasked:                  No
    Memory [MiB]:              375
    Schwarz Cutoff:          1E-12

    OpenMP threads:              1

  Minimum eigenvalue in the overlap matrix is 5.2128054604E-03.
  Using Symmetric Orthogonalization.

  SCF Guess: Superposition of Atomic Densities via on-the-fly atomic UHF.

  ==> Iterations <==

                        Total Energy        Delta E     RMS |[F,P]|

   @RHF iter SAD:  -452.34452106987044   -4.52345e+02   0.00000e+00
   @RHF iter   1:  -453.92509185978105   -1.58057e+00   6.55200e-03 DIIS
   @RHF iter   2:  -454.20601410403668   -2.80922e-01   3.99690e-03 DIIS
   @RHF iter   3:  -454.31681972711209   -1.10806e-01   5.15608e-04 DIIS
   @RHF iter   4:  -454.32009515974954   -3.27543e-03   1.95787e-04 DIIS
   @RHF iter   5:  -454.32066870934096   -5.73550e-04   4.85155e-05 DIIS
   @RHF iter   6:  -454.32069731594635   -2.86066e-05   2.12579e-05 DIIS
   @RHF iter   7:  -454.32070288379293   -5.56785e-06   4.12398e-06 DIIS
   @RHF iter   8:  -454.32070343679061   -5.52998e-07   1.93861e-06 DIIS
   @RHF iter   9:  -454.32070355202865   -1.15238e-07   7.95418e-07 DIIS
   @RHF iter  10:  -454.32070356860044   -1.65718e-08   3.12819e-07 DIIS
   @RHF iter  11:  -454.32070357097984   -2.37941e-09   7.62928e-08 DIIS
   @RHF iter  12:  -454.32070357108472   -1.04876e-10   2.62921e-08 DIIS
   @RHF iter  13:  -454.32070357109495   -1.02318e-11   9.55103e-09 DIIS
   @RHF iter  14:  -454.32070357109779   -2.84217e-12   3.03324e-09 DIIS
   @RHF iter  15:  -454.32070357109620    1.59162e-12   9.55916e-10 DIIS
   @RHF iter  16:  -454.32070357109762   -1.42109e-12   4.79901e-10 DIIS
   @RHF iter  17:  -454.32070357109808   -4.54747e-13   1.77954e-10 DIIS
   @RHF iter  18:  -454.32070357109768    3.97904e-13   8.37592e-11 DIIS
  Energy and wave function converged.

  ==> Post-Iterations <==

    Orbital Energies [Eh]
    ---------------------

    Doubly Occupied:

       1A    -20.123729     2A    -20.114747     3A    -20.109273
       4A    -20.092671     5A    -10.982919     6A    -10.963874
       7A    -10.945580     8A    -10.916464     9A     -1.010809
      10A     -0.997788    11A     -0.898564    12A     -0.877216
      13A     -0.687674    14A     -0.657898    15A     -0.376276
      16A     -0.354878    17A     -0.303352    18A     -0.296775
      19A     -0.274765    20A     -0.272425    21A     -0.263229
      22A     -0.249407    23A     -0.212480    24A     -0.188175
      25A     -0.172606    26A     -0.158344    27A     -0.048874
      28A     -0.038743    29A     -0.035723    30A     -0.020804
      31A     -0.002182    32A      0.007201

    Virtual:

      33A      0.448190    34A      0.476174    35A      0.494728
      36A      0.509101    37A      0.518211    38A      0.574426
      39A      0.612356    40A      0.630617    41A      0.676754
      42A      0.706352    43A      0.823931    44A      0.831927
      45A      0.835657    46A      0.888670    47A      0.922980
      48A      0.955531    49A      0.974452    50A      1.004599
      51A      1.069200    52A      1.084860    53A      1.092339
      54A      1.102631    55A      1.137174    56A      1.139188
      57A      1.161068    58A      1.165431    59A      1.170405
      60A      1.178433    61A      1.213267    62A      1.216861
      63A      1.268903    64A      1.288047    65A      1.342055
      66A      1.372418    67A      1.458328    68A      1.467432
      69A      1.481358    70A      1.483819    71A      1.568022
      72A      1.605578    73A      1.645300    74A      1.671763
      75A      1.678450    76A      1.684845    77A      1.706421
      78A      1.720962    79A      1.741103    80A      1.776283
      81A      1.793979    82A      1.814649    83A      1.827421
      84A      1.884171    85A      1.899382    86A      1.935454
      87A      1.963651    88A      1.975829    89A      1.982995
      90A      2.061629    91A      2.168551    92A      2.173920
      93A      2.203263    94A      2.208548    95A      2.221648
      96A      2.231487    97A      2.249136    98A      2.293543
      99A      2.330529   100A      2.356654   101A      2.374627
     102A      2.392158   103A      2.494301   104A      2.509539
     105A      2.547817   106A      2.550067   107A      2.553672
     108A      2.574316   109A      2.683913   110A      2.689983
     111A      2.787432   112A      2.812348   113A      2.825871
     114A      2.840761   115A      2.908496   116A      2.948719
     117A      3.015422   118A      3.048332   119A      3.063830
     120A      3.096307   121A      3.109796   122A      3.127884
     123A      3.382571   124A      3.397597   125A      3.419243
     126A      3.435968   127A      3.438419   128A      3.451095
     129A      3.504206   130A      3.522667   131A      3.769289
     132A      3.805607   133A      3.909846   134A      3.929313
     135A      3.972870   136A      3.981035   137A      4.189333
     138A      4.205774   139A      4.241158   140A      4.269212
     141A      4.355028   142A      4.366654

    Final Occupation by Irrep:
              A
    DOCC [    32 ]

  @RHF Final Energy:  -454.32070357109768

   => Energetics <=

    Nuclear Repulsion Energy =            343.7548359502109747
    One-Electron Energy =               -1330.8689994144417597
    Two-Electron Energy =                 532.7934598931331038
    Total Energy =                       -454.3207035710977379

Computation Completed

Properties will be evaluated at   0.000000,   0.000000,   0.000000 [a0]

Properties computed using the SCF density matrix

  Nuclear Dipole Moment: [e a0]
     X:     6.2390      Y:    -1.8499      Z:    -5.5423

  Electronic Dipole Moment: [e a0]
     X:    -4.5357      Y:     1.4630      Z:     3.7790

  Dipole Moment: [e a0]
     X:     1.7034      Y:    -0.3869      Z:    -1.7634     Total:     2.4821

  Dipole Moment: [D]
     X:     4.3295      Y:    -0.9835      Z:    -4.4821     Total:     6.3088

*** tstop() called on ds3 at Tue Apr 28 12:11:34 2020
Module time:
	user time   =      17.91 seconds =       0.30 minutes
	system time =       9.08 seconds =       0.15 minutes
	total time  =         26 seconds =       0.43 minutes
Total time:
	user time   =      17.91 seconds =       0.30 minutes
	system time =       9.08 seconds =       0.15 minutes
	total time  =         26 seconds =       0.43 minutes
                                     G D M A

                                 by Anthony Stone

                           version 2.2.06, 22 June 2011

               Distributed Multipoles from Gaussian wavefunctions

Starting at 12:11:34 on 28 Apr 2020

Using SCF density matrix from file ./SSI/SSI-045ASP-081GLU-1-dimer.test.9663.fchk

                         Distributed Multipole Analysis

Standard DMA

Positions and radii in angstrom
Multipole moments in atomic units, ea_0^k for rank k

C          x =  0.931354  y =  1.584838  z = -2.981345 angstrom
           Maximum rank =  0   Radius =  0.650 angstrom
                   Q00  =  -0.250746

C          x =  0.151354  y =  1.141838  z = -1.753345 angstrom
           Maximum rank =  0   Radius =  0.650 angstrom
                   Q00  =   0.956198

O          x =  0.531354  y =  0.091838  z = -1.201345 angstrom
           Maximum rank =  0   Radius =  0.650 angstrom
                   Q00  =  -0.870465

O          x = -0.819646  y =  1.826838  z = -1.351345 angstrom
           Maximum rank =  0   Radius =  0.650 angstrom
                   Q00  =  -0.923701

H          x =  1.826354  y =  2.109838  z = -2.638345 angstrom
           Maximum rank =  0   Radius =  0.325 angstrom
                   Q00  =   0.056991

H          x =  0.327354  y =  2.285838  z = -3.559345 angstrom
           Maximum rank =  0   Radius =  0.325 angstrom
                   Q00  =   0.007237

H          x =  1.230477  y =  0.730201  z = -3.605945 angstrom
           Maximum rank =  0   Radius =  0.325 angstrom
                   Q00  =   0.032132

C          x =  0.827354  y = -2.113162  z =  1.421655 angstrom
           Maximum rank =  0   Radius =  0.650 angstrom
                   Q00  =  -0.290611

C          x = -0.245646  y = -1.105162  z =  1.848655 angstrom
           Maximum rank =  0   Radius =  0.650 angstrom
                   Q00  =   0.998274

O          x = -0.669646  y = -0.282162  z =  1.014655 angstrom
           Maximum rank =  0   Radius =  0.650 angstrom
                   Q00  =  -0.873359

O          x = -0.710646  y = -1.143162  z =  3.009655 angstrom
           Maximum rank =  0   Radius =  0.650 angstrom
                   Q00  =  -0.984950

H          x =  1.425354  y = -1.683162  z =  0.617655 angstrom
           Maximum rank =  0   Radius =  0.325 angstrom
                   Q00  =   0.099409

H          x =  0.343354  y = -3.011162  z =  1.034655 angstrom
           Maximum rank =  0   Radius =  0.325 angstrom
                   Q00  =   0.051623

H          x =  1.510834  y = -2.407418  z =  2.231755 angstrom
           Maximum rank =  0   Radius =  0.325 angstrom
                   Q00  =  -0.008032

Total multipoles referred to origin at
           x =   0.000000,  y =    0.000000,  z =    0.000000 angstrom
                   Q00  =  -2.000000

Finished at 12:11:34 on 28 Apr 2020

  DMA results are available in the Python driver through the
	  variable('DMA DISTRIBUTED MULTIPOLES')
  and
	  variable('DMA TOTAL MULTIPOLES')
  commands.

    Psi4 stopped on: Tuesday, 28 April 2020 12:11PM
    Psi4 wall time for execution: 0:00:26.70

*** Psi4 exiting successfully. Buy a developer a beer!
