                               Psi4 1.3.2 release

  ==> Input File <==

--------------------------------------------------------------------------
import numpy as np
set {scf_type pk
basis cc-pvdz
d_convergence 10
gdma_switch   0
gdma_limit    0
gdma_origin   [ 0.0,  0.0,  0.0 ]
}
molecule test {
    units Angstrom
    0 1
    --
    0 1
    C                2.542880118513713     1.872895308609547    -3.489434703539331
    C                0.110880118513713     2.181895308609548     0.066565296460669
    C                1.496880118513713     2.067895308609548     0.188565296460669
    C               -0.478119881486287     2.205895308609548    -1.193434703539331
    C                2.288880118513713     1.966895308609548    -0.958434703539331
    C                0.317880118513713     2.123895308609548    -2.332434703539331
    C                1.706880118513713     2.005895308609548    -2.234434703539331
    O               -0.675119881486287     2.266895308609548     1.177565296460669
    H                1.954880118513713     2.040895308609548     1.163565296460669
    H               -0.166119881486287     2.022895308609548     1.966565296460669
    H               -1.550119881486287     2.290895308609548    -1.283434703539331
    H                3.354880118513713     1.850895308609548    -0.839434703539331
    H               -0.155119881486287     2.128895308609548    -3.304434703539331
    H                1.972880118513713     2.253895308609548    -4.337434703539332
    H                2.709880118513714     0.810895308609548    -3.657434703539331
    H                3.514309118513713     2.388155308609548    -3.460608703539331
    C               -2.434119881486287    -2.175104691390452     3.234565296460669
    C                0.053880118513713    -1.468104691390453     0.462565296460669
    C                0.015880118513713    -2.661104691390452    -0.254434703539331
    C               -0.751119881486287    -1.308104691390452     1.584565296460669
    C               -1.600119881486287    -2.334104691390452     1.996565296460669
    C               -0.833119881486287    -3.692104691390452     0.149565296460669
    C               -1.635119881486287    -3.526104691390452     1.275565296460669
    H                0.707880118513713    -0.669104691390452     0.142565296460669
    H                0.658880118513713    -2.789104691390452    -1.113434703539331
    H               -0.717119881486287    -0.382104691390452     2.137565296460669
    H               -0.856119881486287    -4.620104691390452    -0.401434703539331
    H               -3.384119881486287    -2.694104691390452     3.102565296460669
    H               -2.663119881486287    -1.117104691390453     3.374565296460669
    H               -2.286119881486287    -4.327104691390453     1.589565296460669
    H               -1.934094881486287    -2.547614691390452     4.140771296460668

}
e, wfn = energy('scf', return_wfn=True)
gdma(wfn)
dmavals = variable('DMA DISTRIBUTED MULTIPOLES')
charges = np.array(dmavals)
print(charges)
np.save('SSI-052TYR-116PHE-1-dimer.npy', np.array(charges))--------------------------------------------------------------------------

*** tstart() called on ds3
*** at Mon Apr 27 16:04:59 2020

   => Loading Basis Set <=

    Name: CC-PVDZ
    Role: ORBITAL
    Keyword: BASIS
    atoms 1-7, 17-23  entry C          line   138 file /theoryfs2/ds/metcalf/miniconda2/envs/tf2gpu/share/psi4/basis/cc-pvdz.gbs
    atoms 8           entry O          line   198 file /theoryfs2/ds/metcalf/miniconda2/envs/tf2gpu/share/psi4/basis/cc-pvdz.gbs
    atoms 9-16, 24-31 entry H          line    22 file /theoryfs2/ds/metcalf/miniconda2/envs/tf2gpu/share/psi4/basis/cc-pvdz.gbs

         ---------------------------------------------------------
                                   SCF
               by Justin Turney, Rob Parrish, Andy Simmonett
                          and Daniel G. A. Smith
                              RHF Reference
                        1 Threads,    500 MiB Core
         ---------------------------------------------------------

  ==> Geometry <==

    Molecular point group: c1
    Full point group: C1

    Geometry (in Angstrom), charge = 0, multiplicity = 1:

       Center              X                  Y                   Z               Mass
    ------------   -----------------  -----------------  -----------------  -----------------
         C            2.542880118514     1.872895308610    -3.489434703539    12.000000000000
         C            0.110880118514     2.181895308610     0.066565296461    12.000000000000
         C            1.496880118514     2.067895308610     0.188565296461    12.000000000000
         C           -0.478119881486     2.205895308610    -1.193434703539    12.000000000000
         C            2.288880118514     1.966895308610    -0.958434703539    12.000000000000
         C            0.317880118514     2.123895308610    -2.332434703539    12.000000000000
         C            1.706880118514     2.005895308610    -2.234434703539    12.000000000000
         O           -0.675119881486     2.266895308610     1.177565296461    15.994914619570
         H            1.954880118514     2.040895308610     1.163565296461     1.007825032230
         H           -0.166119881486     2.022895308610     1.966565296461     1.007825032230
         H           -1.550119881486     2.290895308610    -1.283434703539     1.007825032230
         H            3.354880118514     1.850895308610    -0.839434703539     1.007825032230
         H           -0.155119881486     2.128895308610    -3.304434703539     1.007825032230
         H            1.972880118514     2.253895308610    -4.337434703539     1.007825032230
         H            2.709880118514     0.810895308610    -3.657434703539     1.007825032230
         H            3.514309118514     2.388155308610    -3.460608703539     1.007825032230
         C           -2.434119881486    -2.175104691390     3.234565296461    12.000000000000
         C            0.053880118514    -1.468104691390     0.462565296461    12.000000000000
         C            0.015880118514    -2.661104691390    -0.254434703539    12.000000000000
         C           -0.751119881486    -1.308104691390     1.584565296461    12.000000000000
         C           -1.600119881486    -2.334104691390     1.996565296461    12.000000000000
         C           -0.833119881486    -3.692104691390     0.149565296461    12.000000000000
         C           -1.635119881486    -3.526104691390     1.275565296461    12.000000000000
         H            0.707880118514    -0.669104691390     0.142565296461     1.007825032230
         H            0.658880118514    -2.789104691390    -1.113434703539     1.007825032230
         H           -0.717119881486    -0.382104691390     2.137565296461     1.007825032230
         H           -0.856119881486    -4.620104691390    -0.401434703539     1.007825032230
         H           -3.384119881486    -2.694104691390     3.102565296461     1.007825032230
         H           -2.663119881486    -1.117104691390     3.374565296461     1.007825032230
         H           -2.286119881486    -4.327104691390     1.589565296461     1.007825032230
         H           -1.934094881486    -2.547614691390     4.140771296461     1.007825032230

  Running in c1 symmetry.

  Rotational constants: A =      0.03345  B =      0.00940  C =      0.00804 [cm^-1]
  Rotational constants: A =   1002.65964  B =    281.94948  C =    241.07872 [MHz]
  Nuclear repulsion =  884.568176799868525

  Charge       = 0
  Multiplicity = 1
  Electrons    = 108
  Nalpha       = 54
  Nbeta        = 54

  ==> Algorithm <==

  SCF Algorithm Type is PK.
  DIIS enabled.
  MOM disabled.
  Fractional occupation disabled.
  Guess Type is SAD.
  Energy threshold   = 1.00e-06
  Density threshold  = 1.00e-10
  Integral threshold = 0.00e+00

  ==> Primary Basis <==

  Basis Set: CC-PVDZ
    Blend: CC-PVDZ
    Number of shells: 138
    Number of basis function: 290
    Number of Cartesian functions: 305
    Spherical Harmonics?: true
    Max angular momentum: 2

  ==> Pre-Iterations <==

   -------------------------------------------------------
    Irrep   Nso     Nmo     Nalpha   Nbeta   Ndocc  Nsocc
   -------------------------------------------------------
     A        290     290       0       0       0       0
   -------------------------------------------------------
    Total     290     290      54      54      54       0
   -------------------------------------------------------

  ==> Integral Setup <==

  Using integral reordering PK algorithm.
  Sizing the integral batches needed.
  Building batch lookup table.
   Calculation information:
      Number of atoms:                  31
      Number of AO shells:             138
      Number of primitives:            410
      Number of atomic orbitals:       305
      Number of basis functions:       290

      Integral cutoff                 1.00e-12
      Number of threads:                 1

	Batch   1 pq = [       0,    9405] index = [             0,44231715] size =     44231715
	Batch   2 pq = [    9405,   13301] index = [      44231715,88464951] size =     44233236
	Batch   3 pq = [   13301,   16290] index = [      88464951,132690195] size =     44225244
	Batch   4 pq = [   16290,   18810] index = [     132690195,176917455] size =     44227260
	Batch   5 pq = [   18810,   21030] index = [     176917455,221140965] size =     44223510
	Batch   6 pq = [   21030,   23037] index = [     221140965,265363203] size =     44222238
	Batch   7 pq = [   23037,   24883] index = [     265363203,309594286] size =     44231083
	Batch   8 pq = [   24883,   26601] index = [     309594286,353819901] size =     44225615
	Batch   9 pq = [   26601,   28214] index = [     353819901,398029005] size =     44209104
	Batch  10 pq = [   28214,   29740] index = [     398029005,442248670] size =     44219665
	Batch  11 pq = [   29740,   31191] index = [     442248670,486454836] size =     44206166
	Batch  12 pq = [   31191,   32578] index = [     486454836,530679331] size =     44224495
	Batch  13 pq = [   32578,   33908] index = [     530679331,574893186] size =     44213855
	Batch  14 pq = [   33908,   35188] index = [     574893186,619115266] size =     44222080
	Batch  15 pq = [   35188,   36423] index = [     619115266,663335676] size =     44220410
	Batch  16 pq = [   36423,   37617] index = [     663335676,707538153] size =     44202477
	Batch  17 pq = [   37617,   38775] index = [     707538153,751769700] size =     44231547
	Batch  18 pq = [   38775,   39899] index = [     751769700,795985050] size =     44215350
	Batch  19 pq = [   39899,   40992] index = [     795985050,840192528] size =     44207478
	Batch  20 pq = [   40992,   42057] index = [     840192528,884416653] size =     44224125
	Batch  21 pq = [   42057,   42195] index = [     884416653,890230110] size =      5813457
  Task number: 81
  Buffer size: 11059200
  Buffer per thread: 2
  We computed 41470593 shell quartets total.
  Whereas there are 45998436 unique shell quartets.

  ==> DiskJK: Disk-Based J/K Matrices <==

    J tasked:                  Yes
    K tasked:                  Yes
    wK tasked:                  No
    Memory [MiB]:              375
    Schwarz Cutoff:          1E-12

    OpenMP threads:              1

  Minimum eigenvalue in the overlap matrix is 2.9434547044E-04.
  Using Symmetric Orthogonalization.

  SCF Guess: Superposition of Atomic Densities via on-the-fly atomic UHF.

  ==> Iterations <==

                        Total Energy        Delta E     RMS |[F,P]|

   @RHF iter SAD:  -613.16817181738770   -6.13168e+02   0.00000e+00
   @RHF iter   1:  -614.06234220674901   -8.94170e-01   2.37100e-03 DIIS
   @RHF iter   2:  -614.33769816515360   -2.75356e-01   9.84283e-04 DIIS
   @RHF iter   3:  -614.37911675194289   -4.14186e-02   2.33576e-04 DIIS
   @RHF iter   4:  -614.38268077238422   -3.56402e-03   8.97165e-05 DIIS
   @RHF iter   5:  -614.38307235391642   -3.91582e-04   1.71403e-05 DIIS
   @RHF iter   6:  -614.38309292567351   -2.05718e-05   5.73377e-06 DIIS
   @RHF iter   7:  -614.38309519347104   -2.26780e-06   1.66828e-06 DIIS
   @RHF iter   8:  -614.38309545698223   -2.63511e-07   6.43707e-07 DIIS
   @RHF iter   9:  -614.38309549203154   -3.50493e-08   2.13990e-07 DIIS
   @RHF iter  10:  -614.38309549674125   -4.70970e-09   6.97261e-08 DIIS
   @RHF iter  11:  -614.38309549754217   -8.00924e-10   3.29532e-08 DIIS
   @RHF iter  12:  -614.38309549774817   -2.06001e-10   1.85087e-08 DIIS
   @RHF iter  13:  -614.38309549783025   -8.20819e-11   6.87146e-09 DIIS
   @RHF iter  14:  -614.38309549783958   -9.32232e-12   2.07836e-09 DIIS
   @RHF iter  15:  -614.38309549783526    4.32010e-12   6.78173e-10 DIIS
   @RHF iter  16:  -614.38309549783412    1.13687e-12   2.53856e-10 DIIS
   @RHF iter  17:  -614.38309549783514   -1.02318e-12   8.32223e-11 DIIS
  Energy and wave function converged.

  ==> Post-Iterations <==

    Orbital Energies [Eh]
    ---------------------

    Doubly Occupied:

       1A    -20.587765     2A    -11.300403     3A    -11.242753
       4A    -11.240011     5A    -11.238419     6A    -11.236697
       7A    -11.235876     8A    -11.231604     9A    -11.231402
      10A    -11.230470    11A    -11.228171    12A    -11.225992
      13A    -11.225914    14A    -11.225712    15A    -11.225337
      16A     -1.402039    17A     -1.150709    18A     -1.147835
      19A     -1.039867    20A     -1.037434    21A     -1.019499
      22A     -1.007448    23A     -0.927481    24A     -0.926700
      25A     -0.845452    26A     -0.820301    27A     -0.803363
      28A     -0.790946    29A     -0.732278    30A     -0.686697
      31A     -0.668423    32A     -0.643642    33A     -0.626847
      34A     -0.626082    35A     -0.611906    36A     -0.591545
      37A     -0.588890    38A     -0.576377    39A     -0.574316
      40A     -0.573438    41A     -0.565094    42A     -0.557658
      43A     -0.530737    44A     -0.529048    45A     -0.498844
      46A     -0.487888    47A     -0.482534    48A     -0.482157
      49A     -0.477388    50A     -0.465167    51A     -0.340860
      52A     -0.327547    53A     -0.316735    54A     -0.303057

    Virtual:

      55A      0.126550    56A      0.141411    57A      0.144457
      58A      0.151354    59A      0.167481    60A      0.183616
      61A      0.196568    62A      0.208675    63A      0.214346
      64A      0.219015    65A      0.236681    66A      0.254426
      67A      0.258582    68A      0.260472    69A      0.273790
      70A      0.275009    71A      0.283043    72A      0.290284
      73A      0.294364    74A      0.321882    75A      0.367084
      76A      0.369980    77A      0.370837    78A      0.384816
      79A      0.422238    80A      0.453273    81A      0.459292
      82A      0.468350    83A      0.483004    84A      0.484956
      85A      0.488570    86A      0.494289    87A      0.509966
      88A      0.563911    89A      0.598367    90A      0.612216
      91A      0.628602    92A      0.637994    93A      0.650111
      94A      0.658553    95A      0.669136    96A      0.676477
      97A      0.681592    98A      0.690462    99A      0.707342
     100A      0.715247   101A      0.722646   102A      0.728764
     103A      0.735306   104A      0.737686   105A      0.745237
     106A      0.748466   107A      0.755537   108A      0.765127
     109A      0.766088   110A      0.773841   111A      0.779289
     112A      0.781934   113A      0.789241   114A      0.795721
     115A      0.829508   116A      0.833166   117A      0.839664
     118A      0.849238   119A      0.865992   120A      0.869953
     121A      0.876685   122A      0.879967   123A      0.881522
     124A      0.884889   125A      0.890670   126A      0.898000
     127A      0.907782   128A      0.914196   129A      0.917853
     130A      0.932233   131A      0.936150   132A      0.940947
     133A      0.942804   134A      0.946998   135A      0.964076
     136A      0.971439   137A      1.003317   138A      1.005360
     139A      1.019994   140A      1.039448   141A      1.050904
     142A      1.096252   143A      1.120493   144A      1.131435
     145A      1.135079   146A      1.141370   147A      1.147243
     148A      1.152533   149A      1.161799   150A      1.179130
     151A      1.200027   152A      1.226740   153A      1.235411
     154A      1.240520   155A      1.252089   156A      1.255496
     157A      1.266050   158A      1.269222   159A      1.271889
     160A      1.286359   161A      1.304297   162A      1.308789
     163A      1.311924   164A      1.321801   165A      1.324951
     166A      1.334215   167A      1.353345   168A      1.356669
     169A      1.390628   170A      1.418781   171A      1.422117
     172A      1.474365   173A      1.496959   174A      1.503693
     175A      1.536104   176A      1.543441   177A      1.566571
     178A      1.569111   179A      1.608582   180A      1.626031
     181A      1.628402   182A      1.670563   183A      1.681045
     184A      1.699446   185A      1.709960   186A      1.731274
     187A      1.739297   188A      1.740754   189A      1.751171
     190A      1.763422   191A      1.786572   192A      1.793225
     193A      1.800376   194A      1.813579   195A      1.817429
     196A      1.862644   197A      1.876166   198A      1.878744
     199A      1.886023   200A      1.896968   201A      1.905321
     202A      1.909356   203A      1.913126   204A      1.919425
     205A      1.920914   206A      1.925452   207A      1.932931
     208A      1.938287   209A      1.949288   210A      1.956400
     211A      1.962254   212A      1.963850   213A      1.974079
     214A      1.987985   215A      1.995348   216A      2.004181
     217A      2.035535   218A      2.046944   219A      2.052092
     220A      2.064050   221A      2.066583   222A      2.071262
     223A      2.075026   224A      2.083226   225A      2.113221
     226A      2.125578   227A      2.145931   228A      2.150247
     229A      2.159995   230A      2.166456   231A      2.177591
     232A      2.177871   233A      2.197992   234A      2.205662
     235A      2.224286   236A      2.257664   237A      2.275510
     238A      2.279949   239A      2.289578   240A      2.293902
     241A      2.297889   242A      2.308092   243A      2.317594
     244A      2.330718   245A      2.356861   246A      2.383229
     247A      2.409483   248A      2.446540   249A      2.464732
     250A      2.473852   251A      2.476972   252A      2.492299
     253A      2.500721   254A      2.539789   255A      2.547344
     256A      2.563627   257A      2.610393   258A      2.627609
     259A      2.632111   260A      2.743119   261A      2.754248
     262A      2.758923   263A      2.761199   264A      2.771023
     265A      2.780316   266A      2.797341   267A      2.805139
     268A      2.833631   269A      2.842417   270A      2.850920
     271A      2.877894   272A      2.899120   273A      2.969445
     274A      2.989526   275A      2.998893   276A      3.016304
     277A      3.032351   278A      3.084392   279A      3.123598
     280A      3.160729   281A      3.209751   282A      3.262340
     283A      3.274055   284A      3.312548   285A      3.347114
     286A      3.576541   287A      3.677472   288A      3.948439
     289A      3.977050   290A      4.176241

    Final Occupation by Irrep:
              A
    DOCC [    54 ]

  @RHF Final Energy:  -614.38309549783514

   => Energetics <=

    Nuclear Repulsion Energy =            884.5681767998685245
    One-Electron Energy =               -2588.5210457560124269
    Two-Electron Energy =                1089.5697734583086458
    Total Energy =                       -614.3830954978352565

Computation Completed

Properties will be evaluated at   0.000000,   0.000000,   0.000000 [a0]

Properties computed using the SCF density matrix

  Nuclear Dipole Moment: [e a0]
     X:     1.0857      Y:    -3.1380      Z:    -0.7255

  Electronic Dipole Moment: [e a0]
     X:    -0.5943      Y:     3.0211      Z:     0.8417

  Dipole Moment: [e a0]
     X:     0.4914      Y:    -0.1169      Z:     0.1162     Total:     0.5183

  Dipole Moment: [D]
     X:     1.2490      Y:    -0.2972      Z:     0.2953     Total:     1.3174

*** tstop() called on ds3 at Mon Apr 27 16:15:42 2020
Module time:
	user time   =     379.28 seconds =       6.32 minutes
	system time =     141.59 seconds =       2.36 minutes
	total time  =        643 seconds =      10.72 minutes
Total time:
	user time   =     379.28 seconds =       6.32 minutes
	system time =     141.59 seconds =       2.36 minutes
	total time  =        643 seconds =      10.72 minutes
                                     G D M A

                                 by Anthony Stone

                           version 2.2.06, 22 June 2011

               Distributed Multipoles from Gaussian wavefunctions

Starting at 16:15:43 on 27 Apr 2020

Using SCF density matrix from file ./SSI/SSI-052TYR-116PHE-1-dimer.test.20433.fchk

                         Distributed Multipole Analysis

Standard DMA

Positions and radii in angstrom
Multipole moments in atomic units, ea_0^k for rank k

C          x =  2.542880  y =  1.872895  z = -3.489435 angstrom
           Maximum rank =  0   Radius =  0.650 angstrom
                   Q00  =  -0.203001

C          x =  0.110880  y =  2.181895  z =  0.066565 angstrom
           Maximum rank =  0   Radius =  0.650 angstrom
                   Q00  =   0.313003

C          x =  1.496880  y =  2.067895  z =  0.188565 angstrom
           Maximum rank =  0   Radius =  0.650 angstrom
                   Q00  =  -0.183801

C          x = -0.478120  y =  2.205895  z = -1.193435 angstrom
           Maximum rank =  0   Radius =  0.650 angstrom
                   Q00  =  -0.105120

C          x =  2.288880  y =  1.966895  z = -0.958435 angstrom
           Maximum rank =  0   Radius =  0.650 angstrom
                   Q00  =  -0.064754

C          x =  0.317880  y =  2.123895  z = -2.332435 angstrom
           Maximum rank =  0   Radius =  0.650 angstrom
                   Q00  =   0.053937

C          x =  1.706880  y =  2.005895  z = -2.234435 angstrom
           Maximum rank =  0   Radius =  0.650 angstrom
                   Q00  =  -0.134298

O          x = -0.675120  y =  2.266895  z =  1.177565 angstrom
           Maximum rank =  0   Radius =  0.650 angstrom
                   Q00  =  -0.662846

H          x =  1.954880  y =  2.040895  z =  1.163565 angstrom
           Maximum rank =  0   Radius =  0.325 angstrom
                   Q00  =   0.072997

H          x = -0.166120  y =  2.022895  z =  1.966565 angstrom
           Maximum rank =  0   Radius =  0.325 angstrom
                   Q00  =   0.407471

H          x = -1.550120  y =  2.290895  z = -1.283435 angstrom
           Maximum rank =  0   Radius =  0.325 angstrom
                   Q00  =   0.083619

H          x =  3.354880  y =  1.850895  z = -0.839435 angstrom
           Maximum rank =  0   Radius =  0.325 angstrom
                   Q00  =   0.069738

H          x = -0.155120  y =  2.128895  z = -3.304435 angstrom
           Maximum rank =  0   Radius =  0.325 angstrom
                   Q00  =   0.065329

H          x =  1.972880  y =  2.253895  z = -4.337435 angstrom
           Maximum rank =  0   Radius =  0.325 angstrom
                   Q00  =   0.097522

H          x =  2.709880  y =  0.810895  z = -3.657435 angstrom
           Maximum rank =  0   Radius =  0.325 angstrom
                   Q00  =   0.099390

H          x =  3.514309  y =  2.388155  z = -3.460609 angstrom
           Maximum rank =  0   Radius =  0.325 angstrom
                   Q00  =   0.100231

C          x = -2.434120  y = -2.175105  z =  3.234565 angstrom
           Maximum rank =  0   Radius =  0.650 angstrom
                   Q00  =  -0.195426

C          x =  0.053880  y = -1.468105  z =  0.462565 angstrom
           Maximum rank =  0   Radius =  0.650 angstrom
                   Q00  =  -0.069004

C          x =  0.015880  y = -2.661105  z = -0.254435 angstrom
           Maximum rank =  0   Radius =  0.650 angstrom
                   Q00  =  -0.087774

C          x = -0.751120  y = -1.308105  z =  1.584565 angstrom
           Maximum rank =  0   Radius =  0.650 angstrom
                   Q00  =   0.005586

C          x = -1.600120  y = -2.334105  z =  1.996565 angstrom
           Maximum rank =  0   Radius =  0.650 angstrom
                   Q00  =  -0.103683

C          x = -0.833120  y = -3.692105  z =  0.149565 angstrom
           Maximum rank =  0   Radius =  0.650 angstrom
                   Q00  =  -0.078477

C          x = -1.635120  y = -3.526105  z =  1.275565 angstrom
           Maximum rank =  0   Radius =  0.650 angstrom
                   Q00  =  -0.056184

H          x =  0.707880  y = -0.669105  z =  0.142565 angstrom
           Maximum rank =  0   Radius =  0.325 angstrom
                   Q00  =   0.074932

H          x =  0.658880  y = -2.789105  z = -1.113435 angstrom
           Maximum rank =  0   Radius =  0.325 angstrom
                   Q00  =   0.057817

H          x = -0.717120  y = -0.382105  z =  2.137565 angstrom
           Maximum rank =  0   Radius =  0.325 angstrom
                   Q00  =   0.027014

H          x = -0.856120  y = -4.620105  z = -0.401435 angstrom
           Maximum rank =  0   Radius =  0.325 angstrom
                   Q00  =   0.063487

H          x = -3.384120  y = -2.694105  z =  3.102565 angstrom
           Maximum rank =  0   Radius =  0.325 angstrom
                   Q00  =   0.098826

H          x = -2.663120  y = -1.117105  z =  3.374565 angstrom
           Maximum rank =  0   Radius =  0.325 angstrom
                   Q00  =   0.096486

H          x = -2.286120  y = -4.327105  z =  1.589565 angstrom
           Maximum rank =  0   Radius =  0.325 angstrom
                   Q00  =   0.054538

H          x = -1.934095  y = -2.547615  z =  4.140771 angstrom
           Maximum rank =  0   Radius =  0.325 angstrom
                   Q00  =   0.102446

Total multipoles referred to origin at
           x =   0.000000,  y =    0.000000,  z =    0.000000 angstrom
                   Q00  =  -0.000000

Finished at 16:15:43 on 27 Apr 2020

  DMA results are available in the Python driver through the
	  variable('DMA DISTRIBUTED MULTIPOLES')
  and
	  variable('DMA TOTAL MULTIPOLES')
  commands.

    Psi4 stopped on: Monday, 27 April 2020 04:15PM
    Psi4 wall time for execution: 0:10:43.29

*** Psi4 exiting successfully. Buy a developer a beer!
