                               Psi4 1.3.2 release

  ==> Input File <==

--------------------------------------------------------------------------
import numpy as np
set {scf_type pk
basis cc-pvdz
d_convergence 10
gdma_switch   0
gdma_limit    0
gdma_origin   [ 0.0,  0.0,  0.0 ]
}
molecule test {
    units Angstrom
    0 1
    --
    0 1
    C                0.948675332961287     0.556280201201062    -3.542568992166276
    C                0.053675332961287     0.505280201201062    -4.825568992166277
    H                1.998675332961287     0.446280201201062    -3.810568992166276
    H                0.809675332961287     1.520280201201062    -3.052568992166276
    H                0.662675332961287    -0.232719798798938    -2.848568992166276
    H                0.322675332961287     1.348280201201062    -5.463568992166276
    H               -0.982324667038713     0.666280201201062    -4.521568992166277
    H                0.110465332961287    -0.427119798798938    -5.406432992166277
    C               -0.423324667038713    -2.508719798798938     2.118431007833725
    C                0.648675332961287     0.584280201201062     0.130431007833724
    C                0.026675332961287     1.573280201201062     0.832431007833724
    C                0.496675332961287    -0.751719798798938     0.493431007833724
    C               -0.275324667038713    -1.080719798798938     1.610431007833724
    C               -0.737324667038713     1.289280201201062     1.921431007833724
    C               -0.841324667038713    -0.038719798798938     2.348431007833724
    H                1.260675332961287     0.842280201201062    -0.719568992166276
    H                0.135675332961287     2.598280201201062     0.511431007833724
    H                0.994675332961287    -1.526719798798938    -0.073568992166276
    H               -1.219324667038713     2.081280201201062     2.479431007833724
    H               -0.493324667038713    -3.183719798798938     1.267431007833724
    H               -1.363324667038713    -2.572719798798938     2.667431007833724
    H               -1.401324667038713    -0.264719798798938     3.241431007833724
    H                0.389905332961287    -2.825529798798938     2.787978007833724

}
e, wfn = energy('scf', return_wfn=True)
gdma(wfn)
dmavals = variable('DMA DISTRIBUTED MULTIPOLES')
charges = np.array(dmavals)
print(charges)
np.save('SSI-009ILE-052PHE-1-dimer.npy', np.array(charges))--------------------------------------------------------------------------

*** tstart() called on ds3
*** at Mon Apr 27 21:22:28 2020

   => Loading Basis Set <=

    Name: CC-PVDZ
    Role: ORBITAL
    Keyword: BASIS
    atoms 1-2, 9-15  entry C          line   138 file /theoryfs2/ds/metcalf/miniconda2/envs/tf2gpu/share/psi4/basis/cc-pvdz.gbs
    atoms 3-8, 16-23 entry H          line    22 file /theoryfs2/ds/metcalf/miniconda2/envs/tf2gpu/share/psi4/basis/cc-pvdz.gbs

         ---------------------------------------------------------
                                   SCF
               by Justin Turney, Rob Parrish, Andy Simmonett
                          and Daniel G. A. Smith
                              RHF Reference
                        1 Threads,    500 MiB Core
         ---------------------------------------------------------

  ==> Geometry <==

    Molecular point group: c1
    Full point group: C1

    Geometry (in Angstrom), charge = 0, multiplicity = 1:

       Center              X                  Y                   Z               Mass
    ------------   -----------------  -----------------  -----------------  -----------------
         C            0.948675332961     0.556280201201    -3.542568992166    12.000000000000
         C            0.053675332961     0.505280201201    -4.825568992166    12.000000000000
         H            1.998675332961     0.446280201201    -3.810568992166     1.007825032230
         H            0.809675332961     1.520280201201    -3.052568992166     1.007825032230
         H            0.662675332961    -0.232719798799    -2.848568992166     1.007825032230
         H            0.322675332961     1.348280201201    -5.463568992166     1.007825032230
         H           -0.982324667039     0.666280201201    -4.521568992166     1.007825032230
         H            0.110465332961    -0.427119798799    -5.406432992166     1.007825032230
         C           -0.423324667039    -2.508719798799     2.118431007834    12.000000000000
         C            0.648675332961     0.584280201201     0.130431007834    12.000000000000
         C            0.026675332961     1.573280201201     0.832431007834    12.000000000000
         C            0.496675332961    -0.751719798799     0.493431007834    12.000000000000
         C           -0.275324667039    -1.080719798799     1.610431007834    12.000000000000
         C           -0.737324667039     1.289280201201     1.921431007834    12.000000000000
         C           -0.841324667039    -0.038719798799     2.348431007834    12.000000000000
         H            1.260675332961     0.842280201201    -0.719568992166     1.007825032230
         H            0.135675332961     2.598280201201     0.511431007834     1.007825032230
         H            0.994675332961    -1.526719798799    -0.073568992166     1.007825032230
         H           -1.219324667039     2.081280201201     2.479431007834     1.007825032230
         H           -0.493324667039    -3.183719798799     1.267431007834     1.007825032230
         H           -1.363324667039    -2.572719798799     2.667431007834     1.007825032230
         H           -1.401324667039    -0.264719798799     3.241431007834     1.007825032230
         H            0.389905332961    -2.825529798799     2.787978007834     1.007825032230

  Running in c1 symmetry.

  Rotational constants: A =      0.08062  B =      0.01960  C =      0.01680 [cm^-1]
  Rotational constants: A =   2416.91468  B =    587.64501  C =    503.77888 [MHz]
  Nuclear repulsion =  397.414836689097399

  Charge       = 0
  Multiplicity = 1
  Electrons    = 68
  Nalpha       = 34
  Nbeta        = 34

  ==> Algorithm <==

  SCF Algorithm Type is PK.
  DIIS enabled.
  MOM disabled.
  Fractional occupation disabled.
  Guess Type is SAD.
  Energy threshold   = 1.00e-06
  Density threshold  = 1.00e-10
  Integral threshold = 0.00e+00

  ==> Primary Basis <==

  Basis Set: CC-PVDZ
    Blend: CC-PVDZ
    Number of shells: 96
    Number of basis function: 196
    Number of Cartesian functions: 205
    Spherical Harmonics?: true
    Max angular momentum: 2

  ==> Pre-Iterations <==

   -------------------------------------------------------
    Irrep   Nso     Nmo     Nalpha   Nbeta   Ndocc  Nsocc
   -------------------------------------------------------
     A        196     196       0       0       0       0
   -------------------------------------------------------
    Total     196     196      34      34      34       0
   -------------------------------------------------------

  ==> Integral Setup <==

  Using integral reordering PK algorithm.
  Sizing the integral batches needed.
  Building batch lookup table.
   Calculation information:
      Number of atoms:                  23
      Number of AO shells:              96
      Number of primitives:            268
      Number of atomic orbitals:       205
      Number of basis functions:       196

      Integral cutoff                 1.00e-12
      Number of threads:                 1

	Batch   1 pq = [       0,    9405] index = [             0,44231715] size =     44231715
	Batch   2 pq = [    9405,   13301] index = [      44231715,88464951] size =     44233236
	Batch   3 pq = [   13301,   16290] index = [      88464951,132690195] size =     44225244
	Batch   4 pq = [   16290,   18810] index = [     132690195,176917455] size =     44227260
	Batch   5 pq = [   18810,   19306] index = [     176917455,186370471] size =      9453016
  Task number: 17
  Buffer size: 11059200
  Buffer per thread: 2
  We computed 8346760 shell quartets total.
  Whereas there are 10841496 unique shell quartets.

  ==> DiskJK: Disk-Based J/K Matrices <==

    J tasked:                  Yes
    K tasked:                  Yes
    wK tasked:                  No
    Memory [MiB]:              375
    Schwarz Cutoff:          1E-12

    OpenMP threads:              1

  Minimum eigenvalue in the overlap matrix is 3.0181405345E-04.
  Using Symmetric Orthogonalization.

  SCF Guess: Superposition of Atomic Densities via on-the-fly atomic UHF.

  ==> Iterations <==

                        Total Energy        Delta E     RMS |[F,P]|

   @RHF iter SAD:  -347.87673425767042   -3.47877e+02   0.00000e+00
   @RHF iter   1:  -348.76513007746621   -8.88396e-01   2.88811e-03 DIIS
   @RHF iter   2:  -348.95693472790259   -1.91805e-01   1.19843e-03 DIIS
   @RHF iter   3:  -348.98693007466187   -2.99953e-02   2.57370e-04 DIIS
   @RHF iter   4:  -348.98940246401753   -2.47239e-03   4.72810e-05 DIIS
   @RHF iter   5:  -348.98946695350895   -6.44895e-05   1.33922e-05 DIIS
   @RHF iter   6:  -348.98947226602957   -5.31252e-06   2.50936e-06 DIIS
   @RHF iter   7:  -348.98947248646050   -2.20431e-07   8.69178e-07 DIIS
   @RHF iter   8:  -348.98947251183870   -2.53782e-08   3.42825e-07 DIIS
   @RHF iter   9:  -348.98947251662349   -4.78479e-09   1.08533e-07 DIIS
   @RHF iter  10:  -348.98947251746074   -8.37247e-10   5.38255e-08 DIIS
   @RHF iter  11:  -348.98947251774928   -2.88537e-10   2.07471e-08 DIIS
   @RHF iter  12:  -348.98947251779850   -4.92264e-11   9.60148e-09 DIIS
   @RHF iter  13:  -348.98947251780885   -1.03455e-11   4.05782e-09 DIIS
   @RHF iter  14:  -348.98947251781073   -1.87583e-12   9.71718e-10 DIIS
   @RHF iter  15:  -348.98947251780942    1.30740e-12   4.29173e-10 DIIS
   @RHF iter  16:  -348.98947251781067   -1.25056e-12   1.34669e-10 DIIS
   @RHF iter  17:  -348.98947251781027    3.97904e-13   5.58635e-11 DIIS
  Energy and wave function converged.

  ==> Post-Iterations <==

    Orbital Energies [Eh]
    ---------------------

    Doubly Occupied:

       1A    -11.241200     2A    -11.231273     3A    -11.231041
       4A    -11.230502     5A    -11.228976     6A    -11.228811
       7A    -11.222646     8A    -11.221046     9A    -11.220526
      10A     -1.155673    11A     -1.045818    12A     -1.011221
      13A     -1.009002    14A     -0.932033    15A     -0.842564
      16A     -0.826874    17A     -0.792867    18A     -0.693024
      19A     -0.631956    20A     -0.627758    21A     -0.594194
      22A     -0.593566    23A     -0.580411    24A     -0.575793
      25A     -0.560447    26A     -0.536779    27A     -0.499632
      28A     -0.491759    29A     -0.488239    30A     -0.486973
      31A     -0.482145    32A     -0.476399    33A     -0.329921
      34A     -0.325325

    Virtual:

      35A      0.136251    36A      0.144346    37A      0.177062
      38A      0.192486    39A      0.201661    40A      0.215065
      41A      0.229041    42A      0.244733    43A      0.255717
      44A      0.263036    45A      0.267314    46A      0.276794
      47A      0.285028    48A      0.294737    49A      0.297389
      50A      0.316609    51A      0.368687    52A      0.381728
      53A      0.403404    54A      0.465068    55A      0.472890
      56A      0.480927    57A      0.496975    58A      0.562512
      59A      0.587186    60A      0.593599    61A      0.598666
      62A      0.638011    63A      0.649477    64A      0.655769
      65A      0.676331    66A      0.687208    67A      0.697064
      68A      0.709650    69A      0.715009    70A      0.738974
      71A      0.745082    72A      0.756152    73A      0.761064
      74A      0.772192    75A      0.778764    76A      0.798153
      77A      0.832798    78A      0.846394    79A      0.854433
      80A      0.875568    81A      0.876091    82A      0.890624
      83A      0.893801    84A      0.894982    85A      0.898719
      86A      0.902470    87A      0.913783    88A      0.915911
      89A      0.932563    90A      0.933428    91A      0.945216
      92A      0.960995    93A      0.986836    94A      1.002641
      95A      1.036701    96A      1.049152    97A      1.122457
      98A      1.133481    99A      1.139688   100A      1.146640
     101A      1.149453   102A      1.164966   103A      1.193347
     104A      1.240287   105A      1.242032   106A      1.246069
     107A      1.257336   108A      1.267199   109A      1.298618
     110A      1.319516   111A      1.327755   112A      1.336773
     113A      1.415962   114A      1.447257   115A      1.473731
     116A      1.511989   117A      1.521025   118A      1.554140
     119A      1.581692   120A      1.613343   121A      1.664538
     122A      1.684895   123A      1.695225   124A      1.701834
     125A      1.739957   126A      1.748578   127A      1.770207
     128A      1.791553   129A      1.813527   130A      1.852153
     131A      1.864312   132A      1.872909   133A      1.884565
     134A      1.891549   135A      1.898929   136A      1.910387
     137A      1.913101   138A      1.921604   139A      1.937116
     140A      1.937464   141A      1.943878   142A      1.948930
     143A      1.955994   144A      1.962731   145A      1.976497
     146A      1.985416   147A      1.991216   148A      2.025162
     149A      2.052220   150A      2.071499   151A      2.074641
     152A      2.083006   153A      2.115559   154A      2.120419
     155A      2.140204   156A      2.168872   157A      2.178221
     158A      2.196852   159A      2.204004   160A      2.265813
     161A      2.284722   162A      2.288738   163A      2.295370
     164A      2.302682   165A      2.309123   166A      2.328568
     167A      2.341853   168A      2.444792   169A      2.462257
     170A      2.468007   171A      2.486311   172A      2.498009
     173A      2.542472   174A      2.548847   175A      2.573986
     176A      2.625388   177A      2.746608   178A      2.763185
     179A      2.767765   180A      2.769976   181A      2.786848
     182A      2.799462   183A      2.823353   184A      2.844858
     185A      2.847672   186A      2.863731   187A      2.884883
     188A      2.937848   189A      2.958039   190A      2.989289
     191A      3.022281   192A      3.029340   193A      3.161317
     194A      3.212369   195A      3.315192   196A      3.992645

    Final Occupation by Irrep:
              A
    DOCC [    34 ]

  @RHF Final Energy:  -348.98947251781027

   => Energetics <=

    Nuclear Repulsion Energy =            397.4148366890973989
    One-Electron Energy =               -1257.5158321087510558
    Two-Electron Energy =                 511.1115229018433297
    Total Energy =                       -348.9894725178102703

Computation Completed

Properties will be evaluated at   0.000000,   0.000000,   0.000000 [a0]

Properties computed using the SCF density matrix

  Nuclear Dipole Moment: [e a0]
     X:     1.1488      Y:    -1.4346      Z:   -12.1321

  Electronic Dipole Moment: [e a0]
     X:    -1.1581      Y:     1.3402      Z:    12.1871

  Dipole Moment: [e a0]
     X:    -0.0093      Y:    -0.0944      Z:     0.0551     Total:     0.1097

  Dipole Moment: [D]
     X:    -0.0236      Y:    -0.2399      Z:     0.1400     Total:     0.2788

*** tstop() called on ds3 at Mon Apr 27 21:24:07 2020
Module time:
	user time   =      59.41 seconds =       0.99 minutes
	system time =      27.19 seconds =       0.45 minutes
	total time  =         99 seconds =       1.65 minutes
Total time:
	user time   =      59.41 seconds =       0.99 minutes
	system time =      27.19 seconds =       0.45 minutes
	total time  =         99 seconds =       1.65 minutes
                                     G D M A

                                 by Anthony Stone

                           version 2.2.06, 22 June 2011

               Distributed Multipoles from Gaussian wavefunctions

Starting at 21:24:7 on 27 Apr 2020

Using SCF density matrix from file ./SSI/SSI-009ILE-052PHE-1-dimer.test.2305.fchk

                         Distributed Multipole Analysis

Standard DMA

Positions and radii in angstrom
Multipole moments in atomic units, ea_0^k for rank k

C          x =  0.948675  y =  0.556280  z = -3.542569 angstrom
           Maximum rank =  0   Radius =  0.650 angstrom
                   Q00  =  -0.247093

C          x =  0.053675  y =  0.505280  z = -4.825569 angstrom
           Maximum rank =  0   Radius =  0.650 angstrom
                   Q00  =  -0.247501

H          x =  1.998675  y =  0.446280  z = -3.810569 angstrom
           Maximum rank =  0   Radius =  0.325 angstrom
                   Q00  =   0.081469

H          x =  0.809675  y =  1.520280  z = -3.052569 angstrom
           Maximum rank =  0   Radius =  0.325 angstrom
                   Q00  =   0.081159

H          x =  0.662675  y = -0.232720  z = -2.848569 angstrom
           Maximum rank =  0   Radius =  0.325 angstrom
                   Q00  =   0.085827

H          x =  0.322675  y =  1.348280  z = -5.463569 angstrom
           Maximum rank =  0   Radius =  0.325 angstrom
                   Q00  =   0.079995

H          x = -0.982325  y =  0.666280  z = -4.521569 angstrom
           Maximum rank =  0   Radius =  0.325 angstrom
                   Q00  =   0.081800

H          x =  0.110465  y = -0.427120  z = -5.406433 angstrom
           Maximum rank =  0   Radius =  0.325 angstrom
                   Q00  =   0.086883

C          x = -0.423325  y = -2.508720  z =  2.118431 angstrom
           Maximum rank =  0   Radius =  0.650 angstrom
                   Q00  =  -0.209324

C          x =  0.648675  y =  0.584280  z =  0.130431 angstrom
           Maximum rank =  0   Radius =  0.650 angstrom
                   Q00  =  -0.028605

C          x =  0.026675  y =  1.573280  z =  0.832431 angstrom
           Maximum rank =  0   Radius =  0.650 angstrom
                   Q00  =  -0.039027

C          x =  0.496675  y = -0.751720  z =  0.493431 angstrom
           Maximum rank =  0   Radius =  0.650 angstrom
                   Q00  =  -0.094982

C          x = -0.275325  y = -1.080720  z =  1.610431 angstrom
           Maximum rank =  0   Radius =  0.650 angstrom
                   Q00  =  -0.106796

C          x = -0.737325  y =  1.289280  z =  1.921431 angstrom
           Maximum rank =  0   Radius =  0.650 angstrom
                   Q00  =  -0.072926

C          x = -0.841325  y = -0.038720  z =  2.348431 angstrom
           Maximum rank =  0   Radius =  0.650 angstrom
                   Q00  =  -0.045274

H          x =  1.260675  y =  0.842280  z = -0.719569 angstrom
           Maximum rank =  0   Radius =  0.325 angstrom
                   Q00  =   0.063602

H          x =  0.135675  y =  2.598280  z =  0.511431 angstrom
           Maximum rank =  0   Radius =  0.325 angstrom
                   Q00  =   0.051000

H          x =  0.994675  y = -1.526720  z = -0.073569 angstrom
           Maximum rank =  0   Radius =  0.325 angstrom
                   Q00  =   0.056487

H          x = -1.219325  y =  2.081280  z =  2.479431 angstrom
           Maximum rank =  0   Radius =  0.325 angstrom
                   Q00  =   0.062877

H          x = -0.493325  y = -3.183720  z =  1.267431 angstrom
           Maximum rank =  0   Radius =  0.325 angstrom
                   Q00  =   0.101071

H          x = -1.363325  y = -2.572720  z =  2.667431 angstrom
           Maximum rank =  0   Radius =  0.325 angstrom
                   Q00  =   0.097412

H          x = -1.401325  y = -0.264720  z =  3.241431 angstrom
           Maximum rank =  0   Radius =  0.325 angstrom
                   Q00  =   0.055662

H          x =  0.389905  y = -2.825530  z =  2.787978 angstrom
           Maximum rank =  0   Radius =  0.325 angstrom
                   Q00  =   0.106285

Total multipoles referred to origin at
           x =   0.000000,  y =    0.000000,  z =    0.000000 angstrom
                   Q00  =  -0.000000

Finished at 21:24:7 on 27 Apr 2020

  DMA results are available in the Python driver through the
	  variable('DMA DISTRIBUTED MULTIPOLES')
  and
	  variable('DMA TOTAL MULTIPOLES')
  commands.

    Psi4 stopped on: Monday, 27 April 2020 09:24PM
    Psi4 wall time for execution: 0:01:38.46

*** Psi4 exiting successfully. Buy a developer a beer!
