                               Psi4 1.3.2 release

  ==> Input File <==

--------------------------------------------------------------------------
import numpy as np
set {scf_type pk
basis cc-pvdz
d_convergence 10
gdma_switch   0
gdma_limit    0
gdma_origin   [ 0.0,  0.0,  0.0 ]
}
molecule test {
    units Angstrom
    -1 1
    --
    -1 1
    C               -0.321826499206307     1.533030934292227     0.637182709522709
    C               -1.328826499206307     2.456030934292227    -0.042817290477291
    C                1.093173500793693     2.065030934292227     0.642182709522709
    O                1.283173500793694     3.266030934292227     0.345182709522709
    O                2.013173500793693     1.270030934292227     0.943182709522709
    H               -0.655826499206307     1.265030934292227     1.643182709522709
    H               -0.222826499206307     0.665030934292227     0.037182709522709
    H               -0.833826499206307     2.991030934292227    -0.854817290477291
    H               -1.729826499206307     3.181030934292227     0.666182709522709
    H               -2.135556499206307     1.864380934292227    -0.500127290477291
    C               -1.537826499206307    -1.725969065707773    -0.255817290477291
    C               -1.704826499206306    -2.716969065707773     0.890182709522709
    C               -0.204826499206307    -1.928969065707773    -0.901817290477291
    O                0.342173500793693    -0.983969065707773    -1.452817290477291
    N                0.266173500793693    -3.165969065707773    -0.809817290477291
    H               -2.297826499206306    -1.795969065707773    -1.032817290477291
    H               -1.498826499206307    -0.772969065707773     0.178182709522709
    H               -1.754826499206307    -2.069969065707773     1.768182709522709
    H               -0.892826499206307    -3.391969065707773     1.151182709522709
    H                1.171173500793693    -3.359969065707773    -1.217817290477291
    H               -0.254826499206307    -3.901969065707773    -0.365817290477291
    H               -2.652086499206307    -3.274736065707772     0.850292709522709

}
e, wfn = energy('scf', return_wfn=True)
gdma(wfn)
dmavals = variable('DMA DISTRIBUTED MULTIPOLES')
charges = np.array(dmavals)
print(charges)
np.save('SSI-003GLU-006GLN-2-dimer.npy', np.array(charges))--------------------------------------------------------------------------

*** tstart() called on ds3
*** at Mon Apr 27 07:19:41 2020

   => Loading Basis Set <=

    Name: CC-PVDZ
    Role: ORBITAL
    Keyword: BASIS
    atoms 1-3, 11-13  entry C          line   138 file /theoryfs2/ds/metcalf/miniconda2/envs/tf2gpu/share/psi4/basis/cc-pvdz.gbs
    atoms 4-5, 14     entry O          line   198 file /theoryfs2/ds/metcalf/miniconda2/envs/tf2gpu/share/psi4/basis/cc-pvdz.gbs
    atoms 6-10, 16-22 entry H          line    22 file /theoryfs2/ds/metcalf/miniconda2/envs/tf2gpu/share/psi4/basis/cc-pvdz.gbs
    atoms 15          entry N          line   168 file /theoryfs2/ds/metcalf/miniconda2/envs/tf2gpu/share/psi4/basis/cc-pvdz.gbs

         ---------------------------------------------------------
                                   SCF
               by Justin Turney, Rob Parrish, Andy Simmonett
                          and Daniel G. A. Smith
                              RHF Reference
                        1 Threads,    500 MiB Core
         ---------------------------------------------------------

  ==> Geometry <==

    Molecular point group: c1
    Full point group: C1

    Geometry (in Angstrom), charge = -1, multiplicity = 1:

       Center              X                  Y                   Z               Mass
    ------------   -----------------  -----------------  -----------------  -----------------
         C           -0.321826499206     1.533030934292     0.637182709523    12.000000000000
         C           -1.328826499206     2.456030934292    -0.042817290477    12.000000000000
         C            1.093173500794     2.065030934292     0.642182709523    12.000000000000
         O            1.283173500794     3.266030934292     0.345182709523    15.994914619570
         O            2.013173500794     1.270030934292     0.943182709523    15.994914619570
         H           -0.655826499206     1.265030934292     1.643182709523     1.007825032230
         H           -0.222826499206     0.665030934292     0.037182709523     1.007825032230
         H           -0.833826499206     2.991030934292    -0.854817290477     1.007825032230
         H           -1.729826499206     3.181030934292     0.666182709523     1.007825032230
         H           -2.135556499206     1.864380934292    -0.500127290477     1.007825032230
         C           -1.537826499206    -1.725969065708    -0.255817290477    12.000000000000
         C           -1.704826499206    -2.716969065708     0.890182709523    12.000000000000
         C           -0.204826499206    -1.928969065708    -0.901817290477    12.000000000000
         O            0.342173500794    -0.983969065708    -1.452817290477    15.994914619570
         N            0.266173500794    -3.165969065708    -0.809817290477    14.003074004430
         H           -2.297826499206    -1.795969065708    -1.032817290477     1.007825032230
         H           -1.498826499206    -0.772969065708     0.178182709523     1.007825032230
         H           -1.754826499206    -2.069969065708     1.768182709523     1.007825032230
         H           -0.892826499206    -3.391969065708     1.151182709523     1.007825032230
         H            1.171173500794    -3.359969065708    -1.217817290477     1.007825032230
         H           -0.254826499206    -3.901969065708    -0.365817290477     1.007825032230
         H           -2.652086499206    -3.274736065708     0.850292709523     1.007825032230

  Running in c1 symmetry.

  Rotational constants: A =      0.06584  B =      0.01868  C =      0.01685 [cm^-1]
  Rotational constants: A =   1973.92892  B =    559.97980  C =    505.09435 [MHz]
  Nuclear repulsion =  527.687478703885517

  Charge       = -1
  Multiplicity = 1
  Electrons    = 80
  Nalpha       = 40
  Nbeta        = 40

  ==> Algorithm <==

  SCF Algorithm Type is PK.
  DIIS enabled.
  MOM disabled.
  Fractional occupation disabled.
  Guess Type is SAD.
  Energy threshold   = 1.00e-06
  Density threshold  = 1.00e-10
  Integral threshold = 0.00e+00

  ==> Primary Basis <==

  Basis Set: CC-PVDZ
    Blend: CC-PVDZ
    Number of shells: 96
    Number of basis function: 200
    Number of Cartesian functions: 210
    Spherical Harmonics?: true
    Max angular momentum: 2

  ==> Pre-Iterations <==

   -------------------------------------------------------
    Irrep   Nso     Nmo     Nalpha   Nbeta   Ndocc  Nsocc
   -------------------------------------------------------
     A        200     200       0       0       0       0
   -------------------------------------------------------
    Total     200     200      40      40      40       0
   -------------------------------------------------------

  ==> Integral Setup <==

  Using integral reordering PK algorithm.
  Sizing the integral batches needed.
  Building batch lookup table.
   Calculation information:
      Number of atoms:                  22
      Number of AO shells:              96
      Number of primitives:            280
      Number of atomic orbitals:       210
      Number of basis functions:       200

      Integral cutoff                 1.00e-12
      Number of threads:                 1

	Batch   1 pq = [       0,    9405] index = [             0,44231715] size =     44231715
	Batch   2 pq = [    9405,   13301] index = [      44231715,88464951] size =     44233236
	Batch   3 pq = [   13301,   16290] index = [      88464951,132690195] size =     44225244
	Batch   4 pq = [   16290,   18810] index = [     132690195,176917455] size =     44227260
	Batch   5 pq = [   18810,   20100] index = [     176917455,202015050] size =     25097595
  Task number: 19
  Buffer size: 11059200
  Buffer per thread: 2
  We computed 9141774 shell quartets total.
  Whereas there are 10841496 unique shell quartets.

  ==> DiskJK: Disk-Based J/K Matrices <==

    J tasked:                  Yes
    K tasked:                  Yes
    wK tasked:                  No
    Memory [MiB]:              375
    Schwarz Cutoff:          1E-12

    OpenMP threads:              1

  Minimum eigenvalue in the overlap matrix is 2.8479235828E-03.
  Using Symmetric Orthogonalization.

  SCF Guess: Superposition of Atomic Densities via on-the-fly atomic UHF.

  ==> Iterations <==

                        Total Energy        Delta E     RMS |[F,P]|

   @RHF iter SAD:  -511.75550090187676   -5.11756e+02   0.00000e+00
   @RHF iter   1:  -512.87705974196683   -1.12156e+00   4.39436e-03 DIIS
   @RHF iter   2:  -513.17026088289697   -2.93201e-01   2.51139e-03 DIIS
   @RHF iter   3:  -513.26121041588965   -9.09495e-02   4.23665e-04 DIIS
   @RHF iter   4:  -513.26577645233169   -4.56604e-03   1.81851e-04 DIIS
   @RHF iter   5:  -513.26661743152260   -8.40979e-04   3.64694e-05 DIIS
   @RHF iter   6:  -513.26666765706580   -5.02255e-05   1.96843e-05 DIIS
   @RHF iter   7:  -513.26667886375526   -1.12067e-05   5.85583e-06 DIIS
   @RHF iter   8:  -513.26668097271045   -2.10896e-06   2.35907e-06 DIIS
   @RHF iter   9:  -513.26668128332221   -3.10612e-07   7.90260e-07 DIIS
   @RHF iter  10:  -513.26668131649546   -3.31733e-08   2.01058e-07 DIIS
   @RHF iter  11:  -513.26668131825568   -1.76021e-09   5.53926e-08 DIIS
   @RHF iter  12:  -513.26668131837152   -1.15847e-10   2.06928e-08 DIIS
   @RHF iter  13:  -513.26668131838812   -1.65983e-11   6.92886e-09 DIIS
   @RHF iter  14:  -513.26668131838710    1.02318e-12   2.38253e-09 DIIS
   @RHF iter  15:  -513.26668131838801   -9.09495e-13   7.32253e-10 DIIS
   @RHF iter  16:  -513.26668131838858   -5.68434e-13   2.78740e-10 DIIS
   @RHF iter  17:  -513.26668131838801    5.68434e-13   1.29026e-10 DIIS
   @RHF iter  18:  -513.26668131838926   -1.25056e-12   5.19098e-11 DIIS
  Energy and wave function converged.

  ==> Post-Iterations <==

    Orbital Energies [Eh]
    ---------------------

    Doubly Occupied:

       1A    -20.402012     2A    -20.243899     3A    -20.238065
       4A    -15.493345     5A    -11.240556     6A    -11.145919
       7A    -11.133925     8A    -11.095706     9A    -11.055478
      10A    -11.029215    11A     -1.267721    12A     -1.130920
      13A     -1.128829    14A     -1.018302    15A     -0.965502
      16A     -0.857434    17A     -0.808083    18A     -0.700006
      19A     -0.690032    20A     -0.650050    21A     -0.561257
      22A     -0.539085    23A     -0.490564    24A     -0.484712
      25A     -0.463546    26A     -0.456744    27A     -0.446152
      28A     -0.431450    29A     -0.414560    30A     -0.395911
      31A     -0.373810    32A     -0.349104    33A     -0.337839
      34A     -0.312285    35A     -0.305039    36A     -0.298222
      37A     -0.278581    38A     -0.163994    39A     -0.154220
      40A     -0.143166

    Virtual:

      41A      0.253059    42A      0.279126    43A      0.303001
      44A      0.308239    45A      0.332927    46A      0.340965
      47A      0.354680    48A      0.367805    49A      0.389499
      50A      0.421779    51A      0.437290    52A      0.453599
      53A      0.463766    54A      0.488368    55A      0.513314
      56A      0.534895    57A      0.572635    58A      0.609545
      59A      0.649398    60A      0.678011    61A      0.713991
      62A      0.726037    63A      0.745195    64A      0.756620
      65A      0.772352    66A      0.774304    67A      0.792489
      68A      0.828402    69A      0.834294    70A      0.845909
      71A      0.877646    72A      0.903144    73A      0.916588
      74A      0.935179    75A      0.951057    76A      0.963723
      77A      0.970334    78A      0.987207    79A      0.990047
      80A      1.005968    81A      1.014046    82A      1.026352
      83A      1.035836    84A      1.045538    85A      1.058851
      86A      1.063030    87A      1.072522    88A      1.087115
      89A      1.092210    90A      1.096546    91A      1.122309
      92A      1.130211    93A      1.153702    94A      1.170695
      95A      1.197262    96A      1.225890    97A      1.258695
      98A      1.301859    99A      1.306515   100A      1.346865
     101A      1.403187   102A      1.406071   103A      1.416241
     104A      1.474879   105A      1.478336   106A      1.507939
     107A      1.515826   108A      1.527231   109A      1.550912
     110A      1.594374   111A      1.610996   112A      1.633974
     113A      1.644178   114A      1.662532   115A      1.681051
     116A      1.699764   117A      1.712978   118A      1.745198
     119A      1.751716   120A      1.786836   121A      1.824077
     122A      1.846316   123A      1.858933   124A      1.866366
     125A      1.892506   126A      1.915760   127A      1.934364
     128A      1.959956   129A      1.969343   130A      1.978127
     131A      2.022467   132A      2.031612   133A      2.037311
     134A      2.057878   135A      2.068288   136A      2.074177
     137A      2.101273   138A      2.107144   139A      2.135325
     140A      2.140544   141A      2.145574   142A      2.168974
     143A      2.170477   144A      2.178502   145A      2.204209
     146A      2.242587   147A      2.270939   148A      2.293707
     149A      2.311329   150A      2.333522   151A      2.365061
     152A      2.385962   153A      2.398207   154A      2.430111
     155A      2.444178   156A      2.454318   157A      2.486979
     158A      2.493573   159A      2.495483   160A      2.530847
     161A      2.559860   162A      2.645195   163A      2.650742
     164A      2.656971   165A      2.661502   166A      2.702543
     167A      2.733047   168A      2.776897   169A      2.794664
     170A      2.812117   171A      2.824625   172A      2.844424
     173A      2.875531   174A      2.886479   175A      2.937035
     176A      2.963522   177A      3.001507   178A      3.037825
     179A      3.045539   180A      3.092503   181A      3.113211
     182A      3.151043   183A      3.191475   184A      3.212737
     185A      3.254060   186A      3.274438   187A      3.304812
     188A      3.319978   189A      3.382634   190A      3.384368
     191A      3.643152   192A      3.649553   193A      3.689080
     194A      3.808351   195A      3.851449   196A      3.969938
     197A      4.028350   198A      4.067448   199A      4.097919
     200A      4.224781

    Final Occupation by Irrep:
              A
    DOCC [    40 ]

  @RHF Final Energy:  -513.26668131838926

   => Energetics <=

    Nuclear Repulsion Energy =            527.6874787038855175
    One-Electron Energy =               -1762.5178364143305316
    Two-Electron Energy =                 721.5636763920557541
    Total Energy =                       -513.2666813183892600

Computation Completed

Properties will be evaluated at   0.000000,   0.000000,   0.000000 [a0]

Properties computed using the SCF density matrix

  Nuclear Dipole Moment: [e a0]
     X:   -12.8809      Y:    -8.0370      Z:     2.1793

  Electronic Dipole Moment: [e a0]
     X:     9.5025      Y:     2.4271      Z:    -2.7321

  Dipole Moment: [e a0]
     X:    -3.3784      Y:    -5.6099      Z:    -0.5528     Total:     6.5719

  Dipole Moment: [D]
     X:    -8.5870      Y:   -14.2589      Z:    -1.4052     Total:    16.7041

*** tstop() called on ds3 at Mon Apr 27 07:21:23 2020
Module time:
	user time   =      71.53 seconds =       1.19 minutes
	system time =      34.26 seconds =       0.57 minutes
	total time  =        102 seconds =       1.70 minutes
Total time:
	user time   =      71.53 seconds =       1.19 minutes
	system time =      34.26 seconds =       0.57 minutes
	total time  =        102 seconds =       1.70 minutes
                                     G D M A

                                 by Anthony Stone

                           version 2.2.06, 22 June 2011

               Distributed Multipoles from Gaussian wavefunctions

Starting at 7:21:23 on 27 Apr 2020

Using SCF density matrix from file ./SSI/SSI-003GLU-006GLN-2-dimer.test.27995.fchk

                         Distributed Multipole Analysis

Standard DMA

Positions and radii in angstrom
Multipole moments in atomic units, ea_0^k for rank k

C          x = -0.321826  y =  1.533031  z =  0.637183 angstrom
           Maximum rank =  0   Radius =  0.650 angstrom
                   Q00  =  -0.178792

C          x = -1.328826  y =  2.456031  z = -0.042817 angstrom
           Maximum rank =  0   Radius =  0.650 angstrom
                   Q00  =  -0.211676

C          x =  1.093173  y =  2.065031  z =  0.642183 angstrom
           Maximum rank =  0   Radius =  0.650 angstrom
                   Q00  =   1.083889

O          x =  1.283174  y =  3.266031  z =  0.345183 angstrom
           Maximum rank =  0   Radius =  0.650 angstrom
                   Q00  =  -0.979564

O          x =  2.013174  y =  1.270031  z =  0.943183 angstrom
           Maximum rank =  0   Radius =  0.650 angstrom
                   Q00  =  -0.961563

H          x = -0.655826  y =  1.265031  z =  1.643183 angstrom
           Maximum rank =  0   Radius =  0.325 angstrom
                   Q00  =   0.026567

H          x = -0.222826  y =  0.665031  z =  0.037183 angstrom
           Maximum rank =  0   Radius =  0.325 angstrom
                   Q00  =   0.049314

H          x = -0.833826  y =  2.991031  z = -0.854817 angstrom
           Maximum rank =  0   Radius =  0.325 angstrom
                   Q00  =   0.102383

H          x = -1.729827  y =  3.181031  z =  0.666183 angstrom
           Maximum rank =  0   Radius =  0.325 angstrom
                   Q00  =   0.052193

H          x = -2.135557  y =  1.864381  z = -0.500127 angstrom
           Maximum rank =  0   Radius =  0.325 angstrom
                   Q00  =   0.002531

C          x = -1.537826  y = -1.725969  z = -0.255817 angstrom
           Maximum rank =  0   Radius =  0.650 angstrom
                   Q00  =  -0.076375

C          x = -1.704826  y = -2.716969  z =  0.890183 angstrom
           Maximum rank =  0   Radius =  0.650 angstrom
                   Q00  =  -0.321770

C          x = -0.204826  y = -1.928969  z = -0.901817 angstrom
           Maximum rank =  0   Radius =  0.650 angstrom
                   Q00  =   0.815864

O          x =  0.342174  y = -0.983969  z = -1.452817 angstrom
           Maximum rank =  0   Radius =  0.650 angstrom
                   Q00  =  -0.721238

N          x =  0.266174  y = -3.165969  z = -0.809817 angstrom
           Maximum rank =  0   Radius =  0.650 angstrom
                   Q00  =  -0.542261

H          x = -2.297827  y = -1.795969  z = -1.032817 angstrom
           Maximum rank =  0   Radius =  0.325 angstrom
                   Q00  =   0.085766

H          x = -1.498826  y = -0.772969  z =  0.178183 angstrom
           Maximum rank =  0   Radius =  0.325 angstrom
                   Q00  =   0.139226

H          x = -1.754826  y = -2.069969  z =  1.768183 angstrom
           Maximum rank =  0   Radius =  0.325 angstrom
                   Q00  =   0.102242

H          x = -0.892826  y = -3.391969  z =  1.151183 angstrom
           Maximum rank =  0   Radius =  0.325 angstrom
                   Q00  =   0.063646

H          x =  1.171174  y = -3.359969  z = -1.217817 angstrom
           Maximum rank =  0   Radius =  0.325 angstrom
                   Q00  =   0.201967

H          x = -0.254826  y = -3.901969  z = -0.365817 angstrom
           Maximum rank =  0   Radius =  0.325 angstrom
                   Q00  =   0.200654

H          x = -2.652086  y = -3.274736  z =  0.850293 angstrom
           Maximum rank =  0   Radius =  0.325 angstrom
                   Q00  =   0.066998

Total multipoles referred to origin at
           x =   0.000000,  y =    0.000000,  z =    0.000000 angstrom
                   Q00  =  -1.000000

Finished at 7:21:23 on 27 Apr 2020

  DMA results are available in the Python driver through the
	  variable('DMA DISTRIBUTED MULTIPOLES')
  and
	  variable('DMA TOTAL MULTIPOLES')
  commands.

    Psi4 stopped on: Monday, 27 April 2020 07:21AM
    Psi4 wall time for execution: 0:01:42.39

*** Psi4 exiting successfully. Buy a developer a beer!
