                               Psi4 1.3.2 release

  ==> Input File <==

--------------------------------------------------------------------------
import numpy as np
set {scf_type pk
basis cc-pvdz
d_convergence 10
gdma_switch   0
gdma_limit    0
gdma_origin   [ 0.0,  0.0,  0.0 ]
}
molecule test {
    units Angstrom
    0 1
    --
    0 1
    C               -3.330180560206487    -0.333212023975166     4.382846632120846
    C               -0.010180560206486     0.423787976024834     2.671846632120846
    C               -1.057180560206487    -0.271212023975166     3.266846632120846
    C               -0.091180560206486     1.799787976024834     2.510846632120846
    C               -2.190180560206487     0.404787976024834     3.722846632120846
    C               -1.211180560206486     2.481787976024834     2.960846632120846
    C               -2.257180560206487     1.785787976024834     3.558846632120847
    H                0.855819439793513    -0.078212023975166     2.279846632120846
    H               -0.989180560206486    -1.346212023975166     3.300846632120846
    H                0.717819439793513     2.340787976024834     2.035846632120846
    H               -1.276180560206486     3.554787976024834     2.839846632120846
    H               -4.083180560206486    -0.553212023975166     3.625846632120846
    H               -3.783180560206487     0.320787976024834     5.127846632120846
    H               -3.130180560206487     2.325787976024834     3.897846632120847
    H               -3.026632560206487    -1.270409023975166     4.872255632120846
    C                2.943819439793514    -0.454212023975166    -4.594153367879154
    C                0.716819439793514    -0.079212023975166    -1.609153367879154
    C                1.218819439793514    -0.865212023975166    -2.672153367879154
    C                2.148819439793513    -0.049212023975166    -3.403153367879153
    C                2.174819439793514     1.156787976024834    -2.778153367879153
    C               -0.221180560206486    -0.561212023975166    -0.702153367879154
    C               -0.671180560206487    -1.856212023975166    -0.866153367879154
    C               -0.207180560206486    -2.652212023975166    -1.920153367879154
    C                0.730819439793513    -2.171212023975166    -2.827153367879154
    N                1.333819439793514     1.138787976024835    -1.695153367879154
    H               -0.600180560206486     0.066787976024834     0.089846632120846
    H               -1.406180560206486    -2.257212023975166    -0.179153367879154
    H                1.168819439793514     1.934787976024834    -1.089153367879154
    H               -0.588180560206486    -3.660212023975166    -2.031153367879154
    H                2.781819439793513     2.002787976024835    -3.088153367879154
    H                1.067819439793514    -2.788212023975166    -3.649153367879153
    H                3.101819439793513     0.422787976024834    -5.225153367879154
    H                2.367819439793514    -1.173212023975166    -5.177153367879154
    H                3.921130439793513    -0.895990023975166    -4.349825367879154

}
e, wfn = energy('scf', return_wfn=True)
gdma(wfn)
dmavals = variable('DMA DISTRIBUTED MULTIPOLES')
charges = np.array(dmavals)
print(charges)
np.save('SSI-059PHE-120TRP-1-dimer.npy', np.array(charges))--------------------------------------------------------------------------

*** tstart() called on ds3
*** at Mon Apr 27 21:13:51 2020

   => Loading Basis Set <=

    Name: CC-PVDZ
    Role: ORBITAL
    Keyword: BASIS
    atoms 1-7, 16-24  entry C          line   138 file /theoryfs2/ds/metcalf/miniconda2/envs/tf2gpu/share/psi4/basis/cc-pvdz.gbs
    atoms 8-15, 26-34 entry H          line    22 file /theoryfs2/ds/metcalf/miniconda2/envs/tf2gpu/share/psi4/basis/cc-pvdz.gbs
    atoms 25          entry N          line   168 file /theoryfs2/ds/metcalf/miniconda2/envs/tf2gpu/share/psi4/basis/cc-pvdz.gbs

         ---------------------------------------------------------
                                   SCF
               by Justin Turney, Rob Parrish, Andy Simmonett
                          and Daniel G. A. Smith
                              RHF Reference
                        1 Threads,    500 MiB Core
         ---------------------------------------------------------

  ==> Geometry <==

    Molecular point group: c1
    Full point group: C1

    Geometry (in Angstrom), charge = 0, multiplicity = 1:

       Center              X                  Y                   Z               Mass
    ------------   -----------------  -----------------  -----------------  -----------------
         C           -3.330180560206    -0.333212023975     4.382846632121    12.000000000000
         C           -0.010180560206     0.423787976025     2.671846632121    12.000000000000
         C           -1.057180560206    -0.271212023975     3.266846632121    12.000000000000
         C           -0.091180560206     1.799787976025     2.510846632121    12.000000000000
         C           -2.190180560206     0.404787976025     3.722846632121    12.000000000000
         C           -1.211180560206     2.481787976025     2.960846632121    12.000000000000
         C           -2.257180560206     1.785787976025     3.558846632121    12.000000000000
         H            0.855819439794    -0.078212023975     2.279846632121     1.007825032230
         H           -0.989180560206    -1.346212023975     3.300846632121     1.007825032230
         H            0.717819439794     2.340787976025     2.035846632121     1.007825032230
         H           -1.276180560206     3.554787976025     2.839846632121     1.007825032230
         H           -4.083180560206    -0.553212023975     3.625846632121     1.007825032230
         H           -3.783180560206     0.320787976025     5.127846632121     1.007825032230
         H           -3.130180560206     2.325787976025     3.897846632121     1.007825032230
         H           -3.026632560206    -1.270409023975     4.872255632121     1.007825032230
         C            2.943819439794    -0.454212023975    -4.594153367879    12.000000000000
         C            0.716819439794    -0.079212023975    -1.609153367879    12.000000000000
         C            1.218819439794    -0.865212023975    -2.672153367879    12.000000000000
         C            2.148819439794    -0.049212023975    -3.403153367879    12.000000000000
         C            2.174819439794     1.156787976025    -2.778153367879    12.000000000000
         C           -0.221180560206    -0.561212023975    -0.702153367879    12.000000000000
         C           -0.671180560206    -1.856212023975    -0.866153367879    12.000000000000
         C           -0.207180560206    -2.652212023975    -1.920153367879    12.000000000000
         C            0.730819439794    -2.171212023975    -2.827153367879    12.000000000000
         N            1.333819439794     1.138787976025    -1.695153367879    14.003074004430
         H           -0.600180560206     0.066787976025     0.089846632121     1.007825032230
         H           -1.406180560206    -2.257212023975    -0.179153367879     1.007825032230
         H            1.168819439794     1.934787976025    -1.089153367879     1.007825032230
         H           -0.588180560206    -3.660212023975    -2.031153367879     1.007825032230
         H            2.781819439794     2.002787976025    -3.088153367879     1.007825032230
         H            1.067819439794    -2.788212023975    -3.649153367879     1.007825032230
         H            3.101819439794     0.422787976025    -5.225153367879     1.007825032230
         H            2.367819439794    -1.173212023975    -5.177153367879     1.007825032230
         H            3.921130439794    -0.895990023975    -4.349825367879     1.007825032230

  Running in c1 symmetry.

  Rotational constants: A =      0.03369  B =      0.00644  C =      0.00560 [cm^-1]
  Rotational constants: A =   1010.11798  B =    193.18927  C =    167.98717 [MHz]
  Nuclear repulsion = 1047.570122216642403

  Charge       = 0
  Multiplicity = 1
  Electrons    = 120
  Nalpha       = 60
  Nbeta        = 60

  ==> Algorithm <==

  SCF Algorithm Type is PK.
  DIIS enabled.
  MOM disabled.
  Fractional occupation disabled.
  Guess Type is SAD.
  Energy threshold   = 1.00e-06
  Density threshold  = 1.00e-10
  Integral threshold = 0.00e+00

  ==> Primary Basis <==

  Basis Set: CC-PVDZ
    Blend: CC-PVDZ
    Number of shells: 153
    Number of basis function: 323
    Number of Cartesian functions: 340
    Spherical Harmonics?: true
    Max angular momentum: 2

  ==> Pre-Iterations <==

   -------------------------------------------------------
    Irrep   Nso     Nmo     Nalpha   Nbeta   Ndocc  Nsocc
   -------------------------------------------------------
     A        323     323       0       0       0       0
   -------------------------------------------------------
    Total     323     323      60      60      60       0
   -------------------------------------------------------

  ==> Integral Setup <==

  Using integral reordering PK algorithm.
  Sizing the integral batches needed.
  Building batch lookup table.
   Calculation information:
      Number of atoms:                  34
      Number of AO shells:             153
      Number of primitives:            459
      Number of atomic orbitals:       340
      Number of basis functions:       323

      Integral cutoff                 1.00e-12
      Number of threads:                 1

	Batch   1 pq = [       0,    9405] index = [             0,44231715] size =     44231715
	Batch   2 pq = [    9405,   13301] index = [      44231715,88464951] size =     44233236
	Batch   3 pq = [   13301,   16290] index = [      88464951,132690195] size =     44225244
	Batch   4 pq = [   16290,   18810] index = [     132690195,176917455] size =     44227260
	Batch   5 pq = [   18810,   21030] index = [     176917455,221140965] size =     44223510
	Batch   6 pq = [   21030,   23037] index = [     221140965,265363203] size =     44222238
	Batch   7 pq = [   23037,   24883] index = [     265363203,309594286] size =     44231083
	Batch   8 pq = [   24883,   26601] index = [     309594286,353819901] size =     44225615
	Batch   9 pq = [   26601,   28214] index = [     353819901,398029005] size =     44209104
	Batch  10 pq = [   28214,   29740] index = [     398029005,442248670] size =     44219665
	Batch  11 pq = [   29740,   31191] index = [     442248670,486454836] size =     44206166
	Batch  12 pq = [   31191,   32578] index = [     486454836,530679331] size =     44224495
	Batch  13 pq = [   32578,   33908] index = [     530679331,574893186] size =     44213855
	Batch  14 pq = [   33908,   35188] index = [     574893186,619115266] size =     44222080
	Batch  15 pq = [   35188,   36423] index = [     619115266,663335676] size =     44220410
	Batch  16 pq = [   36423,   37617] index = [     663335676,707538153] size =     44202477
	Batch  17 pq = [   37617,   38775] index = [     707538153,751769700] size =     44231547
	Batch  18 pq = [   38775,   39899] index = [     751769700,795985050] size =     44215350
	Batch  19 pq = [   39899,   40992] index = [     795985050,840192528] size =     44207478
	Batch  20 pq = [   40992,   42057] index = [     840192528,884416653] size =     44224125
	Batch  21 pq = [   42057,   43095] index = [     884416653,928611060] size =     44194407
	Batch  22 pq = [   43095,   44109] index = [     928611060,972823995] size =     44212935
	Batch  23 pq = [   44109,   45100] index = [     972823995,1017027550] size =     44203555
	Batch  24 pq = [   45100,   46070] index = [    1017027550,1061245485] size =     44217935
	Batch  25 pq = [   46070,   47020] index = [    1061245485,1105463710] size =     44218225
	Batch  26 pq = [   47020,   47951] index = [    1105463710,1149673176] size =     44209466
	Batch  27 pq = [   47951,   48864] index = [    1149673176,1193869680] size =     44196504
	Batch  28 pq = [   48864,   49761] index = [    1193869680,1238103441] size =     44233761
	Batch  29 pq = [   49761,   50642] index = [    1238103441,1282331403] size =     44227962
	Batch  30 pq = [   50642,   51508] index = [    1282331403,1326562786] size =     44231383
	Batch  31 pq = [   51508,   52326] index = [    1326562786,1369031301] size =     42468515
  Task number: 124
  Buffer size: 11059200
  Buffer per thread: 2
  We computed 63473139 shell quartets total.
  Whereas there are 69401871 unique shell quartets.

  ==> DiskJK: Disk-Based J/K Matrices <==

    J tasked:                  Yes
    K tasked:                  Yes
    wK tasked:                  No
    Memory [MiB]:              375
    Schwarz Cutoff:          1E-12

    OpenMP threads:              1

  Minimum eigenvalue in the overlap matrix is 2.3267831260E-04.
  Using Symmetric Orthogonalization.

  SCF Guess: Superposition of Atomic Densities via on-the-fly atomic UHF.

  ==> Iterations <==

                        Total Energy        Delta E     RMS |[F,P]|

   @RHF iter SAD:  -669.61706735091821   -6.69617e+02   0.00000e+00
   @RHF iter   1:  -669.94877582088736   -3.31708e-01   2.15790e-03 DIIS
   @RHF iter   2:  -670.24139595838733   -2.92620e-01   9.33693e-04 DIIS
   @RHF iter   3:  -670.28968335208981   -4.82874e-02   2.51406e-04 DIIS
   @RHF iter   4:  -670.29421468886983   -4.53134e-03   1.11712e-04 DIIS
   @RHF iter   5:  -670.29493847361118   -7.23785e-04   1.66781e-05 DIIS
   @RHF iter   6:  -670.29496950571502   -3.10321e-05   7.31675e-06 DIIS
   @RHF iter   7:  -670.29497575241271   -6.24670e-06   2.80730e-06 DIIS
   @RHF iter   8:  -670.29497723684926   -1.48444e-06   1.16760e-06 DIIS
   @RHF iter   9:  -670.29497754044178   -3.03593e-07   5.05902e-07 DIIS
   @RHF iter  10:  -670.29497760374329   -6.33015e-08   2.20276e-07 DIIS
   @RHF iter  11:  -670.29497761926814   -1.55248e-08   9.18454e-08 DIIS
   @RHF iter  12:  -670.29497762173867   -2.47053e-09   3.53209e-08 DIIS
   @RHF iter  13:  -670.29497762198810   -2.49429e-10   1.03986e-08 DIIS
   @RHF iter  14:  -670.29497762200810   -2.00089e-11   3.77960e-09 DIIS
   @RHF iter  15:  -670.29497762200992   -1.81899e-12   1.51305e-09 DIIS
   @RHF iter  16:  -670.29497762200469    5.22959e-12   7.00335e-10 DIIS
   @RHF iter  17:  -670.29497762200208    2.61480e-12   3.40416e-10 DIIS
   @RHF iter  18:  -670.29497762200549   -3.41061e-12   1.42308e-10 DIIS
   @RHF iter  19:  -670.29497762200253    2.95586e-12   5.83821e-11 DIIS
  Energy and wave function converged.

  ==> Post-Iterations <==

    Orbital Energies [Eh]
    ---------------------

    Doubly Occupied:

       1A    -15.598216     2A    -11.260326     3A    -11.258694
       4A    -11.246441     5A    -11.239982     6A    -11.237263
       7A    -11.234355     8A    -11.233963     9A    -11.233443
      10A    -11.232941    11A    -11.227234    12A    -11.224450
      13A    -11.223554    14A    -11.222582    15A    -11.217562
      16A    -11.216478    17A    -11.213279    18A     -1.294041
      19A     -1.158015    20A     -1.125286    21A     -1.071316
      22A     -1.048892    23A     -1.016264    24A     -0.993405
      25A     -0.985468    26A     -0.935689    27A     -0.929101
      28A     -0.836585    29A     -0.829334    30A     -0.799868
      31A     -0.799651    32A     -0.749519    33A     -0.716737
      34A     -0.695938    35A     -0.659616    36A     -0.639324
      37A     -0.636874    38A     -0.632648    39A     -0.599391
      40A     -0.589960    41A     -0.587595    42A     -0.585075
      43A     -0.579420    44A     -0.567306    45A     -0.565242
      46A     -0.550118    47A     -0.539799    48A     -0.536610
      49A     -0.522909    50A     -0.494854    51A     -0.489636
      52A     -0.488141    53A     -0.485090    54A     -0.466752
      55A     -0.458588    56A     -0.368975    57A     -0.336055
      58A     -0.326846    59A     -0.292166    60A     -0.271906

    Virtual:

      61A      0.125949    62A      0.132804    63A      0.136473
      64A      0.161093    65A      0.174020    66A      0.184092
      67A      0.191735    68A      0.206586    69A      0.209479
      70A      0.220337    71A      0.225536    72A      0.227788
      73A      0.248491    74A      0.252140    75A      0.258628
      76A      0.261511    77A      0.276354    78A      0.281652
      79A      0.288856    80A      0.292717    81A      0.304368
      82A      0.309286    83A      0.363004    84A      0.371559
      85A      0.377448    86A      0.390496    87A      0.411722
      88A      0.421315    89A      0.446294    90A      0.449425
      91A      0.463100    92A      0.473958    93A      0.477994
      94A      0.483470    95A      0.488673    96A      0.505830
      97A      0.516675    98A      0.557742    99A      0.593937
     100A      0.600620   101A      0.616775   102A      0.631523
     103A      0.640778   104A      0.643587   105A      0.663383
     106A      0.671590   107A      0.690010   108A      0.692734
     109A      0.700136   110A      0.702373   111A      0.706682
     112A      0.720732   113A      0.727754   114A      0.729981
     115A      0.734105   116A      0.736526   117A      0.743565
     118A      0.745596   119A      0.750316   120A      0.753782
     121A      0.757993   122A      0.764852   123A      0.769956
     124A      0.779708   125A      0.785902   126A      0.791208
     127A      0.796221   128A      0.800506   129A      0.820602
     130A      0.825951   131A      0.842113   132A      0.853601
     133A      0.858140   134A      0.865331   135A      0.871479
     136A      0.878275   137A      0.880875   138A      0.887146
     139A      0.891460   140A      0.895156   141A      0.911516
     142A      0.913872   143A      0.921444   144A      0.923988
     145A      0.927565   146A      0.937661   147A      0.949980
     148A      0.959521   149A      0.966491   150A      0.974503
     151A      0.980030   152A      0.985191   153A      1.019398
     154A      1.031461   155A      1.038100   156A      1.051759
     157A      1.062444   158A      1.083085   159A      1.096149
     160A      1.115560   161A      1.127884   162A      1.136388
     163A      1.145150   164A      1.147789   165A      1.155631
     166A      1.165835   167A      1.173988   168A      1.182200
     169A      1.197265   170A      1.218102   171A      1.218602
     172A      1.232526   173A      1.233638   174A      1.238729
     175A      1.244561   176A      1.251824   177A      1.260046
     178A      1.261647   179A      1.281542   180A      1.286885
     181A      1.298552   182A      1.305681   183A      1.308933
     184A      1.323318   185A      1.332702   186A      1.335828
     187A      1.355896   188A      1.369725   189A      1.388029
     190A      1.410083   191A      1.432047   192A      1.450189
     193A      1.500461   194A      1.519676   195A      1.529361
     196A      1.559156   197A      1.564601   198A      1.584772
     199A      1.595582   200A      1.609045   201A      1.629309
     202A      1.641715   203A      1.648934   204A      1.665689
     205A      1.691928   206A      1.694591   207A      1.705122
     208A      1.725113   209A      1.742099   210A      1.746451
     211A      1.758101   212A      1.776561   213A      1.779316
     214A      1.789603   215A      1.799740   216A      1.810202
     217A      1.815709   218A      1.827454   219A      1.839734
     220A      1.853945   221A      1.877294   222A      1.884696
     223A      1.894662   224A      1.904114   225A      1.905804
     226A      1.906818   227A      1.918140   228A      1.921040
     229A      1.924106   230A      1.929461   231A      1.935038
     232A      1.944219   233A      1.946387   234A      1.952482
     235A      1.955547   236A      1.959783   237A      1.977598
     238A      1.985523   239A      1.991311   240A      2.008700
     241A      2.012734   242A      2.026388   243A      2.035565
     244A      2.047614   245A      2.068393   246A      2.075141
     247A      2.079407   248A      2.091825   249A      2.099724
     250A      2.107196   251A      2.109903   252A      2.120017
     253A      2.131587   254A      2.142423   255A      2.151111
     256A      2.157754   257A      2.164758   258A      2.170129
     259A      2.176750   260A      2.183477   261A      2.185886
     262A      2.190255   263A      2.232571   264A      2.259788
     265A      2.269454   266A      2.276285   267A      2.281599
     268A      2.288092   269A      2.298932   270A      2.312377
     271A      2.317911   272A      2.324129   273A      2.337343
     274A      2.353851   275A      2.366379   276A      2.408221
     277A      2.410060   278A      2.452807   279A      2.462092
     280A      2.468353   281A      2.470665   282A      2.476232
     283A      2.545467   284A      2.550044   285A      2.599518
     286A      2.614301   287A      2.629912   288A      2.640123
     289A      2.672498   290A      2.698463   291A      2.719607
     292A      2.739085   293A      2.749234   294A      2.766048
     295A      2.769649   296A      2.771760   297A      2.780152
     298A      2.793157   299A      2.809490   300A      2.813961
     301A      2.831237   302A      2.848963   303A      2.861055
     304A      2.865488   305A      2.885333   306A      2.924003
     307A      2.980649   308A      2.988027   309A      3.016408
     310A      3.038749   311A      3.043719   312A      3.059315
     313A      3.083784   314A      3.127941   315A      3.163520
     316A      3.198657   317A      3.210623   318A      3.303038
     319A      3.317647   320A      3.391139   321A      3.750442
     322A      3.958963   323A      3.970722

    Final Occupation by Irrep:
              A
    DOCC [    60 ]

  @RHF Final Energy:  -670.29497762200253

   => Energetics <=

    Nuclear Repulsion Energy =           1047.5701222166424031
    One-Electron Energy =               -2986.5766645769103889
    Two-Electron Energy =                1268.7115647382654515
    Total Energy =                       -670.2949776220025342

Computation Completed

Properties will be evaluated at   0.000000,   0.000000,   0.000000 [a0]

Properties computed using the SCF density matrix

  Nuclear Dipole Moment: [e a0]
     X:    -2.7227      Y:    -0.9910      Z:     3.0809

  Electronic Dipole Moment: [e a0]
     X:     2.6887      Y:     1.6915      Z:    -2.7642

  Dipole Moment: [e a0]
     X:    -0.0341      Y:     0.7005      Z:     0.3167     Total:     0.7695

  Dipole Moment: [D]
     X:    -0.0866      Y:     1.7805      Z:     0.8050     Total:     1.9560

*** tstop() called on ds3 at Mon Apr 27 21:35:26 2020
Module time:
	user time   =     613.17 seconds =      10.22 minutes
	system time =     229.18 seconds =       3.82 minutes
	total time  =       1295 seconds =      21.58 minutes
Total time:
	user time   =     613.17 seconds =      10.22 minutes
	system time =     229.18 seconds =       3.82 minutes
	total time  =       1295 seconds =      21.58 minutes
                                     G D M A

                                 by Anthony Stone

                           version 2.2.06, 22 June 2011

               Distributed Multipoles from Gaussian wavefunctions

Starting at 21:35:26 on 27 Apr 2020

Using SCF density matrix from file ./SSI/SSI-059PHE-120TRP-1-dimer.test.28307.fchk

                         Distributed Multipole Analysis

Standard DMA

Positions and radii in angstrom
Multipole moments in atomic units, ea_0^k for rank k

C          x = -3.330181  y = -0.333212  z =  4.382847 angstrom
           Maximum rank =  0   Radius =  0.650 angstrom
                   Q00  =  -0.209082

C          x = -0.010181  y =  0.423788  z =  2.671847 angstrom
           Maximum rank =  0   Radius =  0.650 angstrom
                   Q00  =  -0.074031

C          x = -1.057181  y = -0.271212  z =  3.266847 angstrom
           Maximum rank =  0   Radius =  0.650 angstrom
                   Q00  =  -0.056455

C          x = -0.091181  y =  1.799788  z =  2.510847 angstrom
           Maximum rank =  0   Radius =  0.650 angstrom
                   Q00  =  -0.093072

C          x = -2.190181  y =  0.404788  z =  3.722847 angstrom
           Maximum rank =  0   Radius =  0.650 angstrom
                   Q00  =  -0.087935

C          x = -1.211181  y =  2.481788  z =  2.960847 angstrom
           Maximum rank =  0   Radius =  0.650 angstrom
                   Q00  =  -0.074570

C          x = -2.257181  y =  1.785788  z =  3.558847 angstrom
           Maximum rank =  0   Radius =  0.650 angstrom
                   Q00  =  -0.015353

H          x =  0.855819  y = -0.078212  z =  2.279847 angstrom
           Maximum rank =  0   Radius =  0.325 angstrom
                   Q00  =   0.072348

H          x = -0.989181  y = -1.346212  z =  3.300847 angstrom
           Maximum rank =  0   Radius =  0.325 angstrom
                   Q00  =   0.059832

H          x =  0.717819  y =  2.340788  z =  2.035847 angstrom
           Maximum rank =  0   Radius =  0.325 angstrom
                   Q00  =   0.052012

H          x = -1.276181  y =  3.554788  z =  2.839847 angstrom
           Maximum rank =  0   Radius =  0.325 angstrom
                   Q00  =   0.064220

H          x = -4.083181  y = -0.553212  z =  3.625847 angstrom
           Maximum rank =  0   Radius =  0.325 angstrom
                   Q00  =   0.105820

H          x = -3.783181  y =  0.320788  z =  5.127847 angstrom
           Maximum rank =  0   Radius =  0.325 angstrom
                   Q00  =   0.099805

H          x = -3.130181  y =  2.325788  z =  3.897847 angstrom
           Maximum rank =  0   Radius =  0.325 angstrom
                   Q00  =   0.057150

H          x = -3.026633  y = -1.270409  z =  4.872256 angstrom
           Maximum rank =  0   Radius =  0.325 angstrom
                   Q00  =   0.103054

C          x =  2.943819  y = -0.454212  z = -4.594153 angstrom
           Maximum rank =  0   Radius =  0.650 angstrom
                   Q00  =  -0.214303

C          x =  0.716819  y = -0.079212  z = -1.609153 angstrom
           Maximum rank =  0   Radius =  0.650 angstrom
                   Q00  =   0.260454

C          x =  1.218819  y = -0.865212  z = -2.672153 angstrom
           Maximum rank =  0   Radius =  0.650 angstrom
                   Q00  =  -0.051464

C          x =  2.148819  y = -0.049212  z = -3.403153 angstrom
           Maximum rank =  0   Radius =  0.650 angstrom
                   Q00  =  -0.121681

C          x =  2.174819  y =  1.156788  z = -2.778153 angstrom
           Maximum rank =  0   Radius =  0.650 angstrom
                   Q00  =   0.072840

C          x = -0.221181  y = -0.561212  z = -0.702153 angstrom
           Maximum rank =  0   Radius =  0.650 angstrom
                   Q00  =  -0.121635

C          x = -0.671181  y = -1.856212  z = -0.866153 angstrom
           Maximum rank =  0   Radius =  0.650 angstrom
                   Q00  =  -0.068419

C          x = -0.207181  y = -2.652212  z = -1.920153 angstrom
           Maximum rank =  0   Radius =  0.650 angstrom
                   Q00  =  -0.056600

C          x =  0.730819  y = -2.171212  z = -2.827153 angstrom
           Maximum rank =  0   Radius =  0.650 angstrom
                   Q00  =  -0.100339

N          x =  1.333819  y =  1.138788  z = -1.695153 angstrom
           Maximum rank =  0   Radius =  0.650 angstrom
                   Q00  =  -0.493077

H          x = -0.600181  y =  0.066788  z =  0.089847 angstrom
           Maximum rank =  0   Radius =  0.325 angstrom
                   Q00  =   0.088986

H          x = -1.406181  y = -2.257212  z = -0.179153 angstrom
           Maximum rank =  0   Radius =  0.325 angstrom
                   Q00  =   0.059984

H          x =  1.168819  y =  1.934788  z = -1.089153 angstrom
           Maximum rank =  0   Radius =  0.325 angstrom
                   Q00  =   0.214496

H          x = -0.588181  y = -3.660212  z = -2.031153 angstrom
           Maximum rank =  0   Radius =  0.325 angstrom
                   Q00  =   0.057356

H          x =  2.781819  y =  2.002788  z = -3.088153 angstrom
           Maximum rank =  0   Radius =  0.325 angstrom
                   Q00  =   0.099189

H          x =  1.067819  y = -2.788212  z = -3.649153 angstrom
           Maximum rank =  0   Radius =  0.325 angstrom
                   Q00  =   0.068144

H          x =  3.101819  y =  0.422788  z = -5.225153 angstrom
           Maximum rank =  0   Radius =  0.325 angstrom
                   Q00  =   0.101140

H          x =  2.367819  y = -1.173212  z = -5.177153 angstrom
           Maximum rank =  0   Radius =  0.325 angstrom
                   Q00  =   0.102580

H          x =  3.921130  y = -0.895990  z = -4.349825 angstrom
           Maximum rank =  0   Radius =  0.325 angstrom
                   Q00  =   0.098604

Total multipoles referred to origin at
           x =   0.000000,  y =    0.000000,  z =    0.000000 angstrom
                   Q00  =  -0.000000

Finished at 21:35:26 on 27 Apr 2020

  DMA results are available in the Python driver through the
	  variable('DMA DISTRIBUTED MULTIPOLES')
  and
	  variable('DMA TOTAL MULTIPOLES')
  commands.

    Psi4 stopped on: Monday, 27 April 2020 09:35PM
    Psi4 wall time for execution: 0:21:35.01

*** Psi4 exiting successfully. Buy a developer a beer!
