                               Psi4 1.3.2 release

  ==> Input File <==

--------------------------------------------------------------------------
import numpy as np
set {scf_type pk
basis cc-pvdz
d_convergence 10
gdma_switch   0
gdma_limit    0
gdma_origin   [ 0.0,  0.0,  0.0 ]
}
molecule test {
    units Angstrom
    0 1
    --
    0 1
    C               -3.065589983639829    -0.490236439709313    -3.964368439989325
    C               -1.768589983639829    -0.288236439709313    -3.197368439989326
    O               -1.651589983639829     0.596763560290687    -2.349368439989326
    N               -0.765589983639829    -1.096236439709313    -3.518368439989325
    H               -3.297589983639829    -1.555236439709313    -4.019368439989325
    H               -2.897589983639829    -0.129236439709313    -4.979368439989325
    H                0.099410016360171    -1.016236439709314    -3.005368439989325
    H               -0.895589983639829    -1.825236439709313    -4.204368439989326
    H               -3.912123983639829     0.054323560290687    -3.520707439989326
    C                3.602410016360171     1.139763560290687     1.269631560010675
    C                1.571410016360171     1.104763560290686    -0.304368439989325
    C                0.005410016360171     0.097763560290687     0.947631560010675
    C                2.192410016360171     0.812763560290687     0.872631560010675
    C                1.200410016360171     0.187763560290687     1.703631560010675
    C               -1.152589983639829    -0.477236439709313     1.451631560010675
    C               -1.120589983639829    -0.975236439709313     2.739631560010674
    C                1.211410016360171    -0.332236439709313     3.001631560010674
    C                0.046410016360171    -0.903236439709313     3.511631560010674
    N                0.267410016360171     0.666763560290687    -0.271368439989325
    H               -0.404589983639829     0.780763560290687    -1.030368439989325
    H                2.043410016360171     1.606763560290687    -1.142368439989325
    H               -2.035589983639829    -0.532236439709313     0.840631560010675
    H                4.157410016360171     1.504763560290687     0.403631560010675
    H                4.079410016360171     0.223763560290687     1.620631560010675
    H               -2.008589983639829    -1.430236439709313     3.159631560010675
    H                2.113410016360171    -0.299236439709313     3.595631560010675
    H                0.043410016360171    -1.306236439709313     4.516631560010674
    H                3.632560016360171     1.891383560290687     2.072223560010675

}
e, wfn = energy('scf', return_wfn=True)
gdma(wfn)
dmavals = variable('DMA DISTRIBUTED MULTIPOLES')
charges = np.array(dmavals)
print(charges)
np.save('SSI-084ASN-103TRP-1-dimer.npy', np.array(charges))--------------------------------------------------------------------------

*** tstart() called on ds3
*** at Mon Apr 27 07:49:46 2020

   => Loading Basis Set <=

    Name: CC-PVDZ
    Role: ORBITAL
    Keyword: BASIS
    atoms 1-2, 10-18 entry C          line   138 file /theoryfs2/ds/metcalf/miniconda2/envs/tf2gpu/share/psi4/basis/cc-pvdz.gbs
    atoms 3          entry O          line   198 file /theoryfs2/ds/metcalf/miniconda2/envs/tf2gpu/share/psi4/basis/cc-pvdz.gbs
    atoms 4, 19      entry N          line   168 file /theoryfs2/ds/metcalf/miniconda2/envs/tf2gpu/share/psi4/basis/cc-pvdz.gbs
    atoms 5-9, 20-28 entry H          line    22 file /theoryfs2/ds/metcalf/miniconda2/envs/tf2gpu/share/psi4/basis/cc-pvdz.gbs

         ---------------------------------------------------------
                                   SCF
               by Justin Turney, Rob Parrish, Andy Simmonett
                          and Daniel G. A. Smith
                              RHF Reference
                        1 Threads,    500 MiB Core
         ---------------------------------------------------------

  ==> Geometry <==

    Molecular point group: c1
    Full point group: C1

    Geometry (in Angstrom), charge = 0, multiplicity = 1:

       Center              X                  Y                   Z               Mass
    ------------   -----------------  -----------------  -----------------  -----------------
         C           -3.065589983640    -0.490236439709    -3.964368439989    12.000000000000
         C           -1.768589983640    -0.288236439709    -3.197368439989    12.000000000000
         O           -1.651589983640     0.596763560291    -2.349368439989    15.994914619570
         N           -0.765589983640    -1.096236439709    -3.518368439989    14.003074004430
         H           -3.297589983640    -1.555236439709    -4.019368439989     1.007825032230
         H           -2.897589983640    -0.129236439709    -4.979368439989     1.007825032230
         H            0.099410016360    -1.016236439709    -3.005368439989     1.007825032230
         H           -0.895589983640    -1.825236439709    -4.204368439989     1.007825032230
         H           -3.912123983640     0.054323560291    -3.520707439989     1.007825032230
         C            3.602410016360     1.139763560291     1.269631560011    12.000000000000
         C            1.571410016360     1.104763560291    -0.304368439989    12.000000000000
         C            0.005410016360     0.097763560291     0.947631560011    12.000000000000
         C            2.192410016360     0.812763560291     0.872631560011    12.000000000000
         C            1.200410016360     0.187763560291     1.703631560011    12.000000000000
         C           -1.152589983640    -0.477236439709     1.451631560011    12.000000000000
         C           -1.120589983640    -0.975236439709     2.739631560011    12.000000000000
         C            1.211410016360    -0.332236439709     3.001631560011    12.000000000000
         C            0.046410016360    -0.903236439709     3.511631560011    12.000000000000
         N            0.267410016360     0.666763560291    -0.271368439989    14.003074004430
         H           -0.404589983640     0.780763560291    -1.030368439989     1.007825032230
         H            2.043410016360     1.606763560291    -1.142368439989     1.007825032230
         H           -2.035589983640    -0.532236439709     0.840631560011     1.007825032230
         H            4.157410016360     1.504763560291     0.403631560011     1.007825032230
         H            4.079410016360     0.223763560291     1.620631560011     1.007825032230
         H           -2.008589983640    -1.430236439709     3.159631560011     1.007825032230
         H            2.113410016360    -0.299236439709     3.595631560011     1.007825032230
         H            0.043410016360    -1.306236439709     4.516631560011     1.007825032230
         H            3.632560016360     1.891383560291     2.072223560011     1.007825032230

  Running in c1 symmetry.

  Rotational constants: A =      0.03637  B =      0.01145  C =      0.00920 [cm^-1]
  Rotational constants: A =   1090.27107  B =    343.21285  C =    275.77539 [MHz]
  Nuclear repulsion =  824.327715164615142

  Charge       = 0
  Multiplicity = 1
  Electrons    = 102
  Nalpha       = 51
  Nbeta        = 51

  ==> Algorithm <==

  SCF Algorithm Type is PK.
  DIIS enabled.
  MOM disabled.
  Fractional occupation disabled.
  Guess Type is SAD.
  Energy threshold   = 1.00e-06
  Density threshold  = 1.00e-10
  Integral threshold = 0.00e+00

  ==> Primary Basis <==

  Basis Set: CC-PVDZ
    Blend: CC-PVDZ
    Number of shells: 126
    Number of basis function: 266
    Number of Cartesian functions: 280
    Spherical Harmonics?: true
    Max angular momentum: 2

  ==> Pre-Iterations <==

   -------------------------------------------------------
    Irrep   Nso     Nmo     Nalpha   Nbeta   Ndocc  Nsocc
   -------------------------------------------------------
     A        266     266       0       0       0       0
   -------------------------------------------------------
    Total     266     266      51      51      51       0
   -------------------------------------------------------

  ==> Integral Setup <==

  Using integral reordering PK algorithm.
  Sizing the integral batches needed.
  Building batch lookup table.
   Calculation information:
      Number of atoms:                  28
      Number of AO shells:             126
      Number of primitives:            378
      Number of atomic orbitals:       280
      Number of basis functions:       266

      Integral cutoff                 1.00e-12
      Number of threads:                 1

	Batch   1 pq = [       0,    9405] index = [             0,44231715] size =     44231715
	Batch   2 pq = [    9405,   13301] index = [      44231715,88464951] size =     44233236
	Batch   3 pq = [   13301,   16290] index = [      88464951,132690195] size =     44225244
	Batch   4 pq = [   16290,   18810] index = [     132690195,176917455] size =     44227260
	Batch   5 pq = [   18810,   21030] index = [     176917455,221140965] size =     44223510
	Batch   6 pq = [   21030,   23037] index = [     221140965,265363203] size =     44222238
	Batch   7 pq = [   23037,   24883] index = [     265363203,309594286] size =     44231083
	Batch   8 pq = [   24883,   26601] index = [     309594286,353819901] size =     44225615
	Batch   9 pq = [   26601,   28214] index = [     353819901,398029005] size =     44209104
	Batch  10 pq = [   28214,   29740] index = [     398029005,442248670] size =     44219665
	Batch  11 pq = [   29740,   31191] index = [     442248670,486454836] size =     44206166
	Batch  12 pq = [   31191,   32578] index = [     486454836,530679331] size =     44224495
	Batch  13 pq = [   32578,   33908] index = [     530679331,574893186] size =     44213855
	Batch  14 pq = [   33908,   35188] index = [     574893186,619115266] size =     44222080
	Batch  15 pq = [   35188,   35511] index = [     619115266,630533316] size =     11418050
  Task number: 58
  Buffer size: 11059200
  Buffer per thread: 2
  We computed 27442195 shell quartets total.
  Whereas there are 32012001 unique shell quartets.

  ==> DiskJK: Disk-Based J/K Matrices <==

    J tasked:                  Yes
    K tasked:                  Yes
    wK tasked:                  No
    Memory [MiB]:              375
    Schwarz Cutoff:          1E-12

    OpenMP threads:              1

  Minimum eigenvalue in the overlap matrix is 2.4313756949E-04.
  Using Symmetric Orthogonalization.

  SCF Guess: Superposition of Atomic Densities via on-the-fly atomic UHF.

  ==> Iterations <==

                        Total Energy        Delta E     RMS |[F,P]|

   @RHF iter SAD:  -607.66216140774077   -6.07662e+02   0.00000e+00
   @RHF iter   1:  -608.21411527440296   -5.51954e-01   2.75482e-03 DIIS
   @RHF iter   2:  -608.47951172839237   -2.65396e-01   1.37818e-03 DIIS
   @RHF iter   3:  -608.53639962234661   -5.68879e-02   3.40026e-04 DIIS
   @RHF iter   4:  -608.54133368606335   -4.93406e-03   1.33427e-04 DIIS
   @RHF iter   5:  -608.54207396299864   -7.40277e-04   2.16528e-05 DIIS
   @RHF iter   6:  -608.54211961234512   -4.56493e-05   1.08327e-05 DIIS
   @RHF iter   7:  -608.54212922284739   -9.61050e-06   4.27088e-06 DIIS
   @RHF iter   8:  -608.54213154863692   -2.32579e-06   1.56090e-06 DIIS
   @RHF iter   9:  -608.54213186304150   -3.14405e-07   7.24354e-07 DIIS
   @RHF iter  10:  -608.54213192514851   -6.21070e-08   3.07901e-07 DIIS
   @RHF iter  11:  -608.54213194244926   -1.73007e-08   1.30115e-07 DIIS
   @RHF iter  12:  -608.54213194556348   -3.11422e-09   6.96862e-08 DIIS
   @RHF iter  13:  -608.54213194625049   -6.87010e-10   2.27656e-08 DIIS
   @RHF iter  14:  -608.54213194634235   -9.18590e-11   7.77130e-09 DIIS
   @RHF iter  15:  -608.54213194635145   -9.09495e-12   2.53544e-09 DIIS
   @RHF iter  16:  -608.54213194635190   -4.54747e-13   9.90552e-10 DIIS
   @RHF iter  17:  -608.54213194635508   -3.18323e-12   4.25836e-10 DIIS
   @RHF iter  18:  -608.54213194635383    1.25056e-12   1.83500e-10 DIIS
   @RHF iter  19:  -608.54213194635611   -2.27374e-12   8.62628e-11 DIIS
  Energy and wave function converged.

  ==> Post-Iterations <==

    Orbital Energies [Eh]
    ---------------------

    Doubly Occupied:

       1A    -20.535116     2A    -15.610037     3A    -15.567973
       4A    -11.376525     5A    -11.260820     6A    -11.246564
       7A    -11.243215     8A    -11.216299     9A    -11.216038
      10A    -11.214484    11A    -11.211995    12A    -11.207192
      13A    -11.202513    14A    -11.200304    15A     -1.397865
      16A     -1.270211    17A     -1.240186    18A     -1.112248
      19A     -1.055681    20A     -1.018872    21A     -0.981127
      22A     -0.971126    23A     -0.914994    24A     -0.824026
      25A     -0.820220    26A     -0.786274    27A     -0.748607
      28A     -0.736048    29A     -0.710344    30A     -0.671586
      31A     -0.644428    32A     -0.633630    33A     -0.626980
      34A     -0.598445    35A     -0.584659    36A     -0.577653
      37A     -0.574031    38A     -0.571058    39A     -0.552569
      40A     -0.544082    41A     -0.536018    42A     -0.520989
      43A     -0.514459    44A     -0.480526    45A     -0.456149
      46A     -0.445435    47A     -0.436911    48A     -0.431906
      49A     -0.356134    50A     -0.277622    51A     -0.258844

    Virtual:

      52A      0.141210    53A      0.150297    54A      0.177516
      55A      0.184554    56A      0.194938    57A      0.201310
      58A      0.215554    59A      0.217142    60A      0.234040
      61A      0.244104    62A      0.247309    63A      0.251785
      64A      0.260796    65A      0.270457    66A      0.283701
      67A      0.291811    68A      0.298523    69A      0.341016
      70A      0.360925    71A      0.393576    72A      0.400560
      73A      0.432544    74A      0.437996    75A      0.461065
      76A      0.475605    77A      0.488244    78A      0.502987
      79A      0.521461    80A      0.527039    81A      0.533108
      82A      0.607932    83A      0.615215    84A      0.627238
      85A      0.639467    86A      0.645200    87A      0.655192
      88A      0.669494    89A      0.683096    90A      0.703203
      91A      0.713820    92A      0.718980    93A      0.722810
      94A      0.725196    95A      0.738101    96A      0.746337
      97A      0.754808    98A      0.758155    99A      0.759256
     100A      0.763675   101A      0.778191   102A      0.791380
     103A      0.796085   104A      0.809303   105A      0.821063
     106A      0.824373   107A      0.843291   108A      0.853007
     109A      0.860680   110A      0.869329   111A      0.882151
     112A      0.884610   113A      0.894767   114A      0.902640
     115A      0.907995   116A      0.913609   117A      0.924945
     118A      0.928526   119A      0.959631   120A      0.967116
     121A      0.981751   122A      0.987701   123A      0.993229
     124A      1.002173   125A      1.004897   126A      1.049538
     127A      1.062428   128A      1.077842   129A      1.102822
     130A      1.110779   131A      1.124085   132A      1.137988
     133A      1.147645   134A      1.169468   135A      1.175343
     136A      1.186785   137A      1.224723   138A      1.230015
     139A      1.237683   140A      1.252443   141A      1.255606
     142A      1.275189   143A      1.287236   144A      1.300144
     145A      1.310634   146A      1.312679   147A      1.341204
     148A      1.346226   149A      1.348842   150A      1.366736
     151A      1.373785   152A      1.384142   153A      1.397263
     154A      1.426679   155A      1.441547   156A      1.455661
     157A      1.471981   158A      1.538883   159A      1.567435
     160A      1.587246   161A      1.603266   162A      1.617020
     163A      1.634800   164A      1.642983   165A      1.648009
     166A      1.654777   167A      1.686422   168A      1.696678
     169A      1.706381   170A      1.715987   171A      1.764892
     172A      1.775854   173A      1.780806   174A      1.802739
     175A      1.812877   176A      1.820454   177A      1.836682
     178A      1.842242   179A      1.849602   180A      1.862683
     181A      1.878376   182A      1.897670   183A      1.904613
     184A      1.912517   185A      1.919439   186A      1.923516
     187A      1.939093   188A      1.941768   189A      1.950374
     190A      1.955932   191A      1.961980   192A      1.982926
     193A      1.991688   194A      2.011992   195A      2.020720
     196A      2.034733   197A      2.051985   198A      2.058662
     199A      2.063030   200A      2.097513   201A      2.109605
     202A      2.111399   203A      2.119745   204A      2.121765
     205A      2.129919   206A      2.155451   207A      2.159874
     208A      2.174530   209A      2.183970   210A      2.196927
     211A      2.207867   212A      2.243777   213A      2.249417
     214A      2.264535   215A      2.317255   216A      2.335352
     217A      2.341565   218A      2.352727   219A      2.369651
     220A      2.404388   221A      2.426608   222A      2.433078
     223A      2.442002   224A      2.468978   225A      2.470284
     226A      2.481521   227A      2.543673   228A      2.548190
     229A      2.572519   230A      2.588442   231A      2.621832
     232A      2.652906   233A      2.667176   234A      2.690808
     235A      2.694192   236A      2.706958   237A      2.718879
     238A      2.725474   239A      2.775365   240A      2.779669
     241A      2.785952   242A      2.819074   243A      2.826876
     244A      2.846245   245A      2.865209   246A      2.881342
     247A      2.897469   248A      2.924398   249A      2.962930
     250A      2.988799   251A      3.044873   252A      3.069013
     253A      3.078891   254A      3.097914   255A      3.125818
     256A      3.165364   257A      3.225137   258A      3.270714
     259A      3.326956   260A      3.408478   261A      3.466476
     262A      3.514234   263A      3.777807   264A      3.841411
     265A      3.927965   266A      3.976096

    Final Occupation by Irrep:
              A
    DOCC [    51 ]

  @RHF Final Energy:  -608.54213194635611

   => Energetics <=

    Nuclear Repulsion Energy =            824.3277151646151424
    One-Electron Energy =               -2463.3576512378767802
    Two-Electron Energy =                1030.4878041269053028
    Total Energy =                       -608.5421319463562213

Computation Completed

Properties will be evaluated at   0.000000,   0.000000,   0.000000 [a0]

Properties computed using the SCF density matrix

  Nuclear Dipole Moment: [e a0]
     X:     0.6660      Y:    -1.9009      Z:    -5.3372

  Electronic Dipole Moment: [e a0]
     X:    -1.0249      Y:     0.8123      Z:     2.9292

  Dipole Moment: [e a0]
     X:    -0.3589      Y:    -1.0886      Z:    -2.4080     Total:     2.6669

  Dipole Moment: [D]
     X:    -0.9122      Y:    -2.7670      Z:    -6.1205     Total:     6.7786

*** tstop() called on ds3 at Mon Apr 27 07:59:38 2020
Module time:
	user time   =     237.01 seconds =       3.95 minutes
	system time =     126.59 seconds =       2.11 minutes
	total time  =        592 seconds =       9.87 minutes
Total time:
	user time   =     237.01 seconds =       3.95 minutes
	system time =     126.59 seconds =       2.11 minutes
	total time  =        592 seconds =       9.87 minutes
                                     G D M A

                                 by Anthony Stone

                           version 2.2.06, 22 June 2011

               Distributed Multipoles from Gaussian wavefunctions

Starting at 7:59:38 on 27 Apr 2020

Using SCF density matrix from file ./SSI/SSI-084ASN-103TRP-1-dimer.test.32739.fchk

                         Distributed Multipole Analysis

Standard DMA

Positions and radii in angstrom
Multipole moments in atomic units, ea_0^k for rank k

C          x = -3.065590  y = -0.490236  z = -3.964368 angstrom
           Maximum rank =  0   Radius =  0.650 angstrom
                   Q00  =  -0.253825

C          x = -1.768590  y = -0.288236  z = -3.197368 angstrom
           Maximum rank =  0   Radius =  0.650 angstrom
                   Q00  =   0.814009

O          x = -1.651590  y =  0.596764  z = -2.349368 angstrom
           Maximum rank =  0   Radius =  0.650 angstrom
                   Q00  =  -0.808910

N          x = -0.765590  y = -1.096236  z = -3.518368 angstrom
           Maximum rank =  0   Radius =  0.650 angstrom
                   Q00  =  -0.537704

H          x = -3.297590  y = -1.555236  z = -4.019368 angstrom
           Maximum rank =  0   Radius =  0.325 angstrom
                   Q00  =   0.097461

H          x = -2.897590  y = -0.129236  z = -4.979368 angstrom
           Maximum rank =  0   Radius =  0.325 angstrom
                   Q00  =   0.122302

H          x =  0.099410  y = -1.016236  z = -3.005368 angstrom
           Maximum rank =  0   Radius =  0.325 angstrom
                   Q00  =   0.232203

H          x = -0.895590  y = -1.825236  z = -4.204368 angstrom
           Maximum rank =  0   Radius =  0.325 angstrom
                   Q00  =   0.215294

H          x = -3.912124  y =  0.054324  z = -3.520707 angstrom
           Maximum rank =  0   Radius =  0.325 angstrom
                   Q00  =   0.138172

C          x =  3.602410  y =  1.139764  z =  1.269632 angstrom
           Maximum rank =  0   Radius =  0.650 angstrom
                   Q00  =  -0.198957

C          x =  1.571410  y =  1.104764  z = -0.304368 angstrom
           Maximum rank =  0   Radius =  0.650 angstrom
                   Q00  =   0.088616

C          x =  0.005410  y =  0.097764  z =  0.947632 angstrom
           Maximum rank =  0   Radius =  0.650 angstrom
                   Q00  =   0.315859

C          x =  2.192410  y =  0.812764  z =  0.872632 angstrom
           Maximum rank =  0   Radius =  0.650 angstrom
                   Q00  =  -0.144128

C          x =  1.200410  y =  0.187764  z =  1.703632 angstrom
           Maximum rank =  0   Radius =  0.650 angstrom
                   Q00  =  -0.062013

C          x = -1.152590  y = -0.477236  z =  1.451632 angstrom
           Maximum rank =  0   Radius =  0.650 angstrom
                   Q00  =  -0.118788

C          x = -1.120590  y = -0.975236  z =  2.739632 angstrom
           Maximum rank =  0   Radius =  0.650 angstrom
                   Q00  =  -0.075207

C          x =  1.211410  y = -0.332236  z =  3.001632 angstrom
           Maximum rank =  0   Radius =  0.650 angstrom
                   Q00  =  -0.101109

C          x =  0.046410  y = -0.903236  z =  3.511632 angstrom
           Maximum rank =  0   Radius =  0.650 angstrom
                   Q00  =  -0.088329

N          x =  0.267410  y =  0.666764  z = -0.271368 angstrom
           Maximum rank =  0   Radius =  0.650 angstrom
                   Q00  =  -0.547742

H          x = -0.404590  y =  0.780764  z = -1.030368 angstrom
           Maximum rank =  0   Radius =  0.325 angstrom
                   Q00  =   0.288223

H          x =  2.043410  y =  1.606764  z = -1.142368 angstrom
           Maximum rank =  0   Radius =  0.325 angstrom
                   Q00  =   0.090799

H          x = -2.035590  y = -0.532236  z =  0.840632 angstrom
           Maximum rank =  0   Radius =  0.325 angstrom
                   Q00  =   0.072316

H          x =  4.157410  y =  1.504764  z =  0.403632 angstrom
           Maximum rank =  0   Radius =  0.325 angstrom
                   Q00  =   0.099574

H          x =  4.079410  y =  0.223764  z =  1.620632 angstrom
           Maximum rank =  0   Radius =  0.325 angstrom
                   Q00  =   0.091370

H          x = -2.008590  y = -1.430236  z =  3.159632 angstrom
           Maximum rank =  0   Radius =  0.325 angstrom
                   Q00  =   0.057388

H          x =  2.113410  y = -0.299236  z =  3.595632 angstrom
           Maximum rank =  0   Radius =  0.325 angstrom
                   Q00  =   0.064410

H          x =  0.043410  y = -1.306236  z =  4.516632 angstrom
           Maximum rank =  0   Radius =  0.325 angstrom
                   Q00  =   0.053865

H          x =  3.632560  y =  1.891384  z =  2.072224 angstrom
           Maximum rank =  0   Radius =  0.325 angstrom
                   Q00  =   0.094851

Total multipoles referred to origin at
           x =   0.000000,  y =    0.000000,  z =    0.000000 angstrom
                   Q00  =  -0.000000

Finished at 7:59:38 on 27 Apr 2020

  DMA results are available in the Python driver through the
	  variable('DMA DISTRIBUTED MULTIPOLES')
  and
	  variable('DMA TOTAL MULTIPOLES')
  commands.

    Psi4 stopped on: Monday, 27 April 2020 07:59AM
    Psi4 wall time for execution: 0:09:51.50

*** Psi4 exiting successfully. Buy a developer a beer!
