                               Psi4 1.3.2 release

  ==> Input File <==

--------------------------------------------------------------------------
import numpy as np
set {scf_type pk
basis cc-pvdz
d_convergence 10
gdma_switch   0
gdma_limit    0
gdma_origin   [ 0.0,  0.0,  0.0 ]
}
molecule test {
    units Angstrom
    1 1
    --
    1 1
    C               -1.055146648058974    -1.727470204545172    -0.006178092643733
    C               -1.670146648058974    -2.749470204545172    -0.952178092643733
    C               -1.867146648058974    -0.457470204545172     0.045821907356267
    O               -2.502146648058973    -0.064470204545172    -0.927178092643733
    N               -1.850146648058974     0.205529795454828     1.184821907356267
    H               -0.992146648058973    -2.164470204545172     0.991821907356267
    H               -0.051146648058974    -1.476470204545172    -0.336178092643733
    H               -1.774146648058974    -2.316470204545173    -1.948178092643733
    H               -2.666146648058974    -3.000470204545172    -0.584178092643733
    H               -2.377146648058973     1.064529795454828     1.248821907356267
    H               -1.345146648058974    -0.143470204545172     1.984821907356267
    H               -1.075246648058974    -3.671630204545172    -1.027808092643733
    C                0.893853351941026     1.423529795454828    -1.080178092643733
    C               -0.029146648058974     2.614529795454828    -1.269178092643733
    C                2.013853351941026     0.186529795454828     0.716821907356267
    N                1.249853351941026     1.187529795454828     0.313821907356267
    N                2.534853351941027    -0.669470204545172    -0.135178092643733
    N                2.234853351941026     0.036529795454828     1.998821907356267
    H                0.386853351941026     0.542529795454828    -1.473178092643733
    H                1.800853351941026     1.586529795454828    -1.663178092643733
    H                0.471853351941026     3.499529795454828    -0.881178092643733
    H               -0.954146648058974     2.460529795454828    -0.712178092643733
    H                0.855853351941026     1.804529795454828     1.028821907356267
    H                2.477853351941026    -0.494470204545172    -1.142178092643733
    H                3.073853351941026    -1.469470204545172     0.173821907356267
    H                1.810853351941026     0.687529795454828     2.644821907356267
    H                2.802853351941026    -0.725470204545172     2.335821907356267
    H               -0.259086648058974     2.730229795454827    -2.338638092643733

}
e, wfn = energy('scf', return_wfn=True)
gdma(wfn)
dmavals = variable('DMA DISTRIBUTED MULTIPOLES')
charges = np.array(dmavals)
print(charges)
np.save('SSI-020GLN-059ARG-1-dimer.npy', np.array(charges))--------------------------------------------------------------------------

*** tstart() called on ds3
*** at Mon Apr 27 23:32:51 2020

   => Loading Basis Set <=

    Name: CC-PVDZ
    Role: ORBITAL
    Keyword: BASIS
    atoms 1-3, 13-15  entry C          line   138 file /theoryfs2/ds/metcalf/miniconda2/envs/tf2gpu/share/psi4/basis/cc-pvdz.gbs
    atoms 4           entry O          line   198 file /theoryfs2/ds/metcalf/miniconda2/envs/tf2gpu/share/psi4/basis/cc-pvdz.gbs
    atoms 5, 16-18    entry N          line   168 file /theoryfs2/ds/metcalf/miniconda2/envs/tf2gpu/share/psi4/basis/cc-pvdz.gbs
    atoms 6-12, 19-28 entry H          line    22 file /theoryfs2/ds/metcalf/miniconda2/envs/tf2gpu/share/psi4/basis/cc-pvdz.gbs

         ---------------------------------------------------------
                                   SCF
               by Justin Turney, Rob Parrish, Andy Simmonett
                          and Daniel G. A. Smith
                              RHF Reference
                        1 Threads,    500 MiB Core
         ---------------------------------------------------------

  ==> Geometry <==

    Molecular point group: c1
    Full point group: C1

    Geometry (in Angstrom), charge = 1, multiplicity = 1:

       Center              X                  Y                   Z               Mass
    ------------   -----------------  -----------------  -----------------  -----------------
         C           -1.055146648059    -1.727470204545    -0.006178092644    12.000000000000
         C           -1.670146648059    -2.749470204545    -0.952178092644    12.000000000000
         C           -1.867146648059    -0.457470204545     0.045821907356    12.000000000000
         O           -2.502146648059    -0.064470204545    -0.927178092644    15.994914619570
         N           -1.850146648059     0.205529795455     1.184821907356    14.003074004430
         H           -0.992146648059    -2.164470204545     0.991821907356     1.007825032230
         H           -0.051146648059    -1.476470204545    -0.336178092644     1.007825032230
         H           -1.774146648059    -2.316470204545    -1.948178092644     1.007825032230
         H           -2.666146648059    -3.000470204545    -0.584178092644     1.007825032230
         H           -2.377146648059     1.064529795455     1.248821907356     1.007825032230
         H           -1.345146648059    -0.143470204545     1.984821907356     1.007825032230
         H           -1.075246648059    -3.671630204545    -1.027808092644     1.007825032230
         C            0.893853351941     1.423529795455    -1.080178092644    12.000000000000
         C           -0.029146648059     2.614529795455    -1.269178092644    12.000000000000
         C            2.013853351941     0.186529795455     0.716821907356    12.000000000000
         N            1.249853351941     1.187529795455     0.313821907356    14.003074004430
         N            2.534853351941    -0.669470204545    -0.135178092644    14.003074004430
         N            2.234853351941     0.036529795455     1.998821907356    14.003074004430
         H            0.386853351941     0.542529795455    -1.473178092644     1.007825032230
         H            1.800853351941     1.586529795455    -1.663178092644     1.007825032230
         H            0.471853351941     3.499529795455    -0.881178092644     1.007825032230
         H           -0.954146648059     2.460529795455    -0.712178092644     1.007825032230
         H            0.855853351941     1.804529795455     1.028821907356     1.007825032230
         H            2.477853351941    -0.494470204545    -1.142178092644     1.007825032230
         H            3.073853351941    -1.469470204545     0.173821907356     1.007825032230
         H            1.810853351941     0.687529795455     2.644821907356     1.007825032230
         H            2.802853351941    -0.725470204545     2.335821907356     1.007825032230
         H           -0.259086648059     2.730229795455    -2.338638092644     1.007825032230

  Running in c1 symmetry.

  Rotational constants: A =      0.03797  B =      0.02278  C =      0.01868 [cm^-1]
  Rotational constants: A =   1138.30302  B =    683.03553  C =    559.86902 [MHz]
  Nuclear repulsion =  678.816963165488005

  Charge       = 1
  Multiplicity = 1
  Electrons    = 88
  Nalpha       = 44
  Nbeta        = 44

  ==> Algorithm <==

  SCF Algorithm Type is PK.
  DIIS enabled.
  MOM disabled.
  Fractional occupation disabled.
  Guess Type is SAD.
  Energy threshold   = 1.00e-06
  Density threshold  = 1.00e-10
  Integral threshold = 0.00e+00

  ==> Primary Basis <==

  Basis Set: CC-PVDZ
    Blend: CC-PVDZ
    Number of shells: 117
    Number of basis function: 239
    Number of Cartesian functions: 250
    Spherical Harmonics?: true
    Max angular momentum: 2

  ==> Pre-Iterations <==

   -------------------------------------------------------
    Irrep   Nso     Nmo     Nalpha   Nbeta   Ndocc  Nsocc
   -------------------------------------------------------
     A        239     239       0       0       0       0
   -------------------------------------------------------
    Total     239     239      44      44      44       0
   -------------------------------------------------------

  ==> Integral Setup <==

  Using integral reordering PK algorithm.
  Sizing the integral batches needed.
  Building batch lookup table.
   Calculation information:
      Number of atoms:                  28
      Number of AO shells:             117
      Number of primitives:            327
      Number of atomic orbitals:       250
      Number of basis functions:       239

      Integral cutoff                 1.00e-12
      Number of threads:                 1

	Batch   1 pq = [       0,    9405] index = [             0,44231715] size =     44231715
	Batch   2 pq = [    9405,   13301] index = [      44231715,88464951] size =     44233236
	Batch   3 pq = [   13301,   16290] index = [      88464951,132690195] size =     44225244
	Batch   4 pq = [   16290,   18810] index = [     132690195,176917455] size =     44227260
	Batch   5 pq = [   18810,   21030] index = [     176917455,221140965] size =     44223510
	Batch   6 pq = [   21030,   23037] index = [     221140965,265363203] size =     44222238
	Batch   7 pq = [   23037,   24883] index = [     265363203,309594286] size =     44231083
	Batch   8 pq = [   24883,   26601] index = [     309594286,353819901] size =     44225615
	Batch   9 pq = [   26601,   28214] index = [     353819901,398029005] size =     44209104
	Batch  10 pq = [   28214,   28680] index = [     398029005,411285540] size =     13256535
  Task number: 38
  Buffer size: 11059200
  Buffer per thread: 2
  We computed 25921380 shell quartets total.
  Whereas there are 23829156 unique shell quartets.
     8.78 percent of shell quartets recomputed by reordering.

  ==> DiskJK: Disk-Based J/K Matrices <==

    J tasked:                  Yes
    K tasked:                  Yes
    wK tasked:                  No
    Memory [MiB]:              375
    Schwarz Cutoff:          1E-12

    OpenMP threads:              1

  Minimum eigenvalue in the overlap matrix is 2.9793773359E-03.
  Using Symmetric Orthogonalization.

  SCF Guess: Superposition of Atomic Densities via on-the-fly atomic UHF.

  ==> Iterations <==

                        Total Energy        Delta E     RMS |[F,P]|

   @RHF iter SAD:  -528.86306684342060   -5.28863e+02   0.00000e+00
   @RHF iter   1:  -529.31262807622500   -4.49561e-01   3.24104e-03 DIIS
   @RHF iter   2:  -529.58165073371936   -2.69023e-01   1.66692e-03 DIIS
   @RHF iter   3:  -529.64407208234275   -6.24213e-02   4.17533e-04 DIIS
   @RHF iter   4:  -529.64952231499956   -5.45023e-03   1.62191e-04 DIIS
   @RHF iter   5:  -529.65036245303975   -8.40138e-04   2.54675e-05 DIIS
   @RHF iter   6:  -529.65040949862362   -4.70456e-05   1.05091e-05 DIIS
   @RHF iter   7:  -529.65041559780832   -6.09918e-06   3.89700e-06 DIIS
   @RHF iter   8:  -529.65041678855926   -1.19075e-06   1.38418e-06 DIIS
   @RHF iter   9:  -529.65041695464674   -1.66087e-07   4.13415e-07 DIIS
   @RHF iter  10:  -529.65041696811613   -1.34694e-08   1.43564e-07 DIIS
   @RHF iter  11:  -529.65041696925800   -1.14187e-09   3.78953e-08 DIIS
   @RHF iter  12:  -529.65041696934327   -8.52651e-11   1.08069e-08 DIIS
   @RHF iter  13:  -529.65041696934770   -4.43379e-12   3.48007e-09 DIIS
   @RHF iter  14:  -529.65041696934463    3.06954e-12   9.85026e-10 DIIS
   @RHF iter  15:  -529.65041696934645   -1.81899e-12   3.65757e-10 DIIS
   @RHF iter  16:  -529.65041696934429    2.16005e-12   1.77586e-10 DIIS
   @RHF iter  17:  -529.65041696934577   -1.47793e-12   6.93793e-11 DIIS
  Energy and wave function converged.

  ==> Post-Iterations <==

    Orbital Energies [Eh]
    ---------------------

    Doubly Occupied:

       1A    -20.616599     2A    -15.792267     3A    -15.791699
       4A    -15.782091     5A    -15.704956     6A    -11.588610
       7A    -11.454902     8A    -11.427171     9A    -11.361543
      10A    -11.351490    11A    -11.319642    12A     -1.550996
      13A     -1.483620    14A     -1.404549    15A     -1.395506
      16A     -1.334743    17A     -1.183811    18A     -1.158277
      19A     -1.054327    20A     -1.015287    21A     -0.994742
      22A     -0.973141    23A     -0.936549    24A     -0.901071
      25A     -0.862985    26A     -0.855134    27A     -0.840599
      28A     -0.832515    29A     -0.791289    30A     -0.778383
      31A     -0.765362    32A     -0.742765    33A     -0.695387
      34A     -0.679984    35A     -0.667020    36A     -0.656028
      37A     -0.654951    38A     -0.624888    39A     -0.623515
      40A     -0.607282    41A     -0.595710    42A     -0.578347
      43A     -0.520972    44A     -0.516824

    Virtual:

      45A     -0.017687    46A      0.017425    47A      0.024792
      48A      0.036939    49A      0.054398    50A      0.062292
      51A      0.076711    52A      0.082359    53A      0.102304
      54A      0.120588    55A      0.124250    56A      0.132165
      57A      0.146056    58A      0.153427    59A      0.160315
      60A      0.169982    61A      0.188573    62A      0.202383
      63A      0.213641    64A      0.227574    65A      0.250599
      66A      0.275640    67A      0.299862    68A      0.309787
      69A      0.340987    70A      0.353918    71A      0.376525
      72A      0.421142    73A      0.443673    74A      0.456994
      75A      0.477254    76A      0.484427    77A      0.519035
      78A      0.520557    79A      0.529509    80A      0.546598
      81A      0.550397    82A      0.561549    83A      0.566887
      84A      0.579758    85A      0.599597    86A      0.620239
      87A      0.654557    88A      0.676685    89A      0.690061
      90A      0.708433    91A      0.715838    92A      0.738464
      93A      0.742929    94A      0.748250    95A      0.753901
      96A      0.758886    97A      0.763513    98A      0.771725
      99A      0.788388   100A      0.792375   101A      0.799781
     102A      0.803256   103A      0.810626   104A      0.818736
     105A      0.824403   106A      0.838338   107A      0.853462
     108A      0.860731   109A      0.879397   110A      0.884220
     111A      0.902488   112A      0.917666   113A      0.942303
     114A      0.948501   115A      0.952175   116A      0.976696
     117A      0.999669   118A      1.004452   119A      1.027003
     120A      1.037659   121A      1.067676   122A      1.113521
     123A      1.122445   124A      1.148501   125A      1.177785
     126A      1.206504   127A      1.211386   128A      1.220329
     129A      1.225570   130A      1.252670   131A      1.269789
     132A      1.287225   133A      1.311807   134A      1.323237
     135A      1.351180   136A      1.358770   137A      1.377351
     138A      1.396370   139A      1.446584   140A      1.464752
     141A      1.506412   142A      1.534139   143A      1.543126
     144A      1.553057   145A      1.557622   146A      1.575352
     147A      1.594181   148A      1.596607   149A      1.615131
     150A      1.628760   151A      1.665432   152A      1.677445
     153A      1.706974   154A      1.717869   155A      1.723230
     156A      1.738961   157A      1.741521   158A      1.767475
     159A      1.776662   160A      1.782408   161A      1.789555
     162A      1.797011   163A      1.801944   164A      1.820025
     165A      1.825714   166A      1.832357   167A      1.846379
     168A      1.849207   169A      1.862548   170A      1.878453
     171A      1.888906   172A      1.893454   173A      1.905414
     174A      1.929471   175A      1.940159   176A      1.957867
     177A      1.967548   178A      1.978919   179A      2.000407
     180A      2.010686   181A      2.049299   182A      2.068041
     183A      2.091937   184A      2.104866   185A      2.134460
     186A      2.150276   187A      2.181189   188A      2.211316
     189A      2.225046   190A      2.238398   191A      2.256586
     192A      2.265288   193A      2.283141   194A      2.300210
     195A      2.323399   196A      2.348812   197A      2.359335
     198A      2.365631   199A      2.379300   200A      2.383998
     201A      2.417858   202A      2.448627   203A      2.459967
     204A      2.464586   205A      2.475528   206A      2.487120
     207A      2.511356   208A      2.535723   209A      2.568714
     210A      2.622046   211A      2.645026   212A      2.654237
     213A      2.668819   214A      2.678195   215A      2.696343
     216A      2.724418   217A      2.748994   218A      2.770254
     219A      2.793738   220A      2.810720   221A      2.817579
     222A      2.850369   223A      2.870967   224A      2.872114
     225A      2.898733   226A      2.912618   227A      2.940547
     228A      2.996552   229A      3.045401   230A      3.063975
     231A      3.113351   232A      3.125908   233A      3.190640
     234A      3.412324   235A      3.425458   236A      3.590255
     237A      3.662079   238A      3.773783   239A      3.808872

    Final Occupation by Irrep:
              A
    DOCC [    44 ]

  @RHF Final Energy:  -529.65041696934577

   => Energetics <=

    Nuclear Repulsion Energy =            678.8169631654880050
    One-Electron Energy =               -2053.9997024738768232
    Two-Electron Energy =                 845.5323223390430485
    Total Energy =                       -529.6504169693457698

Computation Completed

Properties will be evaluated at   0.000000,   0.000000,   0.000000 [a0]

Properties computed using the SCF density matrix

  Nuclear Dipole Moment: [e a0]
     X:     2.0256      Y:    -1.0210      Z:    -1.6062

  Electronic Dipole Moment: [e a0]
     X:     1.8750      Y:     1.2667      Z:     3.9055

  Dipole Moment: [e a0]
     X:     3.9007      Y:     0.2457      Z:     2.2993     Total:     4.5346

  Dipole Moment: [D]
     X:     9.9145      Y:     0.6245      Z:     5.8443     Total:    11.5258

*** tstop() called on ds3 at Mon Apr 27 23:37:22 2020
Module time:
	user time   =     212.04 seconds =       3.53 minutes
	system time =      69.18 seconds =       1.15 minutes
	total time  =        271 seconds =       4.52 minutes
Total time:
	user time   =     212.04 seconds =       3.53 minutes
	system time =      69.18 seconds =       1.15 minutes
	total time  =        271 seconds =       4.52 minutes
                                     G D M A

                                 by Anthony Stone

                           version 2.2.06, 22 June 2011

               Distributed Multipoles from Gaussian wavefunctions

Starting at 23:37:22 on 27 Apr 2020

Using SCF density matrix from file ./SSI/SSI-020GLN-059ARG-1-dimer.test.3223.fchk

                         Distributed Multipole Analysis

Standard DMA

Positions and radii in angstrom
Multipole moments in atomic units, ea_0^k for rank k

C          x = -1.055147  y = -1.727470  z = -0.006178 angstrom
           Maximum rank =  0   Radius =  0.650 angstrom
                   Q00  =  -0.177224

C          x = -1.670147  y = -2.749470  z = -0.952178 angstrom
           Maximum rank =  0   Radius =  0.650 angstrom
                   Q00  =  -0.196962

C          x = -1.867147  y = -0.457470  z =  0.045822 angstrom
           Maximum rank =  0   Radius =  0.650 angstrom
                   Q00  =   0.845049

O          x = -2.502147  y = -0.064470  z = -0.927178 angstrom
           Maximum rank =  0   Radius =  0.650 angstrom
                   Q00  =  -0.797614

N          x = -1.850147  y =  0.205530  z =  1.184822 angstrom
           Maximum rank =  0   Radius =  0.650 angstrom
                   Q00  =  -0.549050

H          x = -0.992147  y = -2.164470  z =  0.991822 angstrom
           Maximum rank =  0   Radius =  0.325 angstrom
                   Q00  =   0.064086

H          x = -0.051147  y = -1.476470  z = -0.336178 angstrom
           Maximum rank =  0   Radius =  0.325 angstrom
                   Q00  =   0.068443

H          x = -1.774147  y = -2.316470  z = -1.948178 angstrom
           Maximum rank =  0   Radius =  0.325 angstrom
                   Q00  =   0.116901

H          x = -2.666147  y = -3.000470  z = -0.584178 angstrom
           Maximum rank =  0   Radius =  0.325 angstrom
                   Q00  =   0.105627

H          x = -2.377147  y =  1.064530  z =  1.248822 angstrom
           Maximum rank =  0   Radius =  0.325 angstrom
                   Q00  =   0.229373

H          x = -1.345147  y = -0.143470  z =  1.984822 angstrom
           Maximum rank =  0   Radius =  0.325 angstrom
                   Q00  =   0.200201

H          x = -1.075247  y = -3.671630  z = -1.027808 angstrom
           Maximum rank =  0   Radius =  0.325 angstrom
                   Q00  =   0.089138

C          x =  0.893853  y =  1.423530  z = -1.080178 angstrom
           Maximum rank =  0   Radius =  0.650 angstrom
                   Q00  =  -0.043760

C          x = -0.029147  y =  2.614530  z = -1.269178 angstrom
           Maximum rank =  0   Radius =  0.650 angstrom
                   Q00  =  -0.200924

C          x =  2.013853  y =  0.186530  z =  0.716822 angstrom
           Maximum rank =  0   Radius =  0.650 angstrom
                   Q00  =   1.074926

N          x =  1.249853  y =  1.187530  z =  0.313822 angstrom
           Maximum rank =  0   Radius =  0.650 angstrom
                   Q00  =  -0.476130

N          x =  2.534853  y = -0.669470  z = -0.135178 angstrom
           Maximum rank =  0   Radius =  0.650 angstrom
                   Q00  =  -0.586154

N          x =  2.234853  y =  0.036530  z =  1.998822 angstrom
           Maximum rank =  0   Radius =  0.650 angstrom
                   Q00  =  -0.599520

H          x =  0.386853  y =  0.542530  z = -1.473178 angstrom
           Maximum rank =  0   Radius =  0.325 angstrom
                   Q00  =   0.090513

H          x =  1.800853  y =  1.586530  z = -1.663178 angstrom
           Maximum rank =  0   Radius =  0.325 angstrom
                   Q00  =   0.086247

H          x =  0.471853  y =  3.499530  z = -0.881178 angstrom
           Maximum rank =  0   Radius =  0.325 angstrom
                   Q00  =   0.087871

H          x = -0.954147  y =  2.460530  z = -0.712178 angstrom
           Maximum rank =  0   Radius =  0.325 angstrom
                   Q00  =   0.110797

H          x =  0.855853  y =  1.804530  z =  1.028822 angstrom
           Maximum rank =  0   Radius =  0.325 angstrom
                   Q00  =   0.231506

H          x =  2.477853  y = -0.494470  z = -1.142178 angstrom
           Maximum rank =  0   Radius =  0.325 angstrom
                   Q00  =   0.281462

H          x =  3.073853  y = -1.469470  z =  0.173822 angstrom
           Maximum rank =  0   Radius =  0.325 angstrom
                   Q00  =   0.269009

H          x =  1.810853  y =  0.687530  z =  2.644822 angstrom
           Maximum rank =  0   Radius =  0.325 angstrom
                   Q00  =   0.261360

H          x =  2.802853  y = -0.725470  z =  2.335822 angstrom
           Maximum rank =  0   Radius =  0.325 angstrom
                   Q00  =   0.267604

H          x = -0.259087  y =  2.730230  z = -2.338638 angstrom
           Maximum rank =  0   Radius =  0.325 angstrom
                   Q00  =   0.147224

Total multipoles referred to origin at
           x =   0.000000,  y =    0.000000,  z =    0.000000 angstrom
                   Q00  =   1.000000

Finished at 23:37:22 on 27 Apr 2020

  DMA results are available in the Python driver through the
	  variable('DMA DISTRIBUTED MULTIPOLES')
  and
	  variable('DMA TOTAL MULTIPOLES')
  commands.

    Psi4 stopped on: Monday, 27 April 2020 11:37PM
    Psi4 wall time for execution: 0:04:31.56

*** Psi4 exiting successfully. Buy a developer a beer!
