                               Psi4 1.3.2 release

  ==> Input File <==

--------------------------------------------------------------------------
import numpy as np
set {scf_type pk
basis cc-pvdz
d_convergence 10
gdma_switch   0
gdma_limit    0
gdma_origin   [ 0.0,  0.0,  0.0 ]
}
molecule test {
    units Angstrom
    0 1
    --
    0 1
    C                1.700591018491319     1.332298246122940     0.342548623182670
    C                1.708591018491319     3.984298246122941    -0.573451376817330
    S                0.587591018491319     2.620298246122940    -0.270451376817330
    H                2.317591018491319     1.718298246122940     1.152548623182670
    H                1.114591018491319     0.497298246122941     0.721548623182670
    H                2.344591018491319     0.986298246122940    -0.465451376817330
    H                1.223591018491319     4.689298246122942    -1.245451376817330
    H                2.606591018491319     3.608298246122940    -1.060451376817330
    H                1.982632018491319     4.516428246122941     0.349448623182670
    C               -0.790408981508681    -0.931701753877060    -1.484451376817330
    C               -1.220408981508681    -2.008701753877060    -2.481451376817330
    C               -0.734408981508681    -1.399701753877060    -0.072451376817330
    C               -1.661408981508681    -1.272701753877060     0.914548623182670
    C                0.084591018491319    -2.332701753877060     1.703548623182670
    N                0.355591018491319    -2.067701753877059     0.430548623182670
    N               -1.123408981508681    -1.872701753877060     2.021548623182670
    H                0.187591018491319    -0.542701753877060    -1.769451376817330
    H               -1.498408981508681    -0.108701753877059    -1.521451376817330
    H               -0.405408981508681    -2.727701753877059    -2.590451376817330
    H               -2.630408981508681    -0.797701753877059     0.834548623182670
    H                0.744591018491319    -2.858701753877059     2.383548623182670
    H               -1.563408981508681    -1.968701753877059     2.930548623182670
    H               -1.432005981508681    -1.529581753877060    -3.448751376817330
    H               -2.095131981508681    -2.556671753877060    -2.101201376817330

}
e, wfn = energy('scf', return_wfn=True)
gdma(wfn)
dmavals = variable('DMA DISTRIBUTED MULTIPOLES')
charges = np.array(dmavals)
print(charges)
np.save('SSI-026MET-103HIE-1-dimer.npy', np.array(charges))--------------------------------------------------------------------------

*** tstart() called on ds3
*** at Mon Apr 27 07:26:04 2020

   => Loading Basis Set <=

    Name: CC-PVDZ
    Role: ORBITAL
    Keyword: BASIS
    atoms 1-2, 10-14 entry C          line   138 file /theoryfs2/ds/metcalf/miniconda2/envs/tf2gpu/share/psi4/basis/cc-pvdz.gbs
    atoms 3          entry S          line   598 file /theoryfs2/ds/metcalf/miniconda2/envs/tf2gpu/share/psi4/basis/cc-pvdz.gbs
    atoms 4-9, 17-24 entry H          line    22 file /theoryfs2/ds/metcalf/miniconda2/envs/tf2gpu/share/psi4/basis/cc-pvdz.gbs
    atoms 15-16      entry N          line   168 file /theoryfs2/ds/metcalf/miniconda2/envs/tf2gpu/share/psi4/basis/cc-pvdz.gbs

         ---------------------------------------------------------
                                   SCF
               by Justin Turney, Rob Parrish, Andy Simmonett
                          and Daniel G. A. Smith
                              RHF Reference
                        1 Threads,    500 MiB Core
         ---------------------------------------------------------

  ==> Geometry <==

    Molecular point group: c1
    Full point group: C1

    Geometry (in Angstrom), charge = 0, multiplicity = 1:

       Center              X                  Y                   Z               Mass
    ------------   -----------------  -----------------  -----------------  -----------------
         C            1.700591018491     1.332298246123     0.342548623183    12.000000000000
         C            1.708591018491     3.984298246123    -0.573451376817    12.000000000000
         S            0.587591018491     2.620298246123    -0.270451376817    31.972071174400
         H            2.317591018491     1.718298246123     1.152548623183     1.007825032230
         H            1.114591018491     0.497298246123     0.721548623183     1.007825032230
         H            2.344591018491     0.986298246123    -0.465451376817     1.007825032230
         H            1.223591018491     4.689298246123    -1.245451376817     1.007825032230
         H            2.606591018491     3.608298246123    -1.060451376817     1.007825032230
         H            1.982632018491     4.516428246123     0.349448623183     1.007825032230
         C           -0.790408981509    -0.931701753877    -1.484451376817    12.000000000000
         C           -1.220408981509    -2.008701753877    -2.481451376817    12.000000000000
         C           -0.734408981509    -1.399701753877    -0.072451376817    12.000000000000
         C           -1.661408981509    -1.272701753877     0.914548623183    12.000000000000
         C            0.084591018491    -2.332701753877     1.703548623183    12.000000000000
         N            0.355591018491    -2.067701753877     0.430548623183    14.003074004430
         N           -1.123408981509    -1.872701753877     2.021548623183    14.003074004430
         H            0.187591018491    -0.542701753877    -1.769451376817     1.007825032230
         H           -1.498408981509    -0.108701753877    -1.521451376817     1.007825032230
         H           -0.405408981509    -2.727701753877    -2.590451376817     1.007825032230
         H           -2.630408981509    -0.797701753877     0.834548623183     1.007825032230
         H            0.744591018491    -2.858701753877     2.383548623183     1.007825032230
         H           -1.563408981509    -1.968701753877     2.930548623183     1.007825032230
         H           -1.432005981509    -1.529581753877    -3.448751376817     1.007825032230
         H           -2.095131981509    -2.556671753877    -2.101201376817     1.007825032230

  Running in c1 symmetry.

  Rotational constants: A =      0.05000  B =      0.01671  C =      0.01419 [cm^-1]
  Rotational constants: A =   1499.00705  B =    500.86614  C =    425.35502 [MHz]
  Nuclear repulsion =  591.093759099620570

  Charge       = 0
  Multiplicity = 1
  Electrons    = 86
  Nalpha       = 43
  Nbeta        = 43

  ==> Algorithm <==

  SCF Algorithm Type is PK.
  DIIS enabled.
  MOM disabled.
  Fractional occupation disabled.
  Guess Type is SAD.
  Energy threshold   = 1.00e-06
  Density threshold  = 1.00e-10
  Integral threshold = 0.00e+00

  ==> Primary Basis <==

  Basis Set: CC-PVDZ
    Blend: CC-PVDZ
    Number of shells: 104
    Number of basis function: 214
    Number of Cartesian functions: 224
    Spherical Harmonics?: true
    Max angular momentum: 2

  ==> Pre-Iterations <==

   -------------------------------------------------------
    Irrep   Nso     Nmo     Nalpha   Nbeta   Ndocc  Nsocc
   -------------------------------------------------------
     A        214     214       0       0       0       0
   -------------------------------------------------------
    Total     214     214      43      43      43       0
   -------------------------------------------------------

  ==> Integral Setup <==

  Using integral reordering PK algorithm.
  Sizing the integral batches needed.
  Building batch lookup table.
   Calculation information:
      Number of atoms:                  24
      Number of AO shells:             104
      Number of primitives:            318
      Number of atomic orbitals:       224
      Number of basis functions:       214

      Integral cutoff                 1.00e-12
      Number of threads:                 1

	Batch   1 pq = [       0,    9405] index = [             0,44231715] size =     44231715
	Batch   2 pq = [    9405,   13301] index = [      44231715,88464951] size =     44233236
	Batch   3 pq = [   13301,   16290] index = [      88464951,132690195] size =     44225244
	Batch   4 pq = [   16290,   18810] index = [     132690195,176917455] size =     44227260
	Batch   5 pq = [   18810,   21030] index = [     176917455,221140965] size =     44223510
	Batch   6 pq = [   21030,   23005] index = [     221140965,264626515] size =     43485550
  Task number: 24
  Buffer size: 11059200
  Buffer per thread: 2
  We computed 12717264 shell quartets total.
  Whereas there are 14908530 unique shell quartets.

  ==> DiskJK: Disk-Based J/K Matrices <==

    J tasked:                  Yes
    K tasked:                  Yes
    wK tasked:                  No
    Memory [MiB]:              375
    Schwarz Cutoff:          1E-12

    OpenMP threads:              1

  Minimum eigenvalue in the overlap matrix is 1.1637603377E-03.
  Using Symmetric Orthogonalization.

  SCF Guess: Superposition of Atomic Densities via on-the-fly atomic UHF.

  ==> Iterations <==

                        Total Energy        Delta E     RMS |[F,P]|

   @RHF iter SAD:  -778.80460323749708   -7.78805e+02   0.00000e+00
   @RHF iter   1:  -779.43796337419440   -6.33360e-01   2.72772e-03 DIIS
   @RHF iter   2:  -779.62262246199214   -1.84659e-01   1.36711e-03 DIIS
   @RHF iter   3:  -779.66344422119869   -4.08218e-02   3.96393e-04 DIIS
   @RHF iter   4:  -779.66789102470239   -4.44680e-03   1.46648e-04 DIIS
   @RHF iter   5:  -779.66845874784042   -5.67723e-04   2.31088e-05 DIIS
   @RHF iter   6:  -779.66848083138723   -2.20835e-05   8.70587e-06 DIIS
   @RHF iter   7:  -779.66848366142904   -2.83004e-06   2.90563e-06 DIIS
   @RHF iter   8:  -779.66848416052039   -4.99091e-07   1.23703e-06 DIIS
   @RHF iter   9:  -779.66848427358025   -1.13060e-07   4.31862e-07 DIIS
   @RHF iter  10:  -779.66848428787080   -1.42905e-08   1.47498e-07 DIIS
   @RHF iter  11:  -779.66848428975482   -1.88402e-09   5.66771e-08 DIIS
   @RHF iter  12:  -779.66848428999253   -2.37719e-10   2.29611e-08 DIIS
   @RHF iter  13:  -779.66848429002846   -3.59250e-11   7.20801e-09 DIIS
   @RHF iter  14:  -779.66848429003880   -1.03455e-11   2.60247e-09 DIIS
   @RHF iter  15:  -779.66848429003437    4.43379e-12   9.55763e-10 DIIS
   @RHF iter  16:  -779.66848429003915   -4.77485e-12   4.01362e-10 DIIS
   @RHF iter  17:  -779.66848429003790    1.25056e-12   1.59291e-10 DIIS
   @RHF iter  18:  -779.66848429003505    2.84217e-12   4.54485e-11 DIIS
  Energy and wave function converged.

  ==> Post-Iterations <==

    Orbital Energies [Eh]
    ---------------------

    Doubly Occupied:

       1A    -91.925440     2A    -15.624199     3A    -15.532872
       4A    -11.294969     5A    -11.250571     6A    -11.248611
       7A    -11.240902     8A    -11.236448     9A    -11.215589
      10A    -11.211443    11A     -8.929340    12A     -6.611472
      13A     -6.609842    14A     -6.607649    15A     -1.345722
      16A     -1.161497    17A     -1.052045    18A     -1.049808
      19A     -0.982628    20A     -0.942569    21A     -0.857162
      22A     -0.821970    23A     -0.795059    24A     -0.762321
      25A     -0.733165    26A     -0.622191    27A     -0.609322
      28A     -0.598916    29A     -0.591910    30A     -0.587583
      31A     -0.581226    32A     -0.562955    33A     -0.561664
      34A     -0.553466    35A     -0.507791    36A     -0.490167
      37A     -0.488580    38A     -0.472957    39A     -0.419254
      40A     -0.414734    41A     -0.382164    42A     -0.321830
      43A     -0.308844

    Virtual:

      44A      0.171766    45A      0.182792    46A      0.185542
      47A      0.192604    48A      0.205120    49A      0.220927
      50A      0.226416    51A      0.241369    52A      0.247286
      53A      0.248795    54A      0.256436    55A      0.267875
      56A      0.275814    57A      0.285437    58A      0.291904
      59A      0.299992    60A      0.301626    61A      0.324530
      62A      0.389112    63A      0.393271    64A      0.417071
      65A      0.444523    66A      0.487140    67A      0.496400
      68A      0.537795    69A      0.573237    70A      0.583596
      71A      0.601150    72A      0.608947    73A      0.622676
      74A      0.635359    75A      0.639564    76A      0.661777
      77A      0.664040    78A      0.695630    79A      0.717712
      80A      0.723725    81A      0.739792    82A      0.753545
      83A      0.770385    84A      0.780194    85A      0.790081
      86A      0.805699    87A      0.821866    88A      0.823235
      89A      0.837565    90A      0.858343    91A      0.872664
      92A      0.879041    93A      0.886795    94A      0.890381
      95A      0.894777    96A      0.901264    97A      0.908603
      98A      0.916429    99A      0.924907   100A      0.929825
     101A      0.935785   102A      0.948935   103A      0.953933
     104A      0.957006   105A      0.967709   106A      0.978185
     107A      0.989045   108A      1.033561   109A      1.046874
     110A      1.048664   111A      1.059681   112A      1.090770
     113A      1.112408   114A      1.134472   115A      1.153362
     116A      1.169175   117A      1.233507   118A      1.259134
     119A      1.269638   120A      1.289406   121A      1.306707
     122A      1.314144   123A      1.320817   124A      1.324381
     125A      1.328126   126A      1.365155   127A      1.394336
     128A      1.405279   129A      1.422800   130A      1.443486
     131A      1.459924   132A      1.470775   133A      1.493924
     134A      1.526112   135A      1.554465   136A      1.575355
     137A      1.619952   138A      1.678269   139A      1.687526
     140A      1.699753   141A      1.701067   142A      1.737477
     143A      1.763782   144A      1.778298   145A      1.839370
     146A      1.856590   147A      1.865557   148A      1.884175
     149A      1.888709   150A      1.898377   151A      1.909306
     152A      1.916653   153A      1.929665   154A      1.932723
     155A      1.944166   156A      1.952819   157A      1.963772
     158A      1.982945   159A      1.985453   160A      1.994630
     161A      2.005633   162A      2.014684   163A      2.028961
     164A      2.036070   165A      2.052758   166A      2.054876
     167A      2.082477   168A      2.085951   169A      2.102580
     170A      2.137954   171A      2.158323   172A      2.174486
     173A      2.209857   174A      2.229733   175A      2.245750
     176A      2.272150   177A      2.299342   178A      2.319190
     179A      2.354031   180A      2.390207   181A      2.418328
     182A      2.436272   183A      2.441274   184A      2.451553
     185A      2.473419   186A      2.479771   187A      2.491265
     188A      2.513409   189A      2.571883   190A      2.608946
     191A      2.618611   192A      2.685850   193A      2.740374
     194A      2.741751   195A      2.757144   196A      2.772211
     197A      2.779234   198A      2.782719   199A      2.793883
     200A      2.808356   201A      2.831878   202A      2.844275
     203A      2.860229   204A      2.894799   205A      2.904229
     206A      2.917784   207A      2.947175   208A      2.967302
     209A      3.022758   210A      3.084933   211A      3.177044
     212A      3.278642   213A      3.469313   214A      3.797927

    Final Occupation by Irrep:
              A
    DOCC [    43 ]

  @RHF Final Energy:  -779.66848429003505

   => Energetics <=

    Nuclear Repulsion Energy =            591.0937590996205699
    One-Electron Energy =               -2241.2867903183905582
    Two-Electron Energy =                 870.5245469287350488
    Total Energy =                       -779.6684842900350532

Computation Completed

Properties will be evaluated at   0.000000,   0.000000,   0.000000 [a0]

Properties computed using the SCF density matrix

  Nuclear Dipole Moment: [e a0]
     X:     2.7336      Y:     2.8231      Z:    -5.4801

  Electronic Dipole Moment: [e a0]
     X:    -3.0244      Y:    -2.8361      Z:     6.6475

  Dipole Moment: [e a0]
     X:    -0.2909      Y:    -0.0130      Z:     1.1674     Total:     1.2032

  Dipole Moment: [D]
     X:    -0.7393      Y:    -0.0329      Z:     2.9672     Total:     3.0581

*** tstop() called on ds3 at Mon Apr 27 07:28:56 2020
Module time:
	user time   =     111.52 seconds =       1.86 minutes
	system time =      45.41 seconds =       0.76 minutes
	total time  =        172 seconds =       2.87 minutes
Total time:
	user time   =     111.52 seconds =       1.86 minutes
	system time =      45.41 seconds =       0.76 minutes
	total time  =        172 seconds =       2.87 minutes
                                     G D M A

                                 by Anthony Stone

                           version 2.2.06, 22 June 2011

               Distributed Multipoles from Gaussian wavefunctions

Starting at 7:28:56 on 27 Apr 2020

Using SCF density matrix from file ./SSI/SSI-026MET-103HIE-1-dimer.test.9773.fchk

                         Distributed Multipole Analysis

Standard DMA

Positions and radii in angstrom
Multipole moments in atomic units, ea_0^k for rank k

C          x =  1.700591  y =  1.332298  z =  0.342549 angstrom
           Maximum rank =  0   Radius =  0.650 angstrom
                   Q00  =  -0.354438

C          x =  1.708591  y =  3.984298  z = -0.573451 angstrom
           Maximum rank =  0   Radius =  0.650 angstrom
                   Q00  =  -0.351241

S          x =  0.587591  y =  2.620298  z = -0.270451 angstrom
           Maximum rank =  0   Radius =  0.650 angstrom
                   Q00  =   0.098270

H          x =  2.317591  y =  1.718298  z =  1.152549 angstrom
           Maximum rank =  0   Radius =  0.325 angstrom
                   Q00  =   0.083667

H          x =  1.114591  y =  0.497298  z =  0.721549 angstrom
           Maximum rank =  0   Radius =  0.325 angstrom
                   Q00  =   0.140663

H          x =  2.344591  y =  0.986298  z = -0.465451 angstrom
           Maximum rank =  0   Radius =  0.325 angstrom
                   Q00  =   0.086785

H          x =  1.223591  y =  4.689298  z = -1.245451 angstrom
           Maximum rank =  0   Radius =  0.325 angstrom
                   Q00  =   0.115918

H          x =  2.606591  y =  3.608298  z = -1.060451 angstrom
           Maximum rank =  0   Radius =  0.325 angstrom
                   Q00  =   0.087571

H          x =  1.982632  y =  4.516428  z =  0.349449 angstrom
           Maximum rank =  0   Radius =  0.325 angstrom
                   Q00  =   0.085726

C          x = -0.790409  y = -0.931702  z = -1.484451 angstrom
           Maximum rank =  0   Radius =  0.650 angstrom
                   Q00  =  -0.017083

C          x = -1.220409  y = -2.008702  z = -2.481451 angstrom
           Maximum rank =  0   Radius =  0.650 angstrom
                   Q00  =  -0.242073

C          x = -0.734409  y = -1.399702  z = -0.072451 angstrom
           Maximum rank =  0   Radius =  0.650 angstrom
                   Q00  =   0.201194

C          x = -1.661409  y = -1.272702  z =  0.914549 angstrom
           Maximum rank =  0   Radius =  0.650 angstrom
                   Q00  =   0.000722

C          x =  0.084591  y = -2.332702  z =  1.703549 angstrom
           Maximum rank =  0   Radius =  0.650 angstrom
                   Q00  =   0.452108

N          x =  0.355591  y = -2.067702  z =  0.430549 angstrom
           Maximum rank =  0   Radius =  0.650 angstrom
                   Q00  =  -0.766668

N          x = -1.123409  y = -1.872702  z =  2.021549 angstrom
           Maximum rank =  0   Radius =  0.650 angstrom
                   Q00  =  -0.472436

H          x =  0.187591  y = -0.542702  z = -1.769451 angstrom
           Maximum rank =  0   Radius =  0.325 angstrom
                   Q00  =   0.089677

H          x = -1.498409  y = -0.108702  z = -1.521451 angstrom
           Maximum rank =  0   Radius =  0.325 angstrom
                   Q00  =   0.063225

H          x = -0.405409  y = -2.727702  z = -2.590451 angstrom
           Maximum rank =  0   Radius =  0.325 angstrom
                   Q00  =   0.089217

H          x = -2.630409  y = -0.797702  z =  0.834549 angstrom
           Maximum rank =  0   Radius =  0.325 angstrom
                   Q00  =   0.107637

H          x =  0.744591  y = -2.858702  z =  2.383549 angstrom
           Maximum rank =  0   Radius =  0.325 angstrom
                   Q00  =   0.120191

H          x = -1.563409  y = -1.968702  z =  2.930549 angstrom
           Maximum rank =  0   Radius =  0.325 angstrom
                   Q00  =   0.224218

H          x = -1.432006  y = -1.529582  z = -3.448751 angstrom
           Maximum rank =  0   Radius =  0.325 angstrom
                   Q00  =   0.080188

H          x = -2.095132  y = -2.556672  z = -2.101201 angstrom
           Maximum rank =  0   Radius =  0.325 angstrom
                   Q00  =   0.076961

Total multipoles referred to origin at
           x =   0.000000,  y =    0.000000,  z =    0.000000 angstrom
                   Q00  =  -0.000000

Finished at 7:28:56 on 27 Apr 2020

  DMA results are available in the Python driver through the
	  variable('DMA DISTRIBUTED MULTIPOLES')
  and
	  variable('DMA TOTAL MULTIPOLES')
  commands.

    Psi4 stopped on: Monday, 27 April 2020 07:28AM
    Psi4 wall time for execution: 0:02:52.47

*** Psi4 exiting successfully. Buy a developer a beer!
