                               Psi4 1.3.2 release

  ==> Input File <==

--------------------------------------------------------------------------
import numpy as np
set {scf_type pk
basis cc-pvdz
d_convergence 10
gdma_switch   0
gdma_limit    0
gdma_origin   [ 0.0,  0.0,  0.0 ]
}
molecule test {
    units Angstrom
    0 1
    --
    0 1
    C                0.167116581017679    -2.228275331888100    -0.604541925126921
    C               -1.289883418982321    -2.668275331888100    -0.492541925126921
    H                0.344116581017679    -1.776275331888100    -1.580541925126922
    H                0.378116581017679    -1.558275331888100     0.181458074873079
    H                0.831116581017679    -3.078275331888100    -0.466541925126921
    H               -1.461883418982321    -3.110275331888100     0.490458074873079
    H               -1.521126418982321    -3.418175331888100    -1.263351925126922
    H               -1.927834418982321    -1.783475331888100    -0.634481925126921
    C                0.256116581017679     1.228724668111900     0.034458074873079
    C                1.548116581017679     1.962724668111900    -0.075541925126921
    C               -0.676883418982321     1.783724668111900     1.135458074873078
    H               -0.197883418982321     1.266724668111900    -0.878541925126921
    H                0.506116581017679     0.246724668111900     0.233458074873079
    H                1.350116581017679     3.020724668111900    -0.230541925126921
    H                2.123116581017679     1.566724668111900    -0.913541925126921
    H               -0.062883418982321     1.793724668111900     2.032458074873079
    H               -0.875883418982321     2.810724668111900     0.824458074873079
    H                2.087352581017679     1.802624668111900     0.869758074873079
    H               -1.627125418982321     1.280624668111900     1.367758074873078

}
e, wfn = energy('scf', return_wfn=True)
gdma(wfn)
dmavals = variable('DMA DISTRIBUTED MULTIPOLES')
charges = np.array(dmavals)
print(charges)
np.save('SSI-030THR-121LYS-1-dimer.npy', np.array(charges))--------------------------------------------------------------------------

*** tstart() called on ds3
*** at Sun Apr 26 17:54:53 2020

   => Loading Basis Set <=

    Name: CC-PVDZ
    Role: ORBITAL
    Keyword: BASIS
    atoms 1-2, 9-11  entry C          line   138 file /theoryfs2/ds/metcalf/miniconda2/envs/tf2gpu/share/psi4/basis/cc-pvdz.gbs
    atoms 3-8, 12-19 entry H          line    22 file /theoryfs2/ds/metcalf/miniconda2/envs/tf2gpu/share/psi4/basis/cc-pvdz.gbs

         ---------------------------------------------------------
                                   SCF
               by Justin Turney, Rob Parrish, Andy Simmonett
                          and Daniel G. A. Smith
                              RHF Reference
                        1 Threads,    500 MiB Core
         ---------------------------------------------------------

  ==> Geometry <==

    Molecular point group: c1
    Full point group: C1

    Geometry (in Angstrom), charge = 0, multiplicity = 1:

       Center              X                  Y                   Z               Mass
    ------------   -----------------  -----------------  -----------------  -----------------
         C            0.167116581018    -2.228275331888    -0.604541925127    12.000000000000
         C           -1.289883418982    -2.668275331888    -0.492541925127    12.000000000000
         H            0.344116581018    -1.776275331888    -1.580541925127     1.007825032230
         H            0.378116581018    -1.558275331888     0.181458074873     1.007825032230
         H            0.831116581018    -3.078275331888    -0.466541925127     1.007825032230
         H           -1.461883418982    -3.110275331888     0.490458074873     1.007825032230
         H           -1.521126418982    -3.418175331888    -1.263351925127     1.007825032230
         H           -1.927834418982    -1.783475331888    -0.634481925127     1.007825032230
         C            0.256116581018     1.228724668112     0.034458074873    12.000000000000
         C            1.548116581018     1.962724668112    -0.075541925127    12.000000000000
         C           -0.676883418982     1.783724668112     1.135458074873    12.000000000000
         H           -0.197883418982     1.266724668112    -0.878541925127     1.007825032230
         H            0.506116581018     0.246724668112     0.233458074873     1.007825032230
         H            1.350116581018     3.020724668112    -0.230541925127     1.007825032230
         H            2.123116581018     1.566724668112    -0.913541925127     1.007825032230
         H           -0.062883418982     1.793724668112     2.032458074873     1.007825032230
         H           -0.875883418982     2.810724668112     0.824458074873     1.007825032230
         H            2.087352581018     1.802624668112     0.869758074873     1.007825032230
         H           -1.627125418982     1.280624668112     1.367758074873     1.007825032230

  Running in c1 symmetry.

  Rotational constants: A =      0.21244  B =      0.04631  C =      0.03987 [cm^-1]
  Rotational constants: A =   6368.87446  B =   1388.46921  C =   1195.21851 [MHz]
  Nuclear repulsion =  181.996995073230778

  Charge       = 0
  Multiplicity = 1
  Electrons    = 44
  Nalpha       = 22
  Nbeta        = 22

  ==> Algorithm <==

  SCF Algorithm Type is PK.
  DIIS enabled.
  MOM disabled.
  Fractional occupation disabled.
  Guess Type is SAD.
  Energy threshold   = 1.00e-06
  Density threshold  = 1.00e-10
  Integral threshold = 0.00e+00

  ==> Primary Basis <==

  Basis Set: CC-PVDZ
    Blend: CC-PVDZ
    Number of shells: 72
    Number of basis function: 140
    Number of Cartesian functions: 145
    Spherical Harmonics?: true
    Max angular momentum: 2

  ==> Pre-Iterations <==

   -------------------------------------------------------
    Irrep   Nso     Nmo     Nalpha   Nbeta   Ndocc  Nsocc
   -------------------------------------------------------
     A        140     140       0       0       0       0
   -------------------------------------------------------
    Total     140     140      22      22      22       0
   -------------------------------------------------------

  ==> Integral Setup <==

  Using integral reordering PK algorithm.
  Sizing the integral batches needed.
  Building batch lookup table.
   Calculation information:
      Number of atoms:                  19
      Number of AO shells:              72
      Number of primitives:            180
      Number of atomic orbitals:       145
      Number of basis functions:       140

      Integral cutoff                 1.00e-12
      Number of threads:                 1

	Batch   1 pq = [       0,    9405] index = [             0,44231715] size =     44231715
	Batch   2 pq = [    9405,    9870] index = [      44231715,48713385] size =      4481670
  Task number: 5
  Buffer size: 11059200
  Buffer per thread: 2
  We computed 3010749 shell quartets total.
  Whereas there are 3454506 unique shell quartets.

  ==> DiskJK: Disk-Based J/K Matrices <==

    J tasked:                  Yes
    K tasked:                  Yes
    wK tasked:                  No
    Memory [MiB]:              375
    Schwarz Cutoff:          1E-12

    OpenMP threads:              1

  Minimum eigenvalue in the overlap matrix is 4.9022855754E-03.
  Using Symmetric Orthogonalization.

  SCF Guess: Superposition of Atomic Densities via on-the-fly atomic UHF.

  ==> Iterations <==

                        Total Energy        Delta E     RMS |[F,P]|

   @RHF iter SAD:  -196.55450746898103   -1.96555e+02   0.00000e+00
   @RHF iter   1:  -197.29024554382673   -7.35738e-01   3.85679e-03 DIIS
   @RHF iter   2:  -197.45387943680410   -1.63634e-01   1.63301e-03 DIIS
   @RHF iter   3:  -197.48201702582116   -2.81376e-02   3.27538e-04 DIIS
   @RHF iter   4:  -197.48422446019944   -2.20743e-03   4.56623e-05 DIIS
   @RHF iter   5:  -197.48426144713378   -3.69869e-05   1.41562e-05 DIIS
   @RHF iter   6:  -197.48426451331284   -3.06618e-06   2.41060e-06 DIIS
   @RHF iter   7:  -197.48426461888647   -1.05574e-07   4.66081e-07 DIIS
   @RHF iter   8:  -197.48426462347260   -4.58613e-09   1.18865e-07 DIIS
   @RHF iter   9:  -197.48426462375338   -2.80778e-10   3.69759e-08 DIIS
   @RHF iter  10:  -197.48426462378515   -3.17755e-11   8.52406e-09 DIIS
   @RHF iter  11:  -197.48426462378603   -8.81073e-13   1.73931e-09 DIIS
   @RHF iter  12:  -197.48426462378760   -1.56319e-12   4.07519e-10 DIIS
   @RHF iter  13:  -197.48426462378657    1.02318e-12   1.13206e-10 DIIS
   @RHF iter  14:  -197.48426462378603    5.40012e-13   2.91876e-11 DIIS
  Energy and wave function converged.

  ==> Post-Iterations <==

    Orbital Energies [Eh]
    ---------------------

    Doubly Occupied:

       1A    -11.218845     2A    -11.216138     3A    -11.212686
       4A    -11.211113     5A    -11.199556     6A     -1.065230
       7A     -1.021367     8A     -0.923625     9A     -0.839326
      10A     -0.806033    11A     -0.644271    12A     -0.607233
      13A     -0.603682    14A     -0.595000    15A     -0.538173
      16A     -0.531866    17A     -0.501901    18A     -0.492579
      19A     -0.488163    20A     -0.482750    21A     -0.470664
      22A     -0.454237

    Virtual:

      23A      0.169736    24A      0.196425    25A      0.215228
      26A      0.226586    27A      0.243458    28A      0.253908
      29A      0.261469    30A      0.262347    31A      0.280220
      32A      0.284408    33A      0.294123    34A      0.311767
      35A      0.315217    36A      0.367262    37A      0.394214
      38A      0.408841    39A      0.430191    40A      0.564922
      41A      0.571628    42A      0.598317    43A      0.603833
      44A      0.611453    45A      0.626418    46A      0.637383
      47A      0.651839    48A      0.681704    49A      0.754391
      50A      0.828157    51A      0.837094    52A      0.846699
      53A      0.867459    54A      0.877731    55A      0.885057
      56A      0.891844    57A      0.896802    58A      0.901523
      59A      0.904484    60A      0.907580    61A      0.910603
      62A      0.929962    63A      0.943208    64A      0.959133
      65A      0.973170    66A      0.980291    67A      0.995094
      68A      1.053259    69A      1.118700    70A      1.127562
      71A      1.135894    72A      1.174250    73A      1.235003
      74A      1.312454    75A      1.354356    76A      1.480339
      77A      1.486323    78A      1.497803    79A      1.520756
      80A      1.548272    81A      1.564530    82A      1.632628
      83A      1.676680    84A      1.679223    85A      1.684447
      86A      1.704244    87A      1.711619    88A      1.830113
      89A      1.862870    90A      1.880706    91A      1.884626
      92A      1.905198    93A      1.908095    94A      1.914980
      95A      1.928286    96A      1.931151    97A      1.951257
      98A      1.956498    99A      1.967058   100A      1.971237
     101A      1.975323   102A      2.005266   103A      2.025975
     104A      2.045008   105A      2.053184   106A      2.068061
     107A      2.076730   108A      2.120518   109A      2.146827
     110A      2.157731   111A      2.203068   112A      2.287215
     113A      2.297724   114A      2.304550   115A      2.313602
     116A      2.329051   117A      2.358291   118A      2.460647
     119A      2.481718   120A      2.549504   121A      2.556830
     122A      2.585389   123A      2.604439   124A      2.610475
     125A      2.668567   126A      2.687126   127A      2.764498
     128A      2.776598   129A      2.782764   130A      2.795722
     131A      2.823130   132A      2.830313   133A      2.843386
     134A      2.881998   135A      2.945478   136A      2.966736
     137A      2.983485   138A      3.006144   139A      3.132989
     140A      3.214460

    Final Occupation by Irrep:
              A
    DOCC [    22 ]

  @RHF Final Energy:  -197.48426462378603

   => Energetics <=

    Nuclear Repulsion Energy =            181.9969950732307780
    One-Electron Energy =                -624.7136449203309212
    Two-Electron Energy =                 245.2323852233141110
    Total Energy =                       -197.4842646237860322

Computation Completed

Properties will be evaluated at   0.000000,   0.000000,   0.000000 [a0]

Properties computed using the SCF density matrix

  Nuclear Dipole Moment: [e a0]
     X:    -0.0512      Y:    -0.8776      Z:     0.0302

  Electronic Dipole Moment: [e a0]
     X:     0.0622      Y:     0.8189      Z:    -0.0645

  Dipole Moment: [e a0]
     X:     0.0111      Y:    -0.0587      Z:    -0.0342     Total:     0.0688

  Dipole Moment: [D]
     X:     0.0282      Y:    -0.1491      Z:    -0.0869     Total:     0.1749

*** tstop() called on ds3 at Sun Apr 26 17:55:16 2020
Module time:
	user time   =      16.77 seconds =       0.28 minutes
	system time =       6.78 seconds =       0.11 minutes
	total time  =         23 seconds =       0.38 minutes
Total time:
	user time   =      16.77 seconds =       0.28 minutes
	system time =       6.78 seconds =       0.11 minutes
	total time  =         23 seconds =       0.38 minutes
                                     G D M A

                                 by Anthony Stone

                           version 2.2.06, 22 June 2011

               Distributed Multipoles from Gaussian wavefunctions

Starting at 17:55:16 on 26 Apr 2020

Using SCF density matrix from file ./SSI/SSI-030THR-121LYS-1-dimer.test.25917.fchk

                         Distributed Multipole Analysis

Standard DMA

Positions and radii in angstrom
Multipole moments in atomic units, ea_0^k for rank k

C          x =  0.167117  y = -2.228275  z = -0.604542 angstrom
           Maximum rank =  0   Radius =  0.650 angstrom
                   Q00  =  -0.237288

C          x = -1.289883  y = -2.668275  z = -0.492542 angstrom
           Maximum rank =  0   Radius =  0.650 angstrom
                   Q00  =  -0.225901

H          x =  0.344117  y = -1.776275  z = -1.580542 angstrom
           Maximum rank =  0   Radius =  0.325 angstrom
                   Q00  =   0.077978

H          x =  0.378117  y = -1.558275  z =  0.181458 angstrom
           Maximum rank =  0   Radius =  0.325 angstrom
                   Q00  =   0.082372

H          x =  0.831117  y = -3.078275  z = -0.466542 angstrom
           Maximum rank =  0   Radius =  0.325 angstrom
                   Q00  =   0.074919

H          x = -1.461883  y = -3.110275  z =  0.490458 angstrom
           Maximum rank =  0   Radius =  0.325 angstrom
                   Q00  =   0.078617

H          x = -1.521126  y = -3.418175  z = -1.263352 angstrom
           Maximum rank =  0   Radius =  0.325 angstrom
                   Q00  =   0.078085

H          x = -1.927834  y = -1.783475  z = -0.634482 angstrom
           Maximum rank =  0   Radius =  0.325 angstrom
                   Q00  =   0.076900

C          x =  0.256117  y =  1.228725  z =  0.034458 angstrom
           Maximum rank =  0   Radius =  0.650 angstrom
                   Q00  =  -0.085297

C          x =  1.548117  y =  1.962725  z = -0.075542 angstrom
           Maximum rank =  0   Radius =  0.650 angstrom
                   Q00  =  -0.240009

C          x = -0.676883  y =  1.783725  z =  1.135458 angstrom
           Maximum rank =  0   Radius =  0.650 angstrom
                   Q00  =  -0.240446

H          x = -0.197883  y =  1.266725  z = -0.878542 angstrom
           Maximum rank =  0   Radius =  0.325 angstrom
                   Q00  =   0.051327

H          x =  0.506117  y =  0.246725  z =  0.233458 angstrom
           Maximum rank =  0   Radius =  0.325 angstrom
                   Q00  =   0.049947

H          x =  1.350117  y =  3.020725  z = -0.230542 angstrom
           Maximum rank =  0   Radius =  0.325 angstrom
                   Q00  =   0.072243

H          x =  2.123117  y =  1.566725  z = -0.913542 angstrom
           Maximum rank =  0   Radius =  0.325 angstrom
                   Q00  =   0.083354

H          x = -0.062883  y =  1.793725  z =  2.032458 angstrom
           Maximum rank =  0   Radius =  0.325 angstrom
                   Q00  =   0.070349

H          x = -0.875883  y =  2.810725  z =  0.824458 angstrom
           Maximum rank =  0   Radius =  0.325 angstrom
                   Q00  =   0.073218

H          x =  2.087353  y =  1.802625  z =  0.869758 angstrom
           Maximum rank =  0   Radius =  0.325 angstrom
                   Q00  =   0.067819

H          x = -1.627125  y =  1.280625  z =  1.367758 angstrom
           Maximum rank =  0   Radius =  0.325 angstrom
                   Q00  =   0.091814

Total multipoles referred to origin at
           x =   0.000000,  y =    0.000000,  z =    0.000000 angstrom
                   Q00  =  -0.000000

Finished at 17:55:16 on 26 Apr 2020

  DMA results are available in the Python driver through the
	  variable('DMA DISTRIBUTED MULTIPOLES')
  and
	  variable('DMA TOTAL MULTIPOLES')
  commands.

    Psi4 stopped on: Sunday, 26 April 2020 05:55PM
    Psi4 wall time for execution: 0:00:22.92

*** Psi4 exiting successfully. Buy a developer a beer!
