                               Psi4 1.3.2 release

  ==> Input File <==

--------------------------------------------------------------------------
import numpy as np
set {scf_type pk
basis cc-pvdz
d_convergence 10
gdma_switch   0
gdma_limit    0
gdma_origin   [ 0.0,  0.0,  0.0 ]
}
molecule test {
    units Angstrom
    0 1
    --
    0 1
    C               -0.630518434820282    -2.443997906228669    -1.462246626986350
    C               -1.406518434820282    -3.266997906228669    -2.483246626986350
    C               -0.835518434820282    -0.949997906228669    -1.619246626986350
    C               -1.973518434820282    -0.333997906228669    -1.102246626986350
    C                0.092481565179718    -0.155997906228669    -2.308246626986350
    C               -2.180518434820282     1.030002093771331    -1.236246626986350
    C               -0.105518434820282     1.209002093771331    -2.439246626986350
    C               -1.234518434820282     1.804002093771331    -1.904246626986350
    O               -1.433518434820282     3.143002093771331    -2.037246626986350
    H               -0.967518434820282    -2.735997906228669    -0.466246626986350
    H                0.434481565179718    -2.666997906228669    -1.530246626986350
    H               -2.470518434820282    -3.057997906228669    -2.361246626986350
    H               -2.715518434820281    -0.934997906228669    -0.589246626986350
    H                0.981481565179718    -0.606997906228669    -2.730246626986350
    H               -3.083518434820282     1.477002093771331    -0.855246626986350
    H                0.621481565179718     1.817002093771331    -2.959246626986350
    H               -2.338518434820282     3.331002093771330    -1.805246626986350
    H               -1.227198434820282    -4.339907906228669    -2.319813626986350
    H               -1.119198434820282    -2.951597906228669    -3.497135626986350
    C               -0.546518434820282     2.294002093771330     2.019753373013650
    C               -0.025518434820282    -0.125997906228669     1.573753373013650
    C                0.379481565179718     1.109002093771331     2.086753373013650
    C                0.815481565179718    -1.221997906228669     1.590753373013650
    C                2.093481565179718    -1.095997906228669     2.124753373013650
    C                1.659481565179718     1.214002093771331     2.618753373013650
    C                2.509481565179719     0.130002093771331     2.650753373013650
    O                2.909481565179719    -2.165997906228670     2.137753373013650
    H               -1.030518434820282    -0.240997906228669     1.201753373013650
    H                0.477481565179718    -2.172997906228669     1.208753373013650
    H               -0.693518434820282     2.729002093771331     2.992753373013650
    H               -1.518518434820282     1.915002093771331     1.713753373013650
    H                2.002481565179718     2.150002093771331     2.997753373013650
    H                2.508481565179718    -2.930997906228670     1.729753373013650
    H                3.506481565179719     0.220002093771331     3.054753373013650
    H               -0.256508434820282     3.079332093771331     1.306203373013650

}
e, wfn = energy('scf', return_wfn=True)
gdma(wfn)
dmavals = variable('DMA DISTRIBUTED MULTIPOLES')
charges = np.array(dmavals)
print(charges)
np.save('SSI-202TYR-241TYR-1-dimer.npy', np.array(charges))--------------------------------------------------------------------------

*** tstart() called on ds3
*** at Tue Apr 28 17:15:52 2020

   => Loading Basis Set <=

    Name: CC-PVDZ
    Role: ORBITAL
    Keyword: BASIS
    atoms 1-8, 20-26   entry C          line   138 file /theoryfs2/ds/metcalf/miniconda2/envs/tf2gpu/share/psi4/basis/cc-pvdz.gbs
    atoms 9, 27        entry O          line   198 file /theoryfs2/ds/metcalf/miniconda2/envs/tf2gpu/share/psi4/basis/cc-pvdz.gbs
    atoms 10-19, 28-35 entry H          line    22 file /theoryfs2/ds/metcalf/miniconda2/envs/tf2gpu/share/psi4/basis/cc-pvdz.gbs

         ---------------------------------------------------------
                                   SCF
               by Justin Turney, Rob Parrish, Andy Simmonett
                          and Daniel G. A. Smith
                              RHF Reference
                        1 Threads,    500 MiB Core
         ---------------------------------------------------------

  ==> Geometry <==

    Molecular point group: c1
    Full point group: C1

    Geometry (in Angstrom), charge = 0, multiplicity = 1:

       Center              X                  Y                   Z               Mass
    ------------   -----------------  -----------------  -----------------  -----------------
         C           -0.630518434820    -2.443997906229    -1.462246626986    12.000000000000
         C           -1.406518434820    -3.266997906229    -2.483246626986    12.000000000000
         C           -0.835518434820    -0.949997906229    -1.619246626986    12.000000000000
         C           -1.973518434820    -0.333997906229    -1.102246626986    12.000000000000
         C            0.092481565180    -0.155997906229    -2.308246626986    12.000000000000
         C           -2.180518434820     1.030002093771    -1.236246626986    12.000000000000
         C           -0.105518434820     1.209002093771    -2.439246626986    12.000000000000
         C           -1.234518434820     1.804002093771    -1.904246626986    12.000000000000
         O           -1.433518434820     3.143002093771    -2.037246626986    15.994914619570
         H           -0.967518434820    -2.735997906229    -0.466246626986     1.007825032230
         H            0.434481565180    -2.666997906229    -1.530246626986     1.007825032230
         H           -2.470518434820    -3.057997906229    -2.361246626986     1.007825032230
         H           -2.715518434820    -0.934997906229    -0.589246626986     1.007825032230
         H            0.981481565180    -0.606997906229    -2.730246626986     1.007825032230
         H           -3.083518434820     1.477002093771    -0.855246626986     1.007825032230
         H            0.621481565180     1.817002093771    -2.959246626986     1.007825032230
         H           -2.338518434820     3.331002093771    -1.805246626986     1.007825032230
         H           -1.227198434820    -4.339907906229    -2.319813626986     1.007825032230
         H           -1.119198434820    -2.951597906229    -3.497135626986     1.007825032230
         C           -0.546518434820     2.294002093771     2.019753373014    12.000000000000
         C           -0.025518434820    -0.125997906229     1.573753373014    12.000000000000
         C            0.379481565180     1.109002093771     2.086753373014    12.000000000000
         C            0.815481565180    -1.221997906229     1.590753373014    12.000000000000
         C            2.093481565180    -1.095997906229     2.124753373014    12.000000000000
         C            1.659481565180     1.214002093771     2.618753373014    12.000000000000
         C            2.509481565180     0.130002093771     2.650753373014    12.000000000000
         O            2.909481565180    -2.165997906229     2.137753373014    15.994914619570
         H           -1.030518434820    -0.240997906229     1.201753373014     1.007825032230
         H            0.477481565180    -2.172997906229     1.208753373014     1.007825032230
         H           -0.693518434820     2.729002093771     2.992753373014     1.007825032230
         H           -1.518518434820     1.915002093771     1.713753373014     1.007825032230
         H            2.002481565180     2.150002093771     2.997753373014     1.007825032230
         H            2.508481565180    -2.930997906229     1.729753373014     1.007825032230
         H            3.506481565180     0.220002093771     3.054753373014     1.007825032230
         H           -0.256508434820     3.079332093771     1.306203373014     1.007825032230

  Running in c1 symmetry.

  Rotational constants: A =      0.01813  B =      0.01129  C =      0.00801 [cm^-1]
  Rotational constants: A =    543.42615  B =    338.37790  C =    240.18784 [MHz]
  Nuclear repulsion = 1157.260700039215408

  Charge       = 0
  Multiplicity = 1
  Electrons    = 124
  Nalpha       = 62
  Nbeta        = 62

  ==> Algorithm <==

  SCF Algorithm Type is PK.
  DIIS enabled.
  MOM disabled.
  Fractional occupation disabled.
  Guess Type is SAD.
  Energy threshold   = 1.00e-06
  Density threshold  = 1.00e-10
  Integral threshold = 0.00e+00

  ==> Primary Basis <==

  Basis Set: CC-PVDZ
    Blend: CC-PVDZ
    Number of shells: 156
    Number of basis function: 328
    Number of Cartesian functions: 345
    Spherical Harmonics?: true
    Max angular momentum: 2

  ==> Pre-Iterations <==

   -------------------------------------------------------
    Irrep   Nso     Nmo     Nalpha   Nbeta   Ndocc  Nsocc
   -------------------------------------------------------
     A        328     328       0       0       0       0
   -------------------------------------------------------
    Total     328     328      62      62      62       0
   -------------------------------------------------------

  ==> Integral Setup <==

  Using integral reordering PK algorithm.
  Sizing the integral batches needed.
  Building batch lookup table.
   Calculation information:
      Number of atoms:                  35
      Number of AO shells:             156
      Number of primitives:            464
      Number of atomic orbitals:       345
      Number of basis functions:       328

      Integral cutoff                 1.00e-12
      Number of threads:                 1

	Batch   1 pq = [       0,    9405] index = [             0,44231715] size =     44231715
	Batch   2 pq = [    9405,   13301] index = [      44231715,88464951] size =     44233236
	Batch   3 pq = [   13301,   16290] index = [      88464951,132690195] size =     44225244
	Batch   4 pq = [   16290,   18810] index = [     132690195,176917455] size =     44227260
	Batch   5 pq = [   18810,   21030] index = [     176917455,221140965] size =     44223510
	Batch   6 pq = [   21030,   23037] index = [     221140965,265363203] size =     44222238
	Batch   7 pq = [   23037,   24883] index = [     265363203,309594286] size =     44231083
	Batch   8 pq = [   24883,   26601] index = [     309594286,353819901] size =     44225615
	Batch   9 pq = [   26601,   28214] index = [     353819901,398029005] size =     44209104
	Batch  10 pq = [   28214,   29740] index = [     398029005,442248670] size =     44219665
	Batch  11 pq = [   29740,   31191] index = [     442248670,486454836] size =     44206166
	Batch  12 pq = [   31191,   32578] index = [     486454836,530679331] size =     44224495
	Batch  13 pq = [   32578,   33908] index = [     530679331,574893186] size =     44213855
	Batch  14 pq = [   33908,   35188] index = [     574893186,619115266] size =     44222080
	Batch  15 pq = [   35188,   36423] index = [     619115266,663335676] size =     44220410
	Batch  16 pq = [   36423,   37617] index = [     663335676,707538153] size =     44202477
	Batch  17 pq = [   37617,   38775] index = [     707538153,751769700] size =     44231547
	Batch  18 pq = [   38775,   39899] index = [     751769700,795985050] size =     44215350
	Batch  19 pq = [   39899,   40992] index = [     795985050,840192528] size =     44207478
	Batch  20 pq = [   40992,   42057] index = [     840192528,884416653] size =     44224125
	Batch  21 pq = [   42057,   43095] index = [     884416653,928611060] size =     44194407
	Batch  22 pq = [   43095,   44109] index = [     928611060,972823995] size =     44212935
	Batch  23 pq = [   44109,   45100] index = [     972823995,1017027550] size =     44203555
	Batch  24 pq = [   45100,   46070] index = [    1017027550,1061245485] size =     44217935
	Batch  25 pq = [   46070,   47020] index = [    1061245485,1105463710] size =     44218225
	Batch  26 pq = [   47020,   47951] index = [    1105463710,1149673176] size =     44209466
	Batch  27 pq = [   47951,   48864] index = [    1149673176,1193869680] size =     44196504
	Batch  28 pq = [   48864,   49761] index = [    1193869680,1238103441] size =     44233761
	Batch  29 pq = [   49761,   50642] index = [    1238103441,1282331403] size =     44227962
	Batch  30 pq = [   50642,   51508] index = [    1282331403,1326562786] size =     44231383
	Batch  31 pq = [   51508,   52359] index = [    1326562786,1370758620] size =     44195834
	Batch  32 pq = [   52359,   53197] index = [    1370758620,1414987003] size =     44228383
	Batch  33 pq = [   53197,   53956] index = [    1414987003,1455651946] size =     40664943
  Task number: 132
  Buffer size: 11059200
  Buffer per thread: 2
  We computed 91276834 shell quartets total.
  Whereas there are 74988381 unique shell quartets.
    21.72 percent of shell quartets recomputed by reordering.

  ==> DiskJK: Disk-Based J/K Matrices <==

    J tasked:                  Yes
    K tasked:                  Yes
    wK tasked:                  No
    Memory [MiB]:              375
    Schwarz Cutoff:          1E-12

    OpenMP threads:              1

  Minimum eigenvalue in the overlap matrix is 2.9780169557E-04.
  Using Symmetric Orthogonalization.

  SCF Guess: Superposition of Atomic Densities via on-the-fly atomic UHF.

  ==> Iterations <==

                        Total Energy        Delta E     RMS |[F,P]|

   @RHF iter SAD:  -727.23613898208816   -7.27236e+02   0.00000e+00
   @RHF iter   1:  -727.89223583729711   -6.56097e-01   2.35333e-03 DIIS
   @RHF iter   2:  -728.21826563371485   -3.26030e-01   1.00547e-03 DIIS
   @RHF iter   3:  -728.27162240794132   -5.33568e-02   2.39104e-04 DIIS
   @RHF iter   4:  -728.27617945592112   -4.55705e-03   1.01145e-04 DIIS
   @RHF iter   5:  -728.27682907182339   -6.49616e-04   1.64498e-05 DIIS
   @RHF iter   6:  -728.27685819683859   -2.91250e-05   5.91424e-06 DIIS
   @RHF iter   7:  -728.27686169660558   -3.49977e-06   2.25706e-06 DIIS
   @RHF iter   8:  -728.27686235597639   -6.59371e-07   8.63469e-07 DIIS
   @RHF iter   9:  -728.27686249280487   -1.36828e-07   3.82846e-07 DIIS
   @RHF iter  10:  -728.27686252645640   -3.36515e-08   1.85824e-07 DIIS
   @RHF iter  11:  -728.27686253660795   -1.01516e-08   7.25935e-08 DIIS
   @RHF iter  12:  -728.27686253805234   -1.44439e-09   2.95093e-08 DIIS
   @RHF iter  13:  -728.27686253819445   -1.42109e-10   8.80307e-09 DIIS
   @RHF iter  14:  -728.27686253820252   -8.07177e-12   3.02673e-09 DIIS
   @RHF iter  15:  -728.27686253819866    3.86535e-12   9.51628e-10 DIIS
   @RHF iter  16:  -728.27686253820048   -1.81899e-12   4.55537e-10 DIIS
   @RHF iter  17:  -728.27686253820741   -6.93490e-12   1.99891e-10 DIIS
   @RHF iter  18:  -728.27686253820548    1.93268e-12   1.01531e-10 DIIS
   @RHF iter  19:  -728.27686253819809    7.38964e-12   4.49620e-11 DIIS
  Energy and wave function converged.

  ==> Post-Iterations <==

    Orbital Energies [Eh]
    ---------------------

    Doubly Occupied:

       1A    -20.586188     2A    -20.578770     3A    -11.300403
       4A    -11.292704     5A    -11.241508     6A    -11.240969
       7A    -11.235498     8A    -11.234578     9A    -11.233942
      10A    -11.230236    11A    -11.226904    12A    -11.226646
      13A    -11.226486    14A    -11.222345    15A    -11.221070
      16A    -11.220708    17A    -11.217247    18A     -1.408258
      19A     -1.404709    20A     -1.156413    21A     -1.144487
      22A     -1.063028    23A     -1.029131    24A     -1.023189
      25A     -1.013619    26A     -0.980128    27A     -0.920446
      28A     -0.863937    29A     -0.847368    30A     -0.836958
      31A     -0.800968    32A     -0.794783    33A     -0.734457
      34A     -0.731442    35A     -0.677610    36A     -0.664855
      37A     -0.650796    38A     -0.636519    39A     -0.618569
      40A     -0.600038    41A     -0.598864    42A     -0.592415
      43A     -0.588917    44A     -0.585230    45A     -0.583126
      46A     -0.574188    47A     -0.565014    48A     -0.563483
      49A     -0.549443    50A     -0.523811    51A     -0.515410
      52A     -0.500289    53A     -0.493094    54A     -0.482951
      55A     -0.480889    56A     -0.476950    57A     -0.465871
      58A     -0.457252    59A     -0.342170    60A     -0.333899
      61A     -0.303066    62A     -0.291437

    Virtual:

      63A      0.126249    64A      0.141220    65A      0.143529
      66A      0.165593    67A      0.170338    68A      0.175609
      69A      0.186821    70A      0.204805    71A      0.208074
      72A      0.212594    73A      0.226908    74A      0.235929
      75A      0.244630    76A      0.251440    77A      0.268184
      78A      0.273805    79A      0.281248    80A      0.285958
      81A      0.292519    82A      0.296814    83A      0.327244
      84A      0.336951    85A      0.356980    86A      0.379619
      87A      0.384592    88A      0.385586    89A      0.412782
      90A      0.429786    91A      0.439291    92A      0.463298
      93A      0.468714    94A      0.481783    95A      0.488355
      96A      0.500142    97A      0.512144    98A      0.524698
      99A      0.530126   100A      0.579159   101A      0.591968
     102A      0.612196   103A      0.620111   104A      0.625867
     105A      0.652506   106A      0.656263   107A      0.662920
     108A      0.672778   109A      0.682692   110A      0.685451
     111A      0.688767   112A      0.703361   113A      0.707000
     114A      0.720410   115A      0.727642   116A      0.729685
     117A      0.734646   118A      0.738860   119A      0.746852
     120A      0.755033   121A      0.772304   122A      0.780801
     123A      0.783090   124A      0.794463   125A      0.799862
     126A      0.804094   127A      0.809544   128A      0.823685
     129A      0.831462   130A      0.838293   131A      0.859097
     132A      0.862227   133A      0.865094   134A      0.868636
     135A      0.878663   136A      0.889852   137A      0.894632
     138A      0.899412   139A      0.901091   140A      0.904189
     141A      0.910253   142A      0.917120   143A      0.925734
     144A      0.927726   145A      0.933755   146A      0.937072
     147A      0.956142   148A      0.956616   149A      0.969123
     150A      0.973231   151A      0.983656   152A      0.995018
     153A      1.013285   154A      1.020545   155A      1.026904
     156A      1.041440   157A      1.055325   158A      1.071178
     159A      1.085997   160A      1.092601   161A      1.121082
     162A      1.131059   163A      1.149748   164A      1.151058
     165A      1.156949   166A      1.165715   167A      1.178352
     168A      1.198582   169A      1.213472   170A      1.219713
     171A      1.224491   172A      1.237910   173A      1.250793
     174A      1.259459   175A      1.264666   176A      1.271873
     177A      1.287923   178A      1.290468   179A      1.300587
     180A      1.304434   181A      1.313462   182A      1.329386
     183A      1.344330   184A      1.350483   185A      1.357022
     186A      1.365780   187A      1.376412   188A      1.379457
     189A      1.401346   190A      1.406380   191A      1.424135
     192A      1.438892   193A      1.483313   194A      1.491192
     195A      1.504773   196A      1.518575   197A      1.557532
     198A      1.569496   199A      1.574628   200A      1.598493
     201A      1.611826   202A      1.625543   203A      1.630342
     204A      1.641297   205A      1.676020   206A      1.680024
     207A      1.696071   208A      1.711694   209A      1.729415
     210A      1.745667   211A      1.751363   212A      1.762158
     213A      1.787582   214A      1.800690   215A      1.805909
     216A      1.818197   217A      1.834284   218A      1.850180
     219A      1.863454   220A      1.876859   221A      1.879679
     222A      1.884531   223A      1.892920   224A      1.895519
     225A      1.901706   226A      1.908856   227A      1.914025
     228A      1.920167   229A      1.926349   230A      1.936706
     231A      1.939719   232A      1.945240   233A      1.952302
     234A      1.962291   235A      1.963084   236A      1.970004
     237A      1.982494   238A      1.996088   239A      1.996657
     240A      1.998834   241A      2.014525   242A      2.020991
     243A      2.023198   244A      2.044080   245A      2.057333
     246A      2.061816   247A      2.070159   248A      2.086457
     249A      2.090485   250A      2.094661   251A      2.103374
     252A      2.112585   253A      2.121103   254A      2.141870
     255A      2.150376   256A      2.156780   257A      2.172368
     258A      2.174465   259A      2.202108   260A      2.209535
     261A      2.214398   262A      2.232062   263A      2.239695
     264A      2.254037   265A      2.269868   266A      2.278581
     267A      2.304555   268A      2.315645   269A      2.328130
     270A      2.346254   271A      2.369210   272A      2.375192
     273A      2.380756   274A      2.391304   275A      2.429040
     276A      2.452965   277A      2.457530   278A      2.476482
     279A      2.480593   280A      2.489355   281A      2.511556
     282A      2.515530   283A      2.530253   284A      2.542704
     285A      2.551681   286A      2.555172   287A      2.569260
     288A      2.570363   289A      2.626850   290A      2.641938
     291A      2.653052   292A      2.669643   293A      2.761120
     294A      2.765439   295A      2.777585   296A      2.796917
     297A      2.798312   298A      2.815884   299A      2.821819
     300A      2.847700   301A      2.864711   302A      2.875950
     303A      2.888889   304A      2.901620   305A      2.928704
     306A      2.974534   307A      2.990554   308A      2.999554
     309A      3.021254   310A      3.043586   311A      3.094426
     312A      3.125712   313A      3.144955   314A      3.165815
     315A      3.263811   316A      3.281059   317A      3.290068
     318A      3.318055   319A      3.345932   320A      3.364007
     321A      3.588307   322A      3.598299   323A      3.694800
     324A      3.697859   325A      3.962421   326A      4.005683
     327A      4.192959   328A      4.211313

    Final Occupation by Irrep:
              A
    DOCC [    62 ]

  @RHF Final Energy:  -728.27686253819809

   => Energetics <=

    Nuclear Repulsion Energy =           1157.2607000392154077
    One-Electron Energy =               -3288.6637736188367853
    Two-Electron Energy =                1403.1262110414231756
    Total Energy =                       -728.2768625381982019

Computation Completed

Properties will be evaluated at   0.000000,   0.000000,   0.000000 [a0]

Properties computed using the SCF density matrix

  Nuclear Dipole Moment: [e a0]
     X:    -6.4508      Y:    -5.5462      Z:    -2.7261

  Electronic Dipole Moment: [e a0]
     X:     5.5030      Y:     5.1577      Z:     2.4733

  Dipole Moment: [e a0]
     X:    -0.9478      Y:    -0.3885      Z:    -0.2528     Total:     1.0551

  Dipole Moment: [D]
     X:    -2.4092      Y:    -0.9874      Z:    -0.6426     Total:     2.6818

*** tstop() called on ds3 at Tue Apr 28 19:53:08 2020
Module time:
	user time   =     800.03 seconds =      13.33 minutes
	system time =     271.84 seconds =       4.53 minutes
	total time  =       9436 seconds =     157.27 minutes
Total time:
	user time   =     800.03 seconds =      13.33 minutes
	system time =     271.84 seconds =       4.53 minutes
	total time  =       9436 seconds =     157.27 minutes
                                     G D M A

                                 by Anthony Stone

                           version 2.2.06, 22 June 2011

               Distributed Multipoles from Gaussian wavefunctions

Starting at 19:53:8 on 28 Apr 2020

Using SCF density matrix from file ./SSI/SSI-202TYR-241TYR-1-dimer.test.29246.fchk

                         Distributed Multipole Analysis

Standard DMA

Positions and radii in angstrom
Multipole moments in atomic units, ea_0^k for rank k

C          x = -0.630518  y = -2.443998  z = -1.462247 angstrom
           Maximum rank =  0   Radius =  0.650 angstrom
                   Q00  =  -0.039995

C          x = -1.406518  y = -3.266998  z = -2.483247 angstrom
           Maximum rank =  0   Radius =  0.650 angstrom
                   Q00  =  -0.225703

C          x = -0.835518  y = -0.949998  z = -1.619247 angstrom
           Maximum rank =  0   Radius =  0.650 angstrom
                   Q00  =  -0.141301

C          x = -1.973518  y = -0.333998  z = -1.102247 angstrom
           Maximum rank =  0   Radius =  0.650 angstrom
                   Q00  =   0.035685

C          x =  0.092482  y = -0.155998  z = -2.308247 angstrom
           Maximum rank =  0   Radius =  0.650 angstrom
                   Q00  =  -0.042707

C          x = -2.180518  y =  1.030002  z = -1.236247 angstrom
           Maximum rank =  0   Radius =  0.650 angstrom
                   Q00  =  -0.184629

C          x = -0.105518  y =  1.209002  z = -2.439247 angstrom
           Maximum rank =  0   Radius =  0.650 angstrom
                   Q00  =  -0.097489

C          x = -1.234518  y =  1.804002  z = -1.904247 angstrom
           Maximum rank =  0   Radius =  0.650 angstrom
                   Q00  =   0.309761

O          x = -1.433518  y =  3.143002  z = -2.037247 angstrom
           Maximum rank =  0   Radius =  0.650 angstrom
                   Q00  =  -0.658888

H          x = -0.967518  y = -2.735998  z = -0.466247 angstrom
           Maximum rank =  0   Radius =  0.325 angstrom
                   Q00  =   0.052083

H          x =  0.434482  y = -2.666998  z = -1.530247 angstrom
           Maximum rank =  0   Radius =  0.325 angstrom
                   Q00  =   0.064976

H          x = -2.470518  y = -3.057998  z = -2.361247 angstrom
           Maximum rank =  0   Radius =  0.325 angstrom
                   Q00  =   0.081431

H          x = -2.715518  y = -0.934998  z = -0.589247 angstrom
           Maximum rank =  0   Radius =  0.325 angstrom
                   Q00  =   0.065262

H          x =  0.981482  y = -0.606998  z = -2.730247 angstrom
           Maximum rank =  0   Radius =  0.325 angstrom
                   Q00  =   0.065256

H          x = -3.083518  y =  1.477002  z = -0.855247 angstrom
           Maximum rank =  0   Radius =  0.325 angstrom
                   Q00  =   0.071824

H          x =  0.621482  y =  1.817002  z = -2.959247 angstrom
           Maximum rank =  0   Radius =  0.325 angstrom
                   Q00  =   0.080697

H          x = -2.338518  y =  3.331002  z = -1.805247 angstrom
           Maximum rank =  0   Radius =  0.325 angstrom
                   Q00  =   0.399526

H          x = -1.227198  y = -4.339908  z = -2.319814 angstrom
           Maximum rank =  0   Radius =  0.325 angstrom
                   Q00  =   0.081611

H          x = -1.119198  y = -2.951598  z = -3.497136 angstrom
           Maximum rank =  0   Radius =  0.325 angstrom
                   Q00  =   0.084309

C          x = -0.546518  y =  2.294002  z =  2.019753 angstrom
           Maximum rank =  0   Radius =  0.650 angstrom
                   Q00  =  -0.204983

C          x = -0.025518  y = -0.125998  z =  1.573753 angstrom
           Maximum rank =  0   Radius =  0.650 angstrom
                   Q00  =   0.064350

C          x =  0.379482  y =  1.109002  z =  2.086753 angstrom
           Maximum rank =  0   Radius =  0.650 angstrom
                   Q00  =  -0.145986

C          x =  0.815482  y = -1.221998  z =  1.590753 angstrom
           Maximum rank =  0   Radius =  0.650 angstrom
                   Q00  =  -0.194290

C          x =  2.093482  y = -1.095998  z =  2.124753 angstrom
           Maximum rank =  0   Radius =  0.650 angstrom
                   Q00  =   0.323897

C          x =  1.659482  y =  1.214002  z =  2.618753 angstrom
           Maximum rank =  0   Radius =  0.650 angstrom
                   Q00  =  -0.003040

C          x =  2.509482  y =  0.130002  z =  2.650753 angstrom
           Maximum rank =  0   Radius =  0.650 angstrom
                   Q00  =  -0.130026

O          x =  2.909482  y = -2.165998  z =  2.137753 angstrom
           Maximum rank =  0   Radius =  0.650 angstrom
                   Q00  =  -0.665085

H          x = -1.030518  y = -0.240998  z =  1.201753 angstrom
           Maximum rank =  0   Radius =  0.325 angstrom
                   Q00  =   0.067901

H          x =  0.477482  y = -2.172998  z =  1.208753 angstrom
           Maximum rank =  0   Radius =  0.325 angstrom
                   Q00  =   0.063674

H          x = -0.693518  y =  2.729002  z =  2.992753 angstrom
           Maximum rank =  0   Radius =  0.325 angstrom
                   Q00  =   0.095433

H          x = -1.518518  y =  1.915002  z =  1.713753 angstrom
           Maximum rank =  0   Radius =  0.325 angstrom
                   Q00  =   0.089140

H          x =  2.002482  y =  2.150002  z =  2.997753 angstrom
           Maximum rank =  0   Radius =  0.325 angstrom
                   Q00  =   0.056347

H          x =  2.508482  y = -2.930998  z =  1.729753 angstrom
           Maximum rank =  0   Radius =  0.325 angstrom
                   Q00  =   0.402316

H          x =  3.506482  y =  0.220002  z =  3.054753 angstrom
           Maximum rank =  0   Radius =  0.325 angstrom
                   Q00  =   0.075493

H          x = -0.256508  y =  3.079332  z =  1.306203 angstrom
           Maximum rank =  0   Radius =  0.325 angstrom
                   Q00  =   0.103152

Total multipoles referred to origin at
           x =   0.000000,  y =    0.000000,  z =    0.000000 angstrom
                   Q00  =  -0.000000

Finished at 19:53:8 on 28 Apr 2020

  DMA results are available in the Python driver through the
	  variable('DMA DISTRIBUTED MULTIPOLES')
  and
	  variable('DMA TOTAL MULTIPOLES')
  commands.

    Psi4 stopped on: Tuesday, 28 April 2020 07:53PM
    Psi4 wall time for execution: 2:37:16.82

*** Psi4 exiting successfully. Buy a developer a beer!
