                               Psi4 1.3.2 release

  ==> Input File <==

--------------------------------------------------------------------------
import numpy as np
set {scf_type pk
basis cc-pvdz
d_convergence 10
gdma_switch   0
gdma_limit    0
gdma_origin   [ 0.0,  0.0,  0.0 ]
}
molecule test {
    units Angstrom
    0 1
    --
    0 1
    C                0.233158338735084    -0.152641103894096     1.128122444602892
    C                1.107158338735084    -0.716641103894096     2.236122444602893
    C               -1.158841661264916     0.104358896105904     1.608122444602892
    O               -1.892841661264916    -0.821641103894096     1.951122444602892
    N               -1.548841661264917     1.360358896105904     1.618122444602892
    H                0.675158338735084     0.754358896105904     0.713122444602892
    H                0.151158338735084    -0.889641103894096     0.330122444602892
    H                0.530158338735084    -1.468641103894096     2.781122444602893
    H               -2.465841661264916     1.595358896105904     1.953122444602892
    H               -0.900841661264916     2.091358896105904     1.344122444602892
    H                1.392408338735084     0.089168896105904     2.928442444602893
    H                1.973858338735083    -1.241741103894096     1.808212444602892
    C                0.883158338735084     0.338358896105904    -2.411877555397107
    C                0.451158338735084     0.534358896105904    -3.870877555397108
    C                1.956158338735084    -0.696641103894096    -2.235877555397107
    H                1.228158338735084     1.277358896105904    -1.987877555397108
    H                0.031158338735084     0.015358896105904    -1.820877555397108
    H                0.138158338735084    -0.427641103894096    -4.282877555397108
    H                2.921158338735084    -0.248641103894096    -2.467877555397108
    H                1.964158338735084    -1.054641103894096    -1.208877555397108
    H                1.763158338735084    -1.504641103894096    -2.936877555397108
    H               -0.415221661264916     1.211958896105904    -3.855086555397107
    H                1.234218338735083     0.950698896105904    -4.521630555397108

}
e, wfn = energy('scf', return_wfn=True)
gdma(wfn)
dmavals = variable('DMA DISTRIBUTED MULTIPOLES')
charges = np.array(dmavals)
print(charges)
np.save('SSI-026ASN-055ILE-1-dimer.npy', np.array(charges))--------------------------------------------------------------------------

*** tstart() called on ds3
*** at Tue Apr 28 08:56:15 2020

   => Loading Basis Set <=

    Name: CC-PVDZ
    Role: ORBITAL
    Keyword: BASIS
    atoms 1-3, 13-15  entry C          line   138 file /theoryfs2/ds/metcalf/miniconda2/envs/tf2gpu/share/psi4/basis/cc-pvdz.gbs
    atoms 4           entry O          line   198 file /theoryfs2/ds/metcalf/miniconda2/envs/tf2gpu/share/psi4/basis/cc-pvdz.gbs
    atoms 5           entry N          line   168 file /theoryfs2/ds/metcalf/miniconda2/envs/tf2gpu/share/psi4/basis/cc-pvdz.gbs
    atoms 6-12, 16-23 entry H          line    22 file /theoryfs2/ds/metcalf/miniconda2/envs/tf2gpu/share/psi4/basis/cc-pvdz.gbs

         ---------------------------------------------------------
                                   SCF
               by Justin Turney, Rob Parrish, Andy Simmonett
                          and Daniel G. A. Smith
                              RHF Reference
                        1 Threads,    500 MiB Core
         ---------------------------------------------------------

  ==> Geometry <==

    Molecular point group: c1
    Full point group: C1

    Geometry (in Angstrom), charge = 0, multiplicity = 1:

       Center              X                  Y                   Z               Mass
    ------------   -----------------  -----------------  -----------------  -----------------
         C            0.233158338735    -0.152641103894     1.128122444603    12.000000000000
         C            1.107158338735    -0.716641103894     2.236122444603    12.000000000000
         C           -1.158841661265     0.104358896106     1.608122444603    12.000000000000
         O           -1.892841661265    -0.821641103894     1.951122444603    15.994914619570
         N           -1.548841661265     1.360358896106     1.618122444603    14.003074004430
         H            0.675158338735     0.754358896106     0.713122444603     1.007825032230
         H            0.151158338735    -0.889641103894     0.330122444603     1.007825032230
         H            0.530158338735    -1.468641103894     2.781122444603     1.007825032230
         H           -2.465841661265     1.595358896106     1.953122444603     1.007825032230
         H           -0.900841661265     2.091358896106     1.344122444603     1.007825032230
         H            1.392408338735     0.089168896106     2.928442444603     1.007825032230
         H            1.973858338735    -1.241741103894     1.808212444603     1.007825032230
         C            0.883158338735     0.338358896106    -2.411877555397    12.000000000000
         C            0.451158338735     0.534358896106    -3.870877555397    12.000000000000
         C            1.956158338735    -0.696641103894    -2.235877555397    12.000000000000
         H            1.228158338735     1.277358896106    -1.987877555397     1.007825032230
         H            0.031158338735     0.015358896106    -1.820877555397     1.007825032230
         H            0.138158338735    -0.427641103894    -4.282877555397     1.007825032230
         H            2.921158338735    -0.248641103894    -2.467877555397     1.007825032230
         H            1.964158338735    -1.054641103894    -1.208877555397     1.007825032230
         H            1.763158338735    -1.504641103894    -2.936877555397     1.007825032230
         H           -0.415221661265     1.211958896106    -3.855086555397     1.007825032230
         H            1.234218338735     0.950698896106    -4.521630555397     1.007825032230

  Running in c1 symmetry.

  Rotational constants: A =      0.08308  B =      0.02258  C =      0.01966 [cm^-1]
  Rotational constants: A =   2490.57423  B =    676.92746  C =    589.47618 [MHz]
  Nuclear repulsion =  373.442243219507247

  Charge       = 0
  Multiplicity = 1
  Electrons    = 66
  Nalpha       = 33
  Nbeta        = 33

  ==> Algorithm <==

  SCF Algorithm Type is PK.
  DIIS enabled.
  MOM disabled.
  Fractional occupation disabled.
  Guess Type is SAD.
  Energy threshold   = 1.00e-06
  Density threshold  = 1.00e-10
  Integral threshold = 0.00e+00

  ==> Primary Basis <==

  Basis Set: CC-PVDZ
    Blend: CC-PVDZ
    Number of shells: 93
    Number of basis function: 187
    Number of Cartesian functions: 195
    Spherical Harmonics?: true
    Max angular momentum: 2

  ==> Pre-Iterations <==

   -------------------------------------------------------
    Irrep   Nso     Nmo     Nalpha   Nbeta   Ndocc  Nsocc
   -------------------------------------------------------
     A        187     187       0       0       0       0
   -------------------------------------------------------
    Total     187     187      33      33      33       0
   -------------------------------------------------------

  ==> Integral Setup <==

  Using integral reordering PK algorithm.
  Sizing the integral batches needed.
  Building batch lookup table.
   Calculation information:
      Number of atoms:                  23
      Number of AO shells:              93
      Number of primitives:            251
      Number of atomic orbitals:       195
      Number of basis functions:       187

      Integral cutoff                 1.00e-12
      Number of threads:                 1

	Batch   1 pq = [       0,    9405] index = [             0,44231715] size =     44231715
	Batch   2 pq = [    9405,   13301] index = [      44231715,88464951] size =     44233236
	Batch   3 pq = [   13301,   16290] index = [      88464951,132690195] size =     44225244
	Batch   4 pq = [   16290,   17578] index = [     132690195,154501831] size =     21811636
  Task number: 14
  Buffer size: 11059200
  Buffer per thread: 2
  We computed 7963759 shell quartets total.
  Whereas there are 9555006 unique shell quartets.

  ==> DiskJK: Disk-Based J/K Matrices <==

    J tasked:                  Yes
    K tasked:                  Yes
    wK tasked:                  No
    Memory [MiB]:              375
    Schwarz Cutoff:          1E-12

    OpenMP threads:              1

  Minimum eigenvalue in the overlap matrix is 3.4845767196E-03.
  Using Symmetric Orthogonalization.

  SCF Guess: Superposition of Atomic Densities via on-the-fly atomic UHF.

  ==> Iterations <==

                        Total Energy        Delta E     RMS |[F,P]|

   @RHF iter SAD:  -364.10517006044267   -3.64105e+02   0.00000e+00
   @RHF iter   1:  -365.00526041916191   -9.00090e-01   3.77073e-03 DIIS
   @RHF iter   2:  -365.23109739506822   -2.25837e-01   2.02212e-03 DIIS
   @RHF iter   3:  -365.28905436743861   -5.79570e-02   4.43555e-04 DIIS
   @RHF iter   4:  -365.29318410987838   -4.12974e-03   1.87856e-04 DIIS
   @RHF iter   5:  -365.29390200320103   -7.17893e-04   2.68248e-05 DIIS
   @RHF iter   6:  -365.29393416868771   -3.21655e-05   1.05343e-05 DIIS
   @RHF iter   7:  -365.29393859154590   -4.42286e-06   4.31774e-06 DIIS
   @RHF iter   8:  -365.29393952044973   -9.28904e-07   1.64432e-06 DIIS
   @RHF iter   9:  -365.29393966254810   -1.42098e-07   4.05107e-07 DIIS
   @RHF iter  10:  -365.29393966933128   -6.78318e-09   1.35163e-07 DIIS
   @RHF iter  11:  -365.29393967004967   -7.18387e-10   3.83103e-08 DIIS
   @RHF iter  12:  -365.29393967010452   -5.48539e-11   1.03157e-08 DIIS
   @RHF iter  13:  -365.29393967011384   -9.32232e-12   3.22481e-09 DIIS
   @RHF iter  14:  -365.29393967011003    3.80851e-12   1.43266e-09 DIIS
   @RHF iter  15:  -365.29393967011310   -3.06954e-12   6.73022e-10 DIIS
   @RHF iter  16:  -365.29393967011208    1.02318e-12   2.05871e-10 DIIS
   @RHF iter  17:  -365.29393967011237   -2.84217e-13   7.46265e-11 DIIS
  Energy and wave function converged.

  ==> Post-Iterations <==

    Orbital Energies [Eh]
    ---------------------

    Doubly Occupied:

       1A    -20.498723     2A    -15.589999     3A    -11.339890
       4A    -11.236366     5A    -11.230075     6A    -11.222932
       7A    -11.221846     8A    -11.216084     9A     -1.365639
      10A     -1.220069    11A     -1.064286    12A     -1.054381
      13A     -0.930880    14A     -0.891127    15A     -0.802068
      16A     -0.789842    17A     -0.725875    18A     -0.669435
      19A     -0.634395    20A     -0.623553    21A     -0.603186
      22A     -0.585037    23A     -0.570222    24A     -0.558457
      25A     -0.535889    26A     -0.518580    27A     -0.506453
      28A     -0.495355    29A     -0.478373    30A     -0.474869
      31A     -0.468462    32A     -0.406269    33A     -0.401278

    Virtual:

      34A      0.154516    35A      0.177481    36A      0.188681
      37A      0.209218    38A      0.224138    39A      0.228099
      40A      0.230174    41A      0.238973    42A      0.253918
      43A      0.259316    44A      0.276640    45A      0.282892
      46A      0.293367    47A      0.310715    48A      0.334062
      49A      0.335494    50A      0.366226    51A      0.388946
      52A      0.427129    53A      0.452712    54A      0.475514
      55A      0.555615    56A      0.581117    57A      0.597249
      58A      0.600232    59A      0.608213    60A      0.623645
      61A      0.633891    62A      0.644630    63A      0.686741
      64A      0.711551    65A      0.736825    66A      0.764416
      67A      0.780084    68A      0.785377    69A      0.807847
      70A      0.841737    71A      0.850462    72A      0.860903
      73A      0.876979    74A      0.885383    75A      0.890349
      76A      0.891126    77A      0.895527    78A      0.901470
      79A      0.911068    80A      0.917131    81A      0.923106
      82A      0.928225    83A      0.946048    84A      0.957183
      85A      0.969409    86A      0.971484    87A      0.998017
      88A      1.007184    89A      1.020517    90A      1.034049
      91A      1.058273    92A      1.111283    93A      1.119774
      94A      1.123265    95A      1.140975    96A      1.215242
      97A      1.308008    98A      1.327438    99A      1.376000
     100A      1.389738   101A      1.402093   102A      1.418633
     103A      1.441864   104A      1.452917   105A      1.474721
     106A      1.486299   107A      1.495717   108A      1.525504
     109A      1.551236   110A      1.637843   111A      1.652349
     112A      1.669157   113A      1.677388   114A      1.685161
     115A      1.708261   116A      1.736119   117A      1.789586
     118A      1.842637   119A      1.855143   120A      1.865472
     121A      1.872682   122A      1.878319   123A      1.882585
     124A      1.900429   125A      1.908333   126A      1.919013
     127A      1.919994   128A      1.932223   129A      1.940762
     130A      1.957672   131A      1.965734   132A      1.972945
     133A      1.977384   134A      1.988820   135A      1.991551
     136A      2.003511   137A      2.020277   138A      2.036265
     139A      2.053118   140A      2.080684   141A      2.095753
     142A      2.104857   143A      2.143888   144A      2.179499
     145A      2.186620   146A      2.238861   147A      2.273621
     148A      2.288134   149A      2.300608   150A      2.333143
     151A      2.335687   152A      2.373056   153A      2.421067
     154A      2.462792   155A      2.473631   156A      2.474868
     157A      2.531201   158A      2.540785   159A      2.552955
     160A      2.570916   161A      2.590281   162A      2.600345
     163A      2.624709   164A      2.632976   165A      2.653318
     166A      2.751327   167A      2.761846   168A      2.774263
     169A      2.781697   170A      2.796390   171A      2.820901
     172A      2.839592   173A      2.854184   174A      2.913481
     175A      2.917928   176A      2.955189   177A      2.966677
     178A      2.977891   179A      3.016239   180A      3.064455
     181A      3.110729   182A      3.138913   183A      3.292379
     184A      3.531288   185A      3.546997   186A      3.878748
     187A      3.918483

    Final Occupation by Irrep:
              A
    DOCC [    33 ]

  @RHF Final Energy:  -365.29393967011237

   => Energetics <=

    Nuclear Repulsion Energy =            373.4422432195072474
    One-Electron Energy =               -1235.6125808979504654
    Two-Electron Energy =                 496.8763980083309093
    Total Energy =                       -365.2939396701123655

Computation Completed

Properties will be evaluated at   0.000000,   0.000000,   0.000000 [a0]

Properties computed using the SCF density matrix

  Nuclear Dipole Moment: [e a0]
     X:     9.5773      Y:     1.0702      Z:   -10.5172

  Electronic Dipole Moment: [e a0]
     X:    -8.8289      Y:     0.3533      Z:    10.1643

  Dipole Moment: [e a0]
     X:     0.7484      Y:     1.4235      Z:    -0.3529     Total:     1.6465

  Dipole Moment: [D]
     X:     1.9022      Y:     3.6182      Z:    -0.8969     Total:     4.1849

*** tstop() called on ds3 at Tue Apr 28 08:57:27 2020
Module time:
	user time   =      50.76 seconds =       0.85 minutes
	system time =      24.78 seconds =       0.41 minutes
	total time  =         72 seconds =       1.20 minutes
Total time:
	user time   =      50.76 seconds =       0.85 minutes
	system time =      24.78 seconds =       0.41 minutes
	total time  =         72 seconds =       1.20 minutes
                                     G D M A

                                 by Anthony Stone

                           version 2.2.06, 22 June 2011

               Distributed Multipoles from Gaussian wavefunctions

Starting at 8:57:27 on 28 Apr 2020

Using SCF density matrix from file ./SSI/SSI-026ASN-055ILE-1-dimer.test.11213.fchk

                         Distributed Multipole Analysis

Standard DMA

Positions and radii in angstrom
Multipole moments in atomic units, ea_0^k for rank k

C          x =  0.233158  y = -0.152641  z =  1.128122 angstrom
           Maximum rank =  0   Radius =  0.650 angstrom
                   Q00  =  -0.114350

C          x =  1.107158  y = -0.716641  z =  2.236122 angstrom
           Maximum rank =  0   Radius =  0.650 angstrom
                   Q00  =  -0.210095

C          x = -1.158842  y =  0.104359  z =  1.608122 angstrom
           Maximum rank =  0   Radius =  0.650 angstrom
                   Q00  =   0.843318

O          x = -1.892842  y = -0.821641  z =  1.951122 angstrom
           Maximum rank =  0   Radius =  0.650 angstrom
                   Q00  =  -0.827584

N          x = -1.548842  y =  1.360359  z =  1.618122 angstrom
           Maximum rank =  0   Radius =  0.650 angstrom
                   Q00  =  -0.517994

H          x =  0.675158  y =  0.754359  z =  0.713122 angstrom
           Maximum rank =  0   Radius =  0.325 angstrom
                   Q00  =   0.038686

H          x =  0.151158  y = -0.889641  z =  0.330122 angstrom
           Maximum rank =  0   Radius =  0.325 angstrom
                   Q00  =   0.098018

H          x =  0.530158  y = -1.468641  z =  2.781122 angstrom
           Maximum rank =  0   Radius =  0.325 angstrom
                   Q00  =   0.108040

H          x = -2.465842  y =  1.595359  z =  1.953122 angstrom
           Maximum rank =  0   Radius =  0.325 angstrom
                   Q00  =   0.217432

H          x = -0.900842  y =  2.091359  z =  1.344122 angstrom
           Maximum rank =  0   Radius =  0.325 angstrom
                   Q00  =   0.204850

H          x =  1.392408  y =  0.089169  z =  2.928442 angstrom
           Maximum rank =  0   Radius =  0.325 angstrom
                   Q00  =   0.074274

H          x =  1.973858  y = -1.241741  z =  1.808212 angstrom
           Maximum rank =  0   Radius =  0.325 angstrom
                   Q00  =   0.088253

C          x =  0.883158  y =  0.338359  z = -2.411878 angstrom
           Maximum rank =  0   Radius =  0.650 angstrom
                   Q00  =  -0.102892

C          x =  0.451158  y =  0.534359  z = -3.870878 angstrom
           Maximum rank =  0   Radius =  0.650 angstrom
                   Q00  =  -0.243668

C          x =  1.956158  y = -0.696641  z = -2.235878 angstrom
           Maximum rank =  0   Radius =  0.650 angstrom
                   Q00  =  -0.219096

H          x =  1.228158  y =  1.277359  z = -1.987878 angstrom
           Maximum rank =  0   Radius =  0.325 angstrom
                   Q00  =   0.039489

H          x =  0.031158  y =  0.015359  z = -1.820878 angstrom
           Maximum rank =  0   Radius =  0.325 angstrom
                   Q00  =   0.045383

H          x =  0.138158  y = -0.427641  z = -4.282878 angstrom
           Maximum rank =  0   Radius =  0.325 angstrom
                   Q00  =   0.081057

H          x =  2.921158  y = -0.248641  z = -2.467878 angstrom
           Maximum rank =  0   Radius =  0.325 angstrom
                   Q00  =   0.074437

H          x =  1.964158  y = -1.054641  z = -1.208878 angstrom
           Maximum rank =  0   Radius =  0.325 angstrom
                   Q00  =   0.084554

H          x =  1.763158  y = -1.504641  z = -2.936878 angstrom
           Maximum rank =  0   Radius =  0.325 angstrom
                   Q00  =   0.074851

H          x = -0.415222  y =  1.211959  z = -3.855087 angstrom
           Maximum rank =  0   Radius =  0.325 angstrom
                   Q00  =   0.082072

H          x =  1.234218  y =  0.950699  z = -4.521631 angstrom
           Maximum rank =  0   Radius =  0.325 angstrom
                   Q00  =   0.080966

Total multipoles referred to origin at
           x =   0.000000,  y =    0.000000,  z =    0.000000 angstrom
                   Q00  =  -0.000000

Finished at 8:57:27 on 28 Apr 2020

  DMA results are available in the Python driver through the
	  variable('DMA DISTRIBUTED MULTIPOLES')
  and
	  variable('DMA TOTAL MULTIPOLES')
  commands.

    Psi4 stopped on: Tuesday, 28 April 2020 08:57AM
    Psi4 wall time for execution: 0:01:12.79

*** Psi4 exiting successfully. Buy a developer a beer!
