                               Psi4 1.3.2 release

  ==> Input File <==

--------------------------------------------------------------------------
import numpy as np
set {scf_type pk
basis cc-pvdz
d_convergence 10
gdma_switch   0
gdma_limit    0
gdma_origin   [ 0.0,  0.0,  0.0 ]
}
molecule test {
    units Angstrom
    0 1
    --
    0 1
    C                2.533182540617658    -0.215256234480898     1.951338363230527
    C                3.896182540617657    -0.380256234480898     1.281338363230527
    H                2.617182540617657     0.320743765519102     2.890338363230527
    H                1.893182540617657     0.375743765519102     1.297338363230527
    H                2.066182540617657    -1.184256234480898     2.105338363230527
    H                4.352182540617658     0.603743765519102     1.174338363230527
    H                4.550492540617658    -1.014436234480898     1.897538363230527
    H                3.778342540617658    -0.806796234480898     0.274278363230527
    C               -1.258817459382342     0.391743765519102     2.199338363230527
    C               -2.762817459382342     0.283743765519102     2.458338363230527
    C               -0.850817459382343     0.723743765519102     0.804338363230527
    C               -0.650817459382343     1.969743765519102     0.290338363230527
    C               -0.549817459382343    -0.205256234480898    -0.259661636769473
    C               -0.176817459382343     0.561743765519102    -1.391661636769473
    C               -0.543817459382343    -1.607256234480898    -0.371661636769473
    C                0.158182540617657    -0.016256234480898    -2.608661636769473
    C               -0.208817459382343    -2.182256234480898    -1.589661636769473
    C                0.129182540617657    -1.397256234480898    -2.694661636769473
    N               -0.269817459382343     1.880743765519102    -1.025661636769473
    H               -0.853817459382343     1.167743765519102     2.850338363230527
    H               -0.778817459382343    -0.546256234480898     2.480338363230527
    H               -3.230817459382342     1.218743765519102     2.149338363230527
    H               -0.787817459382343     2.894743765519102     0.840338363230527
    H               -0.099817459382343     2.679743765519102    -1.624661636769473
    H               -0.796817459382343    -2.221256234480898     0.479338363230527
    H                0.418182540617657     0.594743765519102    -3.460661636769473
    H               -0.198817459382343    -3.259256234480898    -1.687661636769473
    H                0.368182540617657    -1.875256234480898    -3.633661636769473
    H               -2.935267459382342     0.129363765519102     3.533708363230527
    H               -3.209917459382343    -0.525766234480898     1.862688363230527

}
e, wfn = energy('scf', return_wfn=True)
gdma(wfn)
dmavals = variable('DMA DISTRIBUTED MULTIPOLES')
charges = np.array(dmavals)
print(charges)
np.save('SSI-105LEU-114TRP-1-dimer.npy', np.array(charges))--------------------------------------------------------------------------

*** tstart() called on ds3
*** at Mon Apr 27 17:48:12 2020

   => Loading Basis Set <=

    Name: CC-PVDZ
    Role: ORBITAL
    Keyword: BASIS
    atoms 1-2, 9-18  entry C          line   138 file /theoryfs2/ds/metcalf/miniconda2/envs/tf2gpu/share/psi4/basis/cc-pvdz.gbs
    atoms 3-8, 20-30 entry H          line    22 file /theoryfs2/ds/metcalf/miniconda2/envs/tf2gpu/share/psi4/basis/cc-pvdz.gbs
    atoms 19         entry N          line   168 file /theoryfs2/ds/metcalf/miniconda2/envs/tf2gpu/share/psi4/basis/cc-pvdz.gbs

         ---------------------------------------------------------
                                   SCF
               by Justin Turney, Rob Parrish, Andy Simmonett
                          and Daniel G. A. Smith
                              RHF Reference
                        1 Threads,    500 MiB Core
         ---------------------------------------------------------

  ==> Geometry <==

    Molecular point group: c1
    Full point group: C1

    Geometry (in Angstrom), charge = 0, multiplicity = 1:

       Center              X                  Y                   Z               Mass
    ------------   -----------------  -----------------  -----------------  -----------------
         C            2.533182540618    -0.215256234481     1.951338363231    12.000000000000
         C            3.896182540618    -0.380256234481     1.281338363231    12.000000000000
         H            2.617182540618     0.320743765519     2.890338363231     1.007825032230
         H            1.893182540618     0.375743765519     1.297338363231     1.007825032230
         H            2.066182540618    -1.184256234481     2.105338363231     1.007825032230
         H            4.352182540618     0.603743765519     1.174338363231     1.007825032230
         H            4.550492540618    -1.014436234481     1.897538363231     1.007825032230
         H            3.778342540618    -0.806796234481     0.274278363231     1.007825032230
         C           -1.258817459382     0.391743765519     2.199338363231    12.000000000000
         C           -2.762817459382     0.283743765519     2.458338363231    12.000000000000
         C           -0.850817459382     0.723743765519     0.804338363231    12.000000000000
         C           -0.650817459382     1.969743765519     0.290338363231    12.000000000000
         C           -0.549817459382    -0.205256234481    -0.259661636769    12.000000000000
         C           -0.176817459382     0.561743765519    -1.391661636769    12.000000000000
         C           -0.543817459382    -1.607256234481    -0.371661636769    12.000000000000
         C            0.158182540618    -0.016256234481    -2.608661636769    12.000000000000
         C           -0.208817459382    -2.182256234481    -1.589661636769    12.000000000000
         C            0.129182540618    -1.397256234481    -2.694661636769    12.000000000000
         N           -0.269817459382     1.880743765519    -1.025661636769    14.003074004430
         H           -0.853817459382     1.167743765519     2.850338363231     1.007825032230
         H           -0.778817459382    -0.546256234481     2.480338363231     1.007825032230
         H           -3.230817459382     1.218743765519     2.149338363231     1.007825032230
         H           -0.787817459382     2.894743765519     0.840338363231     1.007825032230
         H           -0.099817459382     2.679743765519    -1.624661636769     1.007825032230
         H           -0.796817459382    -2.221256234481     0.479338363231     1.007825032230
         H            0.418182540618     0.594743765519    -3.460661636769     1.007825032230
         H           -0.198817459382    -3.259256234481    -1.687661636769     1.007825032230
         H            0.368182540618    -1.875256234481    -3.633661636769     1.007825032230
         H           -2.935267459382     0.129363765519     3.533708363231     1.007825032230
         H           -3.209917459382    -0.525766234481     1.862688363231     1.007825032230

  Running in c1 symmetry.

  Rotational constants: A =      0.02322  B =      0.02134  C =      0.01579 [cm^-1]
  Rotational constants: A =    696.19502  B =    639.74587  C =    473.49471 [MHz]
  Nuclear repulsion =  765.402185290659418

  Charge       = 0
  Multiplicity = 1
  Electrons    = 96
  Nalpha       = 48
  Nbeta        = 48

  ==> Algorithm <==

  SCF Algorithm Type is PK.
  DIIS enabled.
  MOM disabled.
  Fractional occupation disabled.
  Guess Type is SAD.
  Energy threshold   = 1.00e-06
  Density threshold  = 1.00e-10
  Integral threshold = 0.00e+00

  ==> Primary Basis <==

  Basis Set: CC-PVDZ
    Blend: CC-PVDZ
    Number of shells: 129
    Number of basis function: 267
    Number of Cartesian functions: 280
    Spherical Harmonics?: true
    Max angular momentum: 2

  ==> Pre-Iterations <==

   -------------------------------------------------------
    Irrep   Nso     Nmo     Nalpha   Nbeta   Ndocc  Nsocc
   -------------------------------------------------------
     A        267     267       0       0       0       0
   -------------------------------------------------------
    Total     267     267      48      48      48       0
   -------------------------------------------------------

  ==> Integral Setup <==

  Using integral reordering PK algorithm.
  Sizing the integral batches needed.
  Building batch lookup table.
   Calculation information:
      Number of atoms:                  30
      Number of AO shells:             129
      Number of primitives:            371
      Number of atomic orbitals:       280
      Number of basis functions:       267

      Integral cutoff                 1.00e-12
      Number of threads:                 1

	Batch   1 pq = [       0,    9405] index = [             0,44231715] size =     44231715
	Batch   2 pq = [    9405,   13301] index = [      44231715,88464951] size =     44233236
	Batch   3 pq = [   13301,   16290] index = [      88464951,132690195] size =     44225244
	Batch   4 pq = [   16290,   18810] index = [     132690195,176917455] size =     44227260
	Batch   5 pq = [   18810,   21030] index = [     176917455,221140965] size =     44223510
	Batch   6 pq = [   21030,   23037] index = [     221140965,265363203] size =     44222238
	Batch   7 pq = [   23037,   24883] index = [     265363203,309594286] size =     44231083
	Batch   8 pq = [   24883,   26601] index = [     309594286,353819901] size =     44225615
	Batch   9 pq = [   26601,   28214] index = [     353819901,398029005] size =     44209104
	Batch  10 pq = [   28214,   29740] index = [     398029005,442248670] size =     44219665
	Batch  11 pq = [   29740,   31191] index = [     442248670,486454836] size =     44206166
	Batch  12 pq = [   31191,   32578] index = [     486454836,530679331] size =     44224495
	Batch  13 pq = [   32578,   33908] index = [     530679331,574893186] size =     44213855
	Batch  14 pq = [   33908,   35188] index = [     574893186,619115266] size =     44222080
	Batch  15 pq = [   35188,   35778] index = [     619115266,640050531] size =     20935265
  Task number: 58
  Buffer size: 11059200
  Buffer per thread: 2
  We computed 37908741 shell quartets total.
  Whereas there are 35158305 unique shell quartets.
     7.82 percent of shell quartets recomputed by reordering.

  ==> DiskJK: Disk-Based J/K Matrices <==

    J tasked:                  Yes
    K tasked:                  Yes
    wK tasked:                  No
    Memory [MiB]:              375
    Schwarz Cutoff:          1E-12

    OpenMP threads:              1

  Minimum eigenvalue in the overlap matrix is 2.3500349679E-04.
  Using Symmetric Orthogonalization.

  SCF Guess: Superposition of Atomic Densities via on-the-fly atomic UHF.

  ==> Iterations <==

                        Total Energy        Delta E     RMS |[F,P]|

   @RHF iter SAD:  -518.04909788143732   -5.18049e+02   0.00000e+00
   @RHF iter   1:  -518.49506190610384   -4.45964e-01   2.50130e-03 DIIS
   @RHF iter   2:  -518.75174215518791   -2.56680e-01   1.12997e-03 DIIS
   @RHF iter   3:  -518.79963533311764   -4.78932e-02   2.95839e-04 DIIS
   @RHF iter   4:  -518.80394907221489   -4.31374e-03   1.38886e-04 DIIS
   @RHF iter   5:  -518.80472008697939   -7.71015e-04   1.89876e-05 DIIS
   @RHF iter   6:  -518.80475137175881   -3.12848e-05   8.60753e-06 DIIS
   @RHF iter   7:  -518.80475745943500   -6.08768e-06   3.62799e-06 DIIS
   @RHF iter   8:  -518.80475920101549   -1.74158e-06   1.43943e-06 DIIS
   @RHF iter   9:  -518.80475957947556   -3.78460e-07   6.37043e-07 DIIS
   @RHF iter  10:  -518.80475965296648   -7.34909e-08   2.96453e-07 DIIS
   @RHF iter  11:  -518.80475967011625   -1.71498e-08   1.13241e-07 DIIS
   @RHF iter  12:  -518.80475967272457   -2.60832e-09   4.50510e-08 DIIS
   @RHF iter  13:  -518.80475967295433   -2.29761e-10   1.41440e-08 DIIS
   @RHF iter  14:  -518.80475967298059   -2.62617e-11   4.42889e-09 DIIS
   @RHF iter  15:  -518.80475967297446    6.13909e-12   1.89115e-09 DIIS
   @RHF iter  16:  -518.80475967296718    7.27596e-12   8.64684e-10 DIIS
   @RHF iter  17:  -518.80475967297730   -1.01181e-11   4.21763e-10 DIIS
   @RHF iter  18:  -518.80475967297116    6.13909e-12   1.62617e-10 DIIS
   @RHF iter  19:  -518.80475967296843    2.72848e-12   6.11584e-11 DIIS
  Energy and wave function converged.

  ==> Post-Iterations <==

    Orbital Energies [Eh]
    ---------------------

    Doubly Occupied:

       1A    -15.602055     2A    -11.264882     3A    -11.264045
       4A    -11.231556     5A    -11.230905     6A    -11.228799
       7A    -11.224980     8A    -11.222034     9A    -11.221093
      10A    -11.218287    11A    -11.215208    12A    -11.209256
      13A    -11.202441    14A     -1.295819    15A     -1.129887
      16A     -1.082871    17A     -1.014706    18A     -1.007470
      19A     -0.994820    20A     -0.967742    21A     -0.857937
      22A     -0.839660    23A     -0.826260    24A     -0.803786
      25A     -0.747124    26A     -0.719363    27A     -0.664388
      28A     -0.644739    29A     -0.615232    30A     -0.595994
      31A     -0.591393    32A     -0.588345    33A     -0.585565
      34A     -0.584101    35A     -0.575368    36A     -0.544627
      37A     -0.516747    38A     -0.507745    39A     -0.501197
      40A     -0.489366    41A     -0.479030    42A     -0.475477
      43A     -0.472903    44A     -0.464996    45A     -0.460327
      46A     -0.370861    47A     -0.297083    48A     -0.275250

    Virtual:

      49A      0.123696    50A      0.169147    51A      0.174578
      52A      0.181084    53A      0.197378    54A      0.201814
      55A      0.217158    56A      0.219516    57A      0.229635
      58A      0.238289    59A      0.254606    60A      0.262972
      61A      0.265913    62A      0.270105    63A      0.280486
      64A      0.284362    65A      0.290942    66A      0.301279
      67A      0.312432    68A      0.316672    69A      0.377465
      70A      0.386679    71A      0.397916    72A      0.410695
      73A      0.425036    74A      0.432704    75A      0.447213
      76A      0.472730    77A      0.487067    78A      0.512165
      79A      0.519220    80A      0.578222    81A      0.593745
      82A      0.601386    83A      0.606666    84A      0.610524
      85A      0.626692    86A      0.644267    87A      0.654222
      88A      0.666518    89A      0.671275    90A      0.688141
      91A      0.698962    92A      0.705805    93A      0.723030
      94A      0.725621    95A      0.738041    96A      0.742192
      97A      0.747419    98A      0.758005    99A      0.761995
     100A      0.775400   101A      0.792137   102A      0.795502
     103A      0.812992   104A      0.833530   105A      0.847392
     106A      0.868265   107A      0.877604   108A      0.879119
     109A      0.889604   110A      0.892828   111A      0.899953
     112A      0.903926   113A      0.905499   114A      0.909948
     115A      0.923351   116A      0.925120   117A      0.930068
     118A      0.936284   119A      0.940410   120A      0.952532
     121A      0.957749   122A      0.975528   123A      0.979957
     124A      0.985462   125A      0.997374   126A      1.006359
     127A      1.039469   128A      1.054244   129A      1.073788
     130A      1.090743   131A      1.107784   132A      1.129875
     133A      1.134979   134A      1.136918   135A      1.145419
     136A      1.148773   137A      1.163662   138A      1.173045
     139A      1.204347   140A      1.216543   141A      1.228246
     142A      1.236700   143A      1.253352   144A      1.270801
     145A      1.281194   146A      1.285508   147A      1.302540
     148A      1.329131   149A      1.331511   150A      1.360332
     151A      1.368953   152A      1.386284   153A      1.426475
     154A      1.430732   155A      1.460991   156A      1.489042
     157A      1.496058   158A      1.514004   159A      1.550387
     160A      1.579189   161A      1.600123   162A      1.608634
     163A      1.638235   164A      1.645719   165A      1.658754
     166A      1.691348   167A      1.691416   168A      1.707194
     169A      1.727829   170A      1.743756   171A      1.757157
     172A      1.771542   173A      1.785836   174A      1.799804
     175A      1.828464   176A      1.852839   177A      1.868295
     178A      1.876705   179A      1.882629   180A      1.887998
     181A      1.890941   182A      1.894701   183A      1.900778
     184A      1.912403   185A      1.918357   186A      1.925835
     187A      1.942625   188A      1.945913   189A      1.954397
     190A      1.959397   191A      1.967387   192A      1.968842
     193A      1.973199   194A      1.974873   195A      1.981790
     196A      1.992178   197A      2.001134   198A      2.013296
     199A      2.023866   200A      2.029949   201A      2.055456
     202A      2.074883   203A      2.089947   204A      2.098206
     205A      2.102512   206A      2.103887   207A      2.119889
     208A      2.126967   209A      2.131892   210A      2.154516
     211A      2.164739   212A      2.167500   213A      2.172499
     214A      2.177377   215A      2.226604   216A      2.260040
     217A      2.272855   218A      2.291002   219A      2.308053
     220A      2.317947   221A      2.325611   222A      2.343836
     223A      2.349598   224A      2.373545   225A      2.386646
     226A      2.406453   227A      2.455831   228A      2.467137
     229A      2.475863   230A      2.485363   231A      2.512488
     232A      2.550334   233A      2.572201   234A      2.578028
     235A      2.590537   236A      2.594740   237A      2.611211
     238A      2.641032   239A      2.679043   240A      2.708530
     241A      2.711234   242A      2.767443   243A      2.771370
     244A      2.774626   245A      2.786185   246A      2.799777
     247A      2.811994   248A      2.825496   249A      2.836705
     250A      2.868730   251A      2.873760   252A      2.900081
     253A      2.914123   254A      2.924362   255A      2.958906
     256A      2.970875   257A      2.980535   258A      3.009141
     259A      3.058898   260A      3.081876   261A      3.105050
     262A      3.135819   263A      3.214051   264A      3.310647
     265A      3.385908   266A      3.749665   267A      3.953290

    Final Occupation by Irrep:
              A
    DOCC [    48 ]

  @RHF Final Energy:  -518.80475967296843

   => Energetics <=

    Nuclear Repulsion Energy =            765.4021852906594177
    One-Electron Energy =               -2220.5664508666432084
    Two-Electron Energy =                 936.3595059030153607
    Total Energy =                       -518.8047596729684301

Computation Completed

Properties will be evaluated at   0.000000,   0.000000,   0.000000 [a0]

Properties computed using the SCF density matrix

  Nuclear Dipole Moment: [e a0]
     X:     6.7056      Y:    -1.3629      Z:    12.5919

  Electronic Dipole Moment: [e a0]
     X:    -6.7342      Y:     2.1842      Z:   -12.7411

  Dipole Moment: [e a0]
     X:    -0.0286      Y:     0.8214      Z:    -0.1493     Total:     0.8353

  Dipole Moment: [D]
     X:    -0.0726      Y:     2.0877      Z:    -0.3794     Total:     2.1231

*** tstop() called on ds3 at Mon Apr 27 17:58:10 2020
Module time:
	user time   =     300.50 seconds =       5.01 minutes
	system time =     106.14 seconds =       1.77 minutes
	total time  =        598 seconds =       9.97 minutes
Total time:
	user time   =     300.50 seconds =       5.01 minutes
	system time =     106.14 seconds =       1.77 minutes
	total time  =        598 seconds =       9.97 minutes
                                     G D M A

                                 by Anthony Stone

                           version 2.2.06, 22 June 2011

               Distributed Multipoles from Gaussian wavefunctions

Starting at 17:58:10 on 27 Apr 2020

Using SCF density matrix from file ./SSI/SSI-105LEU-114TRP-1-dimer.test.8467.fchk

                         Distributed Multipole Analysis

Standard DMA

Positions and radii in angstrom
Multipole moments in atomic units, ea_0^k for rank k

C          x =  2.533183  y = -0.215256  z =  1.951338 angstrom
           Maximum rank =  0   Radius =  0.650 angstrom
                   Q00  =  -0.246618

C          x =  3.896183  y = -0.380256  z =  1.281338 angstrom
           Maximum rank =  0   Radius =  0.650 angstrom
                   Q00  =  -0.230124

H          x =  2.617183  y =  0.320744  z =  2.890338 angstrom
           Maximum rank =  0   Radius =  0.325 angstrom
                   Q00  =   0.071080

H          x =  1.893183  y =  0.375744  z =  1.297338 angstrom
           Maximum rank =  0   Radius =  0.325 angstrom
                   Q00  =   0.090651

H          x =  2.066183  y = -1.184256  z =  2.105338 angstrom
           Maximum rank =  0   Radius =  0.325 angstrom
                   Q00  =   0.076900

H          x =  4.352183  y =  0.603744  z =  1.174338 angstrom
           Maximum rank =  0   Radius =  0.325 angstrom
                   Q00  =   0.073298

H          x =  4.550493  y = -1.014436  z =  1.897538 angstrom
           Maximum rank =  0   Radius =  0.325 angstrom
                   Q00  =   0.073400

H          x =  3.778343  y = -0.806796  z =  0.274278 angstrom
           Maximum rank =  0   Radius =  0.325 angstrom
                   Q00  =   0.084027

C          x = -1.258817  y =  0.391744  z =  2.199338 angstrom
           Maximum rank =  0   Radius =  0.650 angstrom
                   Q00  =  -0.051499

C          x = -2.762817  y =  0.283744  z =  2.458338 angstrom
           Maximum rank =  0   Radius =  0.650 angstrom
                   Q00  =  -0.232079

C          x = -0.850817  y =  0.723744  z =  0.804338 angstrom
           Maximum rank =  0   Radius =  0.650 angstrom
                   Q00  =  -0.126001

C          x = -0.650817  y =  1.969744  z =  0.290338 angstrom
           Maximum rank =  0   Radius =  0.650 angstrom
                   Q00  =   0.069990

C          x = -0.549817  y = -0.205256  z = -0.259662 angstrom
           Maximum rank =  0   Radius =  0.650 angstrom
                   Q00  =  -0.046797

C          x = -0.176817  y =  0.561744  z = -1.391662 angstrom
           Maximum rank =  0   Radius =  0.650 angstrom
                   Q00  =   0.263242

C          x = -0.543817  y = -1.607256  z = -0.371662 angstrom
           Maximum rank =  0   Radius =  0.650 angstrom
                   Q00  =  -0.098668

C          x =  0.158183  y = -0.016256  z = -2.608662 angstrom
           Maximum rank =  0   Radius =  0.650 angstrom
                   Q00  =  -0.118172

C          x = -0.208817  y = -2.182256  z = -1.589662 angstrom
           Maximum rank =  0   Radius =  0.650 angstrom
                   Q00  =  -0.056611

C          x =  0.129183  y = -1.397256  z = -2.694662 angstrom
           Maximum rank =  0   Radius =  0.650 angstrom
                   Q00  =  -0.067143

N          x = -0.269817  y =  1.880744  z = -1.025662 angstrom
           Maximum rank =  0   Radius =  0.650 angstrom
                   Q00  =  -0.498314

H          x = -0.853817  y =  1.167744  z =  2.850338 angstrom
           Maximum rank =  0   Radius =  0.325 angstrom
                   Q00  =   0.068708

H          x = -0.778817  y = -0.546256  z =  2.480338 angstrom
           Maximum rank =  0   Radius =  0.325 angstrom
                   Q00  =   0.072600

H          x = -3.230817  y =  1.218744  z =  2.149338 angstrom
           Maximum rank =  0   Radius =  0.325 angstrom
                   Q00  =   0.077750

H          x = -0.787817  y =  2.894744  z =  0.840338 angstrom
           Maximum rank =  0   Radius =  0.325 angstrom
                   Q00  =   0.101605

H          x = -0.099817  y =  2.679744  z = -1.624662 angstrom
           Maximum rank =  0   Radius =  0.325 angstrom
                   Q00  =   0.216326

H          x = -0.796817  y = -2.221256  z =  0.479338 angstrom
           Maximum rank =  0   Radius =  0.325 angstrom
                   Q00  =   0.069656

H          x =  0.418183  y =  0.594744  z = -3.460662 angstrom
           Maximum rank =  0   Radius =  0.325 angstrom
                   Q00  =   0.073491

H          x = -0.198817  y = -3.259256  z = -1.687662 angstrom
           Maximum rank =  0   Radius =  0.325 angstrom
                   Q00  =   0.059334

H          x =  0.368183  y = -1.875256  z = -3.633662 angstrom
           Maximum rank =  0   Radius =  0.325 angstrom
                   Q00  =   0.064211

H          x = -2.935267  y =  0.129364  z =  3.533708 angstrom
           Maximum rank =  0   Radius =  0.325 angstrom
                   Q00  =   0.080414

H          x = -3.209917  y = -0.525766  z =  1.862688 angstrom
           Maximum rank =  0   Radius =  0.325 angstrom
                   Q00  =   0.085344

Total multipoles referred to origin at
           x =   0.000000,  y =    0.000000,  z =    0.000000 angstrom
                   Q00  =  -0.000000

Finished at 17:58:10 on 27 Apr 2020

  DMA results are available in the Python driver through the
	  variable('DMA DISTRIBUTED MULTIPOLES')
  and
	  variable('DMA TOTAL MULTIPOLES')
  commands.

    Psi4 stopped on: Monday, 27 April 2020 05:58PM
    Psi4 wall time for execution: 0:09:57.55

*** Psi4 exiting successfully. Buy a developer a beer!
