                               Psi4 1.3.2 release

  ==> Input File <==

--------------------------------------------------------------------------
import numpy as np
set {scf_type pk
basis cc-pvdz
d_convergence 10
gdma_switch   0
gdma_limit    0
gdma_origin   [ 0.0,  0.0,  0.0 ]
}
molecule test {
    units Angstrom
    0 1
    --
    0 1
    C               -0.255420704045800    -0.984326124029881    -1.220258984718215
    C                1.265579295954200    -0.874326124029881    -1.331258984718215
    C               -0.913420704045800    -1.318326124029881    -2.543258984718215
    H               -0.481420704045800    -1.773326124029881    -0.503258984718215
    H               -0.664420704045800    -0.054326124029881    -0.830258984718215
    H                1.660579295954200    -1.846326124029881    -1.632258984718215
    H                1.670579295954200    -0.644326124029881    -0.344258984718215
    H               -0.912420704045800    -0.431326124029881    -3.180258984718215
    H               -0.327420704045800    -2.095326124029881    -3.039258984718215
    H                1.601269295954200    -0.114196124029881    -2.052026984718215
    H               -1.945853704045800    -1.683656124029881    -2.440234984718215
    C                0.253579295954200     1.286673875970119     1.870741015281785
    C               -0.376420704045800     1.834673875970119     3.139741015281786
    H               -0.130420704045800     1.821673875970119     1.002741015281785
    H                1.338579295954200     1.384673875970119     1.925741015281785
    H                0.023579295954200     0.232673875970119     1.755741015281785
    H                0.011579295954200     1.265673875970119     3.969741015281785
    H               -1.469926704045800     1.717593875970119     3.116613015281785
    H               -0.063471704045800     2.882903875970120     3.254924015281786

}
e, wfn = energy('scf', return_wfn=True)
gdma(wfn)
dmavals = variable('DMA DISTRIBUTED MULTIPOLES')
charges = np.array(dmavals)
print(charges)
np.save('SSI-049LYS-121LEU-1-dimer.npy', np.array(charges))--------------------------------------------------------------------------

*** tstart() called on ds3
*** at Mon Apr 27 21:46:26 2020

   => Loading Basis Set <=

    Name: CC-PVDZ
    Role: ORBITAL
    Keyword: BASIS
    atoms 1-3, 12-13  entry C          line   138 file /theoryfs2/ds/metcalf/miniconda2/envs/tf2gpu/share/psi4/basis/cc-pvdz.gbs
    atoms 4-11, 14-19 entry H          line    22 file /theoryfs2/ds/metcalf/miniconda2/envs/tf2gpu/share/psi4/basis/cc-pvdz.gbs

         ---------------------------------------------------------
                                   SCF
               by Justin Turney, Rob Parrish, Andy Simmonett
                          and Daniel G. A. Smith
                              RHF Reference
                        1 Threads,    500 MiB Core
         ---------------------------------------------------------

  ==> Geometry <==

    Molecular point group: c1
    Full point group: C1

    Geometry (in Angstrom), charge = 0, multiplicity = 1:

       Center              X                  Y                   Z               Mass
    ------------   -----------------  -----------------  -----------------  -----------------
         C           -0.255420704046    -0.984326124030    -1.220258984718    12.000000000000
         C            1.265579295954    -0.874326124030    -1.331258984718    12.000000000000
         C           -0.913420704046    -1.318326124030    -2.543258984718    12.000000000000
         H           -0.481420704046    -1.773326124030    -0.503258984718     1.007825032230
         H           -0.664420704046    -0.054326124030    -0.830258984718     1.007825032230
         H            1.660579295954    -1.846326124030    -1.632258984718     1.007825032230
         H            1.670579295954    -0.644326124030    -0.344258984718     1.007825032230
         H           -0.912420704046    -0.431326124030    -3.180258984718     1.007825032230
         H           -0.327420704046    -2.095326124030    -3.039258984718     1.007825032230
         H            1.601269295954    -0.114196124030    -2.052026984718     1.007825032230
         H           -1.945853704046    -1.683656124030    -2.440234984718     1.007825032230
         C            0.253579295954     1.286673875970     1.870741015282    12.000000000000
         C           -0.376420704046     1.834673875970     3.139741015282    12.000000000000
         H           -0.130420704046     1.821673875970     1.002741015282     1.007825032230
         H            1.338579295954     1.384673875970     1.925741015282     1.007825032230
         H            0.023579295954     0.232673875970     1.755741015282     1.007825032230
         H            0.011579295954     1.265673875970     3.969741015282     1.007825032230
         H           -1.469926704046     1.717593875970     3.116613015282     1.007825032230
         H           -0.063471704046     2.882903875970     3.254924015282     1.007825032230

  Running in c1 symmetry.

  Rotational constants: A =      0.28264  B =      0.03445  C =      0.03180 [cm^-1]
  Rotational constants: A =   8473.24248  B =   1032.68864  C =    953.29663 [MHz]
  Nuclear repulsion =  175.857573252601611

  Charge       = 0
  Multiplicity = 1
  Electrons    = 44
  Nalpha       = 22
  Nbeta        = 22

  ==> Algorithm <==

  SCF Algorithm Type is PK.
  DIIS enabled.
  MOM disabled.
  Fractional occupation disabled.
  Guess Type is SAD.
  Energy threshold   = 1.00e-06
  Density threshold  = 1.00e-10
  Integral threshold = 0.00e+00

  ==> Primary Basis <==

  Basis Set: CC-PVDZ
    Blend: CC-PVDZ
    Number of shells: 72
    Number of basis function: 140
    Number of Cartesian functions: 145
    Spherical Harmonics?: true
    Max angular momentum: 2

  ==> Pre-Iterations <==

   -------------------------------------------------------
    Irrep   Nso     Nmo     Nalpha   Nbeta   Ndocc  Nsocc
   -------------------------------------------------------
     A        140     140       0       0       0       0
   -------------------------------------------------------
    Total     140     140      22      22      22       0
   -------------------------------------------------------

  ==> Integral Setup <==

  Using integral reordering PK algorithm.
  Sizing the integral batches needed.
  Building batch lookup table.
   Calculation information:
      Number of atoms:                  19
      Number of AO shells:              72
      Number of primitives:            180
      Number of atomic orbitals:       145
      Number of basis functions:       140

      Integral cutoff                 1.00e-12
      Number of threads:                 1

	Batch   1 pq = [       0,    9405] index = [             0,44231715] size =     44231715
	Batch   2 pq = [    9405,    9870] index = [      44231715,48713385] size =      4481670
  Task number: 5
  Buffer size: 11059200
  Buffer per thread: 2
  We computed 2690948 shell quartets total.
  Whereas there are 3454506 unique shell quartets.

  ==> DiskJK: Disk-Based J/K Matrices <==

    J tasked:                  Yes
    K tasked:                  Yes
    wK tasked:                  No
    Memory [MiB]:              375
    Schwarz Cutoff:          1E-12

    OpenMP threads:              1

  Minimum eigenvalue in the overlap matrix is 5.3029414523E-03.
  Using Symmetric Orthogonalization.

  SCF Guess: Superposition of Atomic Densities via on-the-fly atomic UHF.

  ==> Iterations <==

                        Total Energy        Delta E     RMS |[F,P]|

   @RHF iter SAD:  -196.40461670289992   -1.96405e+02   0.00000e+00
   @RHF iter   1:  -197.30900329488284   -9.04387e-01   3.83726e-03 DIIS
   @RHF iter   2:  -197.47086626146987   -1.61863e-01   1.66419e-03 DIIS
   @RHF iter   3:  -197.50001726181361   -2.91510e-02   3.27743e-04 DIIS
   @RHF iter   4:  -197.50226445659945   -2.24719e-03   4.95864e-05 DIIS
   @RHF iter   5:  -197.50230470641560   -4.02498e-05   1.50223e-05 DIIS
   @RHF iter   6:  -197.50230814808199   -3.44167e-06   2.45412e-06 DIIS
   @RHF iter   7:  -197.50230825498977   -1.06908e-07   4.46896e-07 DIIS
   @RHF iter   8:  -197.50230825891074   -3.92097e-09   1.10680e-07 DIIS
   @RHF iter   9:  -197.50230825913658   -2.25839e-10   3.36421e-08 DIIS
   @RHF iter  10:  -197.50230825916114   -2.45564e-11   7.22853e-09 DIIS
   @RHF iter  11:  -197.50230825916330   -2.16005e-12   1.41478e-09 DIIS
   @RHF iter  12:  -197.50230825916293    3.69482e-13   2.74106e-10 DIIS
   @RHF iter  13:  -197.50230825916302   -8.52651e-14   6.01217e-11 DIIS
  Energy and wave function converged.

  ==> Post-Iterations <==

    Orbital Energies [Eh]
    ---------------------

    Doubly Occupied:

       1A    -11.217603     2A    -11.217443     3A    -11.215590
       4A    -11.215199     5A    -11.214288     6A     -1.054975
       7A     -1.022203     8A     -0.923450     9A     -0.836283
      10A     -0.796156    11A     -0.626201    12A     -0.602022
      13A     -0.601052    14A     -0.595211    15A     -0.547197
      16A     -0.529857    17A     -0.500037    18A     -0.488454
      19A     -0.484961    20A     -0.472068    21A     -0.468428
      22A     -0.465408

    Virtual:

      23A      0.173652    24A      0.192999    25A      0.217740
      26A      0.223394    27A      0.230565    28A      0.244755
      29A      0.256240    30A      0.268884    31A      0.274198
      32A      0.284460    33A      0.293997    34A      0.305012
      35A      0.321280    36A      0.328175    37A      0.379998
      38A      0.406063    39A      0.430470    40A      0.570802
      41A      0.582001    42A      0.601207    43A      0.601766
      44A      0.611613    45A      0.624164    46A      0.635085
      47A      0.671721    48A      0.685159    49A      0.745801
      50A      0.796919    51A      0.814752    52A      0.846778
      53A      0.865995    54A      0.881552    55A      0.887763
      56A      0.893519    57A      0.897196    58A      0.900051
      59A      0.900355    60A      0.905636    61A      0.916249
      62A      0.920027    63A      0.922582    64A      0.942936
      65A      0.954936    66A      0.971310    67A      0.982613
      68A      1.013380    69A      1.120792    70A      1.129093
      71A      1.130208    72A      1.152898    73A      1.210094
      74A      1.239532    75A      1.384475    76A      1.466095
      77A      1.471466    78A      1.485861    79A      1.490752
      80A      1.537189    81A      1.579094    82A      1.628334
      83A      1.670036    84A      1.678252    85A      1.691174
      86A      1.698845    87A      1.713739    88A      1.847491
      89A      1.850976    90A      1.867637    91A      1.875850
      92A      1.888467    93A      1.903382    94A      1.929131
      95A      1.936725    96A      1.943516    97A      1.955059
      98A      1.955565    99A      1.958242   100A      1.963071
     101A      1.973637   102A      1.981215   103A      1.988424
     104A      2.000732   105A      2.021441   106A      2.047000
     107A      2.053578   108A      2.096546   109A      2.122253
     110A      2.134699   111A      2.168060   112A      2.286096
     113A      2.300315   114A      2.316414   115A      2.324124
     116A      2.336858   117A      2.349651   118A      2.452304
     119A      2.483369   120A      2.488852   121A      2.537333
     122A      2.566058   123A      2.575494   124A      2.583800
     125A      2.621846   126A      2.631705   127A      2.749546
     128A      2.765713   129A      2.773241   130A      2.794072
     131A      2.795916   132A      2.832247   133A      2.851343
     134A      2.857191   135A      2.915839   136A      2.948499
     137A      2.960630   138A      2.975706   139A      2.979410
     140A      3.070707

    Final Occupation by Irrep:
              A
    DOCC [    22 ]

  @RHF Final Energy:  -197.50230825916302

   => Energetics <=

    Nuclear Repulsion Energy =            175.8575732526016111
    One-Electron Energy =                -612.5315877782186362
    Two-Electron Energy =                 239.1717062664540379
    Total Energy =                       -197.5023082591630157

Computation Completed

Properties will be evaluated at   0.000000,   0.000000,   0.000000 [a0]

Properties computed using the SCF density matrix

  Nuclear Dipole Moment: [e a0]
     X:     0.2914      Y:     0.6210      Z:     0.9409

  Electronic Dipole Moment: [e a0]
     X:    -0.2908      Y:    -0.6284      Z:    -0.8923

  Dipole Moment: [e a0]
     X:     0.0006      Y:    -0.0075      Z:     0.0487     Total:     0.0492

  Dipole Moment: [D]
     X:     0.0015      Y:    -0.0190      Z:     0.1237     Total:     0.1252

*** tstop() called on ds3 at Mon Apr 27 21:46:55 2020
Module time:
	user time   =      13.31 seconds =       0.22 minutes
	system time =       5.53 seconds =       0.09 minutes
	total time  =         29 seconds =       0.48 minutes
Total time:
	user time   =      13.31 seconds =       0.22 minutes
	system time =       5.53 seconds =       0.09 minutes
	total time  =         29 seconds =       0.48 minutes
                                     G D M A

                                 by Anthony Stone

                           version 2.2.06, 22 June 2011

               Distributed Multipoles from Gaussian wavefunctions

Starting at 21:46:55 on 27 Apr 2020

Using SCF density matrix from file ./SSI/SSI-049LYS-121LEU-1-dimer.test.20796.fchk

                         Distributed Multipole Analysis

Standard DMA

Positions and radii in angstrom
Multipole moments in atomic units, ea_0^k for rank k

C          x = -0.255421  y = -0.984326  z = -1.220259 angstrom
           Maximum rank =  0   Radius =  0.650 angstrom
                   Q00  =  -0.076739

C          x =  1.265579  y = -0.874326  z = -1.331259 angstrom
           Maximum rank =  0   Radius =  0.650 angstrom
                   Q00  =  -0.240375

C          x = -0.913421  y = -1.318326  z = -2.543259 angstrom
           Maximum rank =  0   Radius =  0.650 angstrom
                   Q00  =  -0.246035

H          x = -0.481421  y = -1.773326  z = -0.503259 angstrom
           Maximum rank =  0   Radius =  0.325 angstrom
                   Q00  =   0.044052

H          x = -0.664421  y = -0.054326  z = -0.830259 angstrom
           Maximum rank =  0   Radius =  0.325 angstrom
                   Q00  =   0.049131

H          x =  1.660579  y = -1.846326  z = -1.632259 angstrom
           Maximum rank =  0   Radius =  0.325 angstrom
                   Q00  =   0.075272

H          x =  1.670579  y = -0.644326  z = -0.344259 angstrom
           Maximum rank =  0   Radius =  0.325 angstrom
                   Q00  =   0.085647

H          x = -0.912421  y = -0.431326  z = -3.180259 angstrom
           Maximum rank =  0   Radius =  0.325 angstrom
                   Q00  =   0.076636

H          x = -0.327421  y = -2.095326  z = -3.039259 angstrom
           Maximum rank =  0   Radius =  0.325 angstrom
                   Q00  =   0.071104

H          x =  1.601269  y = -0.114196  z = -2.052027 angstrom
           Maximum rank =  0   Radius =  0.325 angstrom
                   Q00  =   0.077852

H          x = -1.945854  y = -1.683656  z = -2.440235 angstrom
           Maximum rank =  0   Radius =  0.325 angstrom
                   Q00  =   0.083234

C          x =  0.253579  y =  1.286674  z =  1.870741 angstrom
           Maximum rank =  0   Radius =  0.650 angstrom
                   Q00  =  -0.238999

C          x = -0.376421  y =  1.834674  z =  3.139741 angstrom
           Maximum rank =  0   Radius =  0.650 angstrom
                   Q00  =  -0.230061

H          x = -0.130421  y =  1.821674  z =  1.002741 angstrom
           Maximum rank =  0   Radius =  0.325 angstrom
                   Q00  =   0.077524

H          x =  1.338579  y =  1.384674  z =  1.925741 angstrom
           Maximum rank =  0   Radius =  0.325 angstrom
                   Q00  =   0.077584

H          x =  0.023579  y =  0.232674  z =  1.755741 angstrom
           Maximum rank =  0   Radius =  0.325 angstrom
                   Q00  =   0.077941

H          x =  0.011579  y =  1.265674  z =  3.969741 angstrom
           Maximum rank =  0   Radius =  0.325 angstrom
                   Q00  =   0.078514

H          x = -1.469927  y =  1.717594  z =  3.116613 angstrom
           Maximum rank =  0   Radius =  0.325 angstrom
                   Q00  =   0.080154

H          x = -0.063472  y =  2.882904  z =  3.254924 angstrom
           Maximum rank =  0   Radius =  0.325 angstrom
                   Q00  =   0.077563

Total multipoles referred to origin at
           x =   0.000000,  y =    0.000000,  z =    0.000000 angstrom
                   Q00  =  -0.000000

Finished at 21:46:55 on 27 Apr 2020

  DMA results are available in the Python driver through the
	  variable('DMA DISTRIBUTED MULTIPOLES')
  and
	  variable('DMA TOTAL MULTIPOLES')
  commands.

    Psi4 stopped on: Monday, 27 April 2020 09:46PM
    Psi4 wall time for execution: 0:00:28.32

*** Psi4 exiting successfully. Buy a developer a beer!
