                               Psi4 1.3.2 release

  ==> Input File <==

--------------------------------------------------------------------------
import numpy as np
set {scf_type pk
basis cc-pvdz
d_convergence 10
gdma_switch   0
gdma_limit    0
gdma_origin   [ 0.0,  0.0,  0.0 ]
}
molecule test {
    units Angstrom
    0 1
    --
    0 1
    C               -1.840722755734183     1.208944326440648    -0.895349445950290
    C               -1.500722755734183     2.587944326440648    -0.324349445950290
    H               -2.284722755734184     1.311944326440649    -1.888349445950291
    H               -0.928722755734184     0.624944326440648    -0.989349445950290
    H               -2.540722755734184     0.688944326440648    -0.239349445950290
    H               -0.750722755734183     3.051944326440648    -0.961349445950290
    H               -2.416092755734184     3.197944326440648    -0.325079445950290
    H               -1.097392755734183     2.503374326440648     0.695540554049710
    C                2.042277244265817    -0.143055673559352     0.151650554049710
    C                0.818277244265816    -1.030055673559352     0.275650554049710
    O                0.450277244265817    -1.748055673559352    -0.661349445950290
    N                0.133277244265817    -0.956055673559352     1.408650554049710
    H                2.516277244265816    -0.049055673559352     1.131650554049710
    H                1.709277244265817     0.845944326440648    -0.152349445950290
    H               -0.708722755734183    -1.503055673559352     1.492650554049710
    H                0.448277244265817    -0.371055673559352     2.167650554049710
    H                2.781127244265816    -0.516055673559352    -0.572909445950290

}
e, wfn = energy('scf', return_wfn=True)
gdma(wfn)
dmavals = variable('DMA DISTRIBUTED MULTIPOLES')
charges = np.array(dmavals)
print(charges)
np.save('SSI-024LEU-261ASN-1-dimer.npy', np.array(charges))--------------------------------------------------------------------------

*** tstart() called on ds3
*** at Mon Apr 27 21:34:55 2020

   => Loading Basis Set <=

    Name: CC-PVDZ
    Role: ORBITAL
    Keyword: BASIS
    atoms 1-2, 9-10  entry C          line   138 file /theoryfs2/ds/metcalf/miniconda2/envs/tf2gpu/share/psi4/basis/cc-pvdz.gbs
    atoms 3-8, 13-17 entry H          line    22 file /theoryfs2/ds/metcalf/miniconda2/envs/tf2gpu/share/psi4/basis/cc-pvdz.gbs
    atoms 11         entry O          line   198 file /theoryfs2/ds/metcalf/miniconda2/envs/tf2gpu/share/psi4/basis/cc-pvdz.gbs
    atoms 12         entry N          line   168 file /theoryfs2/ds/metcalf/miniconda2/envs/tf2gpu/share/psi4/basis/cc-pvdz.gbs

         ---------------------------------------------------------
                                   SCF
               by Justin Turney, Rob Parrish, Andy Simmonett
                          and Daniel G. A. Smith
                              RHF Reference
                        1 Threads,    500 MiB Core
         ---------------------------------------------------------

  ==> Geometry <==

    Molecular point group: c1
    Full point group: C1

    Geometry (in Angstrom), charge = 0, multiplicity = 1:

       Center              X                  Y                   Z               Mass
    ------------   -----------------  -----------------  -----------------  -----------------
         C           -1.840722755734     1.208944326441    -0.895349445950    12.000000000000
         C           -1.500722755734     2.587944326441    -0.324349445950    12.000000000000
         H           -2.284722755734     1.311944326441    -1.888349445950     1.007825032230
         H           -0.928722755734     0.624944326441    -0.989349445950     1.007825032230
         H           -2.540722755734     0.688944326441    -0.239349445950     1.007825032230
         H           -0.750722755734     3.051944326441    -0.961349445950     1.007825032230
         H           -2.416092755734     3.197944326441    -0.325079445950     1.007825032230
         H           -1.097392755734     2.503374326441     0.695540554050     1.007825032230
         C            2.042277244266    -0.143055673559     0.151650554050    12.000000000000
         C            0.818277244266    -1.030055673559     0.275650554050    12.000000000000
         O            0.450277244266    -1.748055673559    -0.661349445950    15.994914619570
         N            0.133277244266    -0.956055673559     1.408650554050    14.003074004430
         H            2.516277244266    -0.049055673559     1.131650554050     1.007825032230
         H            1.709277244266     0.845944326441    -0.152349445950     1.007825032230
         H           -0.708722755734    -1.503055673559     1.492650554050     1.007825032230
         H            0.448277244266    -0.371055673559     2.167650554050     1.007825032230
         H            2.781127244266    -0.516055673559    -0.572909445950     1.007825032230

  Running in c1 symmetry.

  Rotational constants: A =      0.14400  B =      0.04604  C =      0.04390 [cm^-1]
  Rotational constants: A =   4316.91941  B =   1380.26434  C =   1316.01240 [MHz]
  Nuclear repulsion =  237.622186606531017

  Charge       = 0
  Multiplicity = 1
  Electrons    = 50
  Nalpha       = 25
  Nbeta        = 25

  ==> Algorithm <==

  SCF Algorithm Type is PK.
  DIIS enabled.
  MOM disabled.
  Fractional occupation disabled.
  Guess Type is SAD.
  Energy threshold   = 1.00e-06
  Density threshold  = 1.00e-10
  Integral threshold = 0.00e+00

  ==> Primary Basis <==

  Basis Set: CC-PVDZ
    Blend: CC-PVDZ
    Number of shells: 69
    Number of basis function: 139
    Number of Cartesian functions: 145
    Spherical Harmonics?: true
    Max angular momentum: 2

  ==> Pre-Iterations <==

   -------------------------------------------------------
    Irrep   Nso     Nmo     Nalpha   Nbeta   Ndocc  Nsocc
   -------------------------------------------------------
     A        139     139       0       0       0       0
   -------------------------------------------------------
    Total     139     139      25      25      25       0
   -------------------------------------------------------

  ==> Integral Setup <==

  Using integral reordering PK algorithm.
  Sizing the integral batches needed.
  Building batch lookup table.
   Calculation information:
      Number of atoms:                  17
      Number of AO shells:              69
      Number of primitives:            187
      Number of atomic orbitals:       145
      Number of basis functions:       139

      Integral cutoff                 1.00e-12
      Number of threads:                 1

	Batch   1 pq = [       0,    9730] index = [             0,47341315] size =     47341315
  Task number: 5
  Buffer size: 11059200
  Buffer per thread: 2
  We computed 2720963 shell quartets total.
  Whereas there are 2917320 unique shell quartets.

  ==> DiskJK: Disk-Based J/K Matrices <==

    J tasked:                  Yes
    K tasked:                  Yes
    wK tasked:                  No
    Memory [MiB]:              375
    Schwarz Cutoff:          1E-12

    OpenMP threads:              1

  Minimum eigenvalue in the overlap matrix is 4.4037064808E-03.
  Using Symmetric Orthogonalization.

  SCF Guess: Superposition of Atomic Densities via on-the-fly atomic UHF.

  ==> Iterations <==

                        Total Energy        Delta E     RMS |[F,P]|

   @RHF iter SAD:  -285.91871806715142   -2.85919e+02   0.00000e+00
   @RHF iter   1:  -286.99557456393796   -1.07686e+00   4.63688e-03 DIIS
   @RHF iter   2:  -287.17068601437927   -1.75111e-01   2.61738e-03 DIIS
   @RHF iter   3:  -287.22129910098073   -5.06131e-02   5.48080e-04 DIIS
   @RHF iter   4:  -287.22472257882339   -3.42348e-03   2.19551e-04 DIIS
   @RHF iter   5:  -287.22533032925895   -6.07750e-04   3.41047e-05 DIIS
   @RHF iter   6:  -287.22536007711227   -2.97479e-05   1.54149e-05 DIIS
   @RHF iter   7:  -287.22536481483797   -4.73773e-06   6.17580e-06 DIIS
   @RHF iter   8:  -287.22536588627207   -1.07143e-06   2.18573e-06 DIIS
   @RHF iter   9:  -287.22536602665554   -1.40383e-07   5.49541e-07 DIIS
   @RHF iter  10:  -287.22536603331082   -6.65528e-09   1.75574e-07 DIIS
   @RHF iter  11:  -287.22536603403182   -7.21002e-10   3.94994e-08 DIIS
   @RHF iter  12:  -287.22536603407224   -4.04157e-11   8.95196e-09 DIIS
   @RHF iter  13:  -287.22536603407428   -2.04636e-12   1.97902e-09 DIIS
   @RHF iter  14:  -287.22536603407434   -5.68434e-14   8.56555e-10 DIIS
   @RHF iter  15:  -287.22536603407519   -8.52651e-13   3.91587e-10 DIIS
   @RHF iter  16:  -287.22536603407423    9.66338e-13   1.49103e-10 DIIS
   @RHF iter  17:  -287.22536603407644   -2.21689e-12   5.58783e-11 DIIS
  Energy and wave function converged.

  ==> Post-Iterations <==

    Orbital Energies [Eh]
    ---------------------

    Doubly Occupied:

       1A    -20.503316     2A    -15.591401     3A    -11.349509
       4A    -11.244675     5A    -11.219972     6A    -11.211359
       7A     -1.363789     8A     -1.217923     9A     -1.016314
      10A     -1.001930    11A     -0.833717    12A     -0.801649
      13A     -0.730528    14A     -0.653530    15A     -0.618325
      16A     -0.597186    17A     -0.592842    18A     -0.569727
      19A     -0.558910    20A     -0.523554    21A     -0.496326
      22A     -0.485330    23A     -0.480905    24A     -0.409418
      25A     -0.403327

    Virtual:

      26A      0.148549    27A      0.185282    28A      0.204870
      29A      0.211803    30A      0.225773    31A      0.243017
      32A      0.260324    33A      0.266358    34A      0.268828
      35A      0.290178    36A      0.294520    37A      0.340051
      38A      0.384543    39A      0.396156    40A      0.479736
      41A      0.542242    42A      0.596774    43A      0.606222
      44A      0.607870    45A      0.640397    46A      0.662313
      47A      0.669355    48A      0.681316    49A      0.705582
      50A      0.726713    51A      0.745250    52A      0.824459
      53A      0.844969    54A      0.859946    55A      0.869803
      56A      0.887700    57A      0.892743    58A      0.898224
      59A      0.907718    60A      0.912835    61A      0.926200
      62A      0.958197    63A      0.964034    64A      0.973815
      65A      1.042156    66A      1.048011    67A      1.063754
      68A      1.115094    69A      1.124121    70A      1.129382
      71A      1.165501    72A      1.259600    73A      1.326193
      74A      1.348928    75A      1.378561    76A      1.400525
      77A      1.432986    78A      1.459544    79A      1.469431
      80A      1.483694    81A      1.501503    82A      1.583710
      83A      1.651182    84A      1.659743    85A      1.675977
      86A      1.686160    87A      1.773574    88A      1.812602
      89A      1.839901    90A      1.859080    91A      1.869179
      92A      1.890198    93A      1.895207    94A      1.902898
      95A      1.914731    96A      1.946509    97A      1.948842
      98A      1.961972    99A      1.964697   100A      1.979649
     101A      1.984894   102A      1.994341   103A      2.041654
     104A      2.069204   105A      2.111050   106A      2.130054
     107A      2.182391   108A      2.219009   109A      2.267098
     110A      2.291733   111A      2.317874   112A      2.421516
     113A      2.449130   114A      2.464195   115A      2.476134
     116A      2.502647   117A      2.545831   118A      2.564132
     119A      2.585805   120A      2.593318   121A      2.621474
     122A      2.709931   123A      2.749291   124A      2.764479
     125A      2.801911   126A      2.816512   127A      2.849838
     128A      2.852271   129A      2.868775   130A      2.954780
     131A      2.968154   132A      3.005413   133A      3.095095
     134A      3.135496   135A      3.284897   136A      3.490656
     137A      3.533448   138A      3.859483   139A      3.901663

    Final Occupation by Irrep:
              A
    DOCC [    25 ]

  @RHF Final Energy:  -287.22536603407644

   => Energetics <=

    Nuclear Repulsion Energy =            237.6221866065310167
    One-Electron Energy =                -860.7441809876472689
    Two-Electron Energy =                 335.8966283470397798
    Total Energy =                       -287.2253660340764441

Computation Completed

Properties will be evaluated at   0.000000,   0.000000,   0.000000 [a0]

Properties computed using the SCF density matrix

  Nuclear Dipole Moment: [e a0]
     X:    -3.0658      Y:     9.1683      Z:     0.3291

  Electronic Dipole Moment: [e a0]
     X:     3.3233      Y:    -8.3350      Z:     1.0724

  Dipole Moment: [e a0]
     X:     0.2575      Y:     0.8333      Z:     1.4014     Total:     1.6507

  Dipole Moment: [D]
     X:     0.6545      Y:     2.1181      Z:     3.5620     Total:     4.1956

*** tstop() called on ds3 at Mon Apr 27 21:35:21 2020
Module time:
	user time   =      18.52 seconds =       0.31 minutes
	system time =       7.91 seconds =       0.13 minutes
	total time  =         26 seconds =       0.43 minutes
Total time:
	user time   =      18.52 seconds =       0.31 minutes
	system time =       7.91 seconds =       0.13 minutes
	total time  =         26 seconds =       0.43 minutes
                                     G D M A

                                 by Anthony Stone

                           version 2.2.06, 22 June 2011

               Distributed Multipoles from Gaussian wavefunctions

Starting at 21:35:21 on 27 Apr 2020

Using SCF density matrix from file ./SSI/SSI-024LEU-261ASN-1-dimer.test.17388.fchk

                         Distributed Multipole Analysis

Standard DMA

Positions and radii in angstrom
Multipole moments in atomic units, ea_0^k for rank k

C          x = -1.840723  y =  1.208944  z = -0.895349 angstrom
           Maximum rank =  0   Radius =  0.650 angstrom
                   Q00  =  -0.224072

C          x = -1.500723  y =  2.587944  z = -0.324349 angstrom
           Maximum rank =  0   Radius =  0.650 angstrom
                   Q00  =  -0.238905

H          x = -2.284723  y =  1.311944  z = -1.888349 angstrom
           Maximum rank =  0   Radius =  0.325 angstrom
                   Q00  =   0.080736

H          x = -0.928723  y =  0.624944  z = -0.989349 angstrom
           Maximum rank =  0   Radius =  0.325 angstrom
                   Q00  =   0.083362

H          x = -2.540723  y =  0.688944  z = -0.239349 angstrom
           Maximum rank =  0   Radius =  0.325 angstrom
                   Q00  =   0.073322

H          x = -0.750723  y =  3.051944  z = -0.961349 angstrom
           Maximum rank =  0   Radius =  0.325 angstrom
                   Q00  =   0.077437

H          x = -2.416093  y =  3.197944  z = -0.325079 angstrom
           Maximum rank =  0   Radius =  0.325 angstrom
                   Q00  =   0.078624

H          x = -1.097393  y =  2.503374  z =  0.695541 angstrom
           Maximum rank =  0   Radius =  0.325 angstrom
                   Q00  =   0.065439

C          x =  2.042277  y = -0.143056  z =  0.151651 angstrom
           Maximum rank =  0   Radius =  0.650 angstrom
                   Q00  =  -0.259355

C          x =  0.818277  y = -1.030056  z =  0.275651 angstrom
           Maximum rank =  0   Radius =  0.650 angstrom
                   Q00  =   0.804585

O          x =  0.450277  y = -1.748056  z = -0.661349 angstrom
           Maximum rank =  0   Radius =  0.650 angstrom
                   Q00  =  -0.791718

N          x =  0.133277  y = -0.956056  z =  1.408651 angstrom
           Maximum rank =  0   Radius =  0.650 angstrom
                   Q00  =  -0.519130

H          x =  2.516277  y = -0.049056  z =  1.131651 angstrom
           Maximum rank =  0   Radius =  0.325 angstrom
                   Q00  =   0.081468

H          x =  1.709277  y =  0.845944  z = -0.152349 angstrom
           Maximum rank =  0   Radius =  0.325 angstrom
                   Q00  =   0.124345

H          x = -0.708723  y = -1.503056  z =  1.492651 angstrom
           Maximum rank =  0   Radius =  0.325 angstrom
                   Q00  =   0.224704

H          x =  0.448277  y = -0.371056  z =  2.167651 angstrom
           Maximum rank =  0   Radius =  0.325 angstrom
                   Q00  =   0.206561

H          x =  2.781127  y = -0.516056  z = -0.572909 angstrom
           Maximum rank =  0   Radius =  0.325 angstrom
                   Q00  =   0.132598

Total multipoles referred to origin at
           x =   0.000000,  y =    0.000000,  z =    0.000000 angstrom
                   Q00  =  -0.000000

Finished at 21:35:21 on 27 Apr 2020

  DMA results are available in the Python driver through the
	  variable('DMA DISTRIBUTED MULTIPOLES')
  and
	  variable('DMA TOTAL MULTIPOLES')
  commands.

    Psi4 stopped on: Monday, 27 April 2020 09:35PM
    Psi4 wall time for execution: 0:00:26.31

*** Psi4 exiting successfully. Buy a developer a beer!
