                               Psi4 1.3.2 release

  ==> Input File <==

--------------------------------------------------------------------------
import numpy as np
set {scf_type pk
basis cc-pvdz
d_convergence 10
gdma_switch   0
gdma_limit    0
gdma_origin   [ 0.0,  0.0,  0.0 ]
}
molecule test {
    units Angstrom
    0 1
    --
    0 1
    C               -1.207229711563253    -2.751942631687397    -0.269109061771832
    C               -2.389229711563253    -3.373942631687397     0.493890938228168
    H               -1.532229711563253    -1.891942631687397    -0.854109061771832
    H               -0.449229711563253    -2.442942631687397     0.446890938228168
    H               -0.758229711563253    -3.490942631687397    -0.935109061771832
    H               -1.991229711563253    -4.098942631687397     1.204890938228168
    H               -3.069052711563253    -3.883442631687398    -0.204859061771832
    H               -2.967298711563252    -2.611712631687397     1.036880938228168
    C               -0.227229711563253     2.858057368312602    -1.060109061771832
    C                0.509770288436747     0.395057368312603    -0.876109061771832
    C                0.348770288436747     1.654057368312603    -0.394109061771832
    C                1.351770288436747     0.481057368312603     1.157890938228168
    N                1.135770288436747    -0.326942631687397     0.113890938228168
    N                0.846770288436747     1.676057368312603     0.889890938228168
    H                0.209770288436747     0.030057368312603    -1.845109061771832
    H                1.431770288436747    -1.294942631687397     0.054890938228168
    H               -0.218229711563253     2.745057368312603    -2.136109061771832
    H                0.417770288436747     3.705057368312602    -0.824109061771832
    H                1.830770288436747     0.192057368312603     2.086890938228168
    H               -1.240475711563253     3.080707368312603    -0.694379061771832

}
e, wfn = energy('scf', return_wfn=True)
gdma(wfn)
dmavals = variable('DMA DISTRIBUTED MULTIPOLES')
charges = np.array(dmavals)
print(charges)
np.save('SSI-021ILE-031HIE-1-dimer.npy', np.array(charges))--------------------------------------------------------------------------

*** tstart() called on ds3
*** at Mon Apr 27 08:00:35 2020

   => Loading Basis Set <=

    Name: CC-PVDZ
    Role: ORBITAL
    Keyword: BASIS
    atoms 1-2, 9-12  entry C          line   138 file /theoryfs2/ds/metcalf/miniconda2/envs/tf2gpu/share/psi4/basis/cc-pvdz.gbs
    atoms 3-8, 15-20 entry H          line    22 file /theoryfs2/ds/metcalf/miniconda2/envs/tf2gpu/share/psi4/basis/cc-pvdz.gbs
    atoms 13-14      entry N          line   168 file /theoryfs2/ds/metcalf/miniconda2/envs/tf2gpu/share/psi4/basis/cc-pvdz.gbs

         ---------------------------------------------------------
                                   SCF
               by Justin Turney, Rob Parrish, Andy Simmonett
                          and Daniel G. A. Smith
                              RHF Reference
                        1 Threads,    500 MiB Core
         ---------------------------------------------------------

  ==> Geometry <==

    Molecular point group: c1
    Full point group: C1

    Geometry (in Angstrom), charge = 0, multiplicity = 1:

       Center              X                  Y                   Z               Mass
    ------------   -----------------  -----------------  -----------------  -----------------
         C           -1.207229711563    -2.751942631687    -0.269109061772    12.000000000000
         C           -2.389229711563    -3.373942631687     0.493890938228    12.000000000000
         H           -1.532229711563    -1.891942631687    -0.854109061772     1.007825032230
         H           -0.449229711563    -2.442942631687     0.446890938228     1.007825032230
         H           -0.758229711563    -3.490942631687    -0.935109061772     1.007825032230
         H           -1.991229711563    -4.098942631687     1.204890938228     1.007825032230
         H           -3.069052711563    -3.883442631687    -0.204859061772     1.007825032230
         H           -2.967298711563    -2.611712631687     1.036880938228     1.007825032230
         C           -0.227229711563     2.858057368313    -1.060109061772    12.000000000000
         C            0.509770288437     0.395057368313    -0.876109061772    12.000000000000
         C            0.348770288437     1.654057368313    -0.394109061772    12.000000000000
         C            1.351770288437     0.481057368313     1.157890938228    12.000000000000
         N            1.135770288437    -0.326942631687     0.113890938228    14.003074004430
         N            0.846770288437     1.676057368313     0.889890938228    14.003074004430
         H            0.209770288437     0.030057368313    -1.845109061772     1.007825032230
         H            1.431770288437    -1.294942631687     0.054890938228     1.007825032230
         H           -0.218229711563     2.745057368313    -2.136109061772     1.007825032230
         H            0.417770288437     3.705057368313    -0.824109061772     1.007825032230
         H            1.830770288437     0.192057368313     2.086890938228     1.007825032230
         H           -1.240475711563     3.080707368313    -0.694379061772     1.007825032230

  Running in c1 symmetry.

  Rotational constants: A =      0.10745  B =      0.02675  C =      0.02397 [cm^-1]
  Rotational constants: A =   3221.39123  B =    802.09239  C =    718.52311 [MHz]
  Nuclear repulsion =  353.155311452744741

  Charge       = 0
  Multiplicity = 1
  Electrons    = 62
  Nalpha       = 31
  Nbeta        = 31

  ==> Algorithm <==

  SCF Algorithm Type is PK.
  DIIS enabled.
  MOM disabled.
  Fractional occupation disabled.
  Guess Type is SAD.
  Energy threshold   = 1.00e-06
  Density threshold  = 1.00e-10
  Integral threshold = 0.00e+00

  ==> Primary Basis <==

  Basis Set: CC-PVDZ
    Blend: CC-PVDZ
    Number of shells: 84
    Number of basis function: 172
    Number of Cartesian functions: 180
    Spherical Harmonics?: true
    Max angular momentum: 2

  ==> Pre-Iterations <==

   -------------------------------------------------------
    Irrep   Nso     Nmo     Nalpha   Nbeta   Ndocc  Nsocc
   -------------------------------------------------------
     A        172     172       0       0       0       0
   -------------------------------------------------------
    Total     172     172      31      31      31       0
   -------------------------------------------------------

  ==> Integral Setup <==

  Using integral reordering PK algorithm.
  Sizing the integral batches needed.
  Building batch lookup table.
   Calculation information:
      Number of atoms:                  20
      Number of AO shells:              84
      Number of primitives:            236
      Number of atomic orbitals:       180
      Number of basis functions:       172

      Integral cutoff                 1.00e-12
      Number of threads:                 1

	Batch   1 pq = [       0,    9405] index = [             0,44231715] size =     44231715
	Batch   2 pq = [    9405,   13301] index = [      44231715,88464951] size =     44233236
	Batch   3 pq = [   13301,   14878] index = [      88464951,110684881] size =     22219930
  Task number: 11
  Buffer size: 11059200
  Buffer per thread: 2
  We computed 5225255 shell quartets total.
  Whereas there are 6374235 unique shell quartets.

  ==> DiskJK: Disk-Based J/K Matrices <==

    J tasked:                  Yes
    K tasked:                  Yes
    wK tasked:                  No
    Memory [MiB]:              375
    Schwarz Cutoff:          1E-12

    OpenMP threads:              1

  Minimum eigenvalue in the overlap matrix is 1.1804026500E-03.
  Using Symmetric Orthogonalization.

  SCF Guess: Superposition of Atomic Densities via on-the-fly atomic UHF.

  ==> Iterations <==

                        Total Energy        Delta E     RMS |[F,P]|

   @RHF iter SAD:  -342.21890399119860   -3.42219e+02   0.00000e+00
   @RHF iter   1:  -342.88908239988604   -6.70178e-01   3.35993e-03 DIIS
   @RHF iter   2:  -343.06051083161458   -1.71428e-01   1.70811e-03 DIIS
   @RHF iter   3:  -343.10137798878424   -4.08672e-02   4.35032e-04 DIIS
   @RHF iter   4:  -343.10486549780546   -3.48751e-03   1.82289e-04 DIIS
   @RHF iter   5:  -343.10542912315617   -5.63625e-04   2.68531e-05 DIIS
   @RHF iter   6:  -343.10545061697206   -2.14938e-05   1.18520e-05 DIIS
   @RHF iter   7:  -343.10545432894480   -3.71197e-06   4.22682e-06 DIIS
   @RHF iter   8:  -343.10545515914288   -8.30198e-07   1.69004e-06 DIIS
   @RHF iter   9:  -343.10545533394247   -1.74800e-07   6.04048e-07 DIIS
   @RHF iter  10:  -343.10545535098458   -1.70421e-08   1.86043e-07 DIIS
   @RHF iter  11:  -343.10545535283103   -1.84644e-09   8.08934e-08 DIIS
   @RHF iter  12:  -343.10545535309160   -2.60570e-10   3.18287e-08 DIIS
   @RHF iter  13:  -343.10545535313480   -4.32010e-11   8.67399e-09 DIIS
   @RHF iter  14:  -343.10545535314128   -6.48015e-12   3.25586e-09 DIIS
   @RHF iter  15:  -343.10545535314117    1.13687e-13   1.31110e-09 DIIS
   @RHF iter  16:  -343.10545535314213   -9.66338e-13   4.27726e-10 DIIS
   @RHF iter  17:  -343.10545535314156    5.68434e-13   1.24831e-10 DIIS
   @RHF iter  18:  -343.10545535314321   -1.64846e-12   4.55721e-11 DIIS
  Energy and wave function converged.

  ==> Post-Iterations <==

    Orbital Energies [Eh]
    ---------------------

    Doubly Occupied:

       1A    -15.618474     2A    -15.528097     3A    -11.292521
       4A    -11.248291     5A    -11.239361     6A    -11.224924
       7A    -11.224339     8A    -11.220791     9A     -1.338777
      10A     -1.153805    11A     -1.031230    12A     -1.021889
      13A     -0.939822    14A     -0.845101    15A     -0.816710
      16A     -0.761119    17A     -0.738496    18A     -0.611391
      19A     -0.606598    20A     -0.605306    21A     -0.596676
      22A     -0.594548    23A     -0.551386    24A     -0.538591
      25A     -0.522494    26A     -0.505339    27A     -0.494370
      28A     -0.490029    29A     -0.411903    30A     -0.376953
      31A     -0.308020

    Virtual:

      32A      0.167806    33A      0.185278    34A      0.193180
      35A      0.199608    36A      0.219591    37A      0.226307
      38A      0.233602    39A      0.246853    40A      0.263486
      41A      0.267727    42A      0.280078    43A      0.288405
      44A      0.301935    45A      0.319229    46A      0.364587
      47A      0.392276    48A      0.398038    49A      0.414868
      50A      0.471367    51A      0.497293    52A      0.582578
      53A      0.592473    54A      0.602220    55A      0.614088
      56A      0.628408    57A      0.642063    58A      0.668196
      59A      0.681474    60A      0.684678    61A      0.711780
      62A      0.718660    63A      0.758615    64A      0.776016
      65A      0.801729    66A      0.813456    67A      0.832058
      68A      0.845752    69A      0.875738    70A      0.885059
      71A      0.887601    72A      0.892224    73A      0.899959
      74A      0.906878    75A      0.912265    76A      0.913750
      77A      0.933932    78A      0.949861    79A      0.964347
      80A      0.974396    81A      0.983144    82A      1.031753
      83A      1.088047    84A      1.099437    85A      1.106007
      86A      1.122434    87A      1.130135    88A      1.137986
      89A      1.167066    90A      1.190256    91A      1.224419
      92A      1.262738    93A      1.276177    94A      1.310697
      95A      1.328290    96A      1.334253    97A      1.418036
      98A      1.448798    99A      1.465177   100A      1.477271
     101A      1.487858   102A      1.523477   103A      1.567657
     104A      1.580246   105A      1.607586   106A      1.643913
     107A      1.678648   108A      1.688157   109A      1.693383
     110A      1.712518   111A      1.778156   112A      1.810385
     113A      1.822280   114A      1.852343   115A      1.861864
     116A      1.881832   117A      1.898795   118A      1.907180
     119A      1.917510   120A      1.931435   121A      1.935882
     122A      1.939460   123A      1.943047   124A      1.957836
     125A      1.979000   126A      1.982698   127A      1.985426
     128A      2.004216   129A      2.051684   130A      2.060785
     131A      2.098480   132A      2.114566   133A      2.135302
     134A      2.143621   135A      2.188954   136A      2.217004
     137A      2.235654   138A      2.290615   139A      2.305150
     140A      2.326062   141A      2.357034   142A      2.389499
     143A      2.432283   144A      2.441537   145A      2.447994
     146A      2.464693   147A      2.497759   148A      2.545926
     149A      2.560254   150A      2.574709   151A      2.611178
     152A      2.707333   153A      2.724330   154A      2.756073
     155A      2.762894   156A      2.775549   157A      2.782005
     158A      2.802921   159A      2.835664   160A      2.841697
     161A      2.848726   162A      2.864849   163A      2.896862
     164A      2.911971   165A      2.941165   166A      2.961424
     167A      2.969846   168A      3.068757   169A      3.165972
     170A      3.244001   171A      3.474994   172A      3.793825

    Final Occupation by Irrep:
              A
    DOCC [    31 ]

  @RHF Final Energy:  -343.10545535314321

   => Energetics <=

    Nuclear Repulsion Energy =            353.1553114527447406
    One-Electron Energy =               -1163.6068343242236551
    Two-Electron Energy =                 467.3460675183357012
    Total Energy =                       -343.1054553531432134

Computation Completed

Properties will be evaluated at   0.000000,   0.000000,   0.000000 [a0]

Properties computed using the SCF density matrix

  Nuclear Dipole Moment: [e a0]
     X:    -7.8204      Y:    -9.3429      Z:    -2.4997

  Electronic Dipole Moment: [e a0]
     X:     8.0333      Y:     8.1204      Z:     2.0463

  Dipole Moment: [e a0]
     X:     0.2129      Y:    -1.2225      Z:    -0.4534     Total:     1.3211

  Dipole Moment: [D]
     X:     0.5412      Y:    -3.1073      Z:    -1.1524     Total:     3.3580

*** tstop() called on ds3 at Mon Apr 27 08:02:26 2020
Module time:
	user time   =      37.34 seconds =       0.62 minutes
	system time =      15.15 seconds =       0.25 minutes
	total time  =        111 seconds =       1.85 minutes
Total time:
	user time   =      37.34 seconds =       0.62 minutes
	system time =      15.15 seconds =       0.25 minutes
	total time  =        111 seconds =       1.85 minutes
                                     G D M A

                                 by Anthony Stone

                           version 2.2.06, 22 June 2011

               Distributed Multipoles from Gaussian wavefunctions

Starting at 8:2:26 on 27 Apr 2020

Using SCF density matrix from file ./SSI/SSI-021ILE-031HIE-1-dimer.test.455.fchk

                         Distributed Multipole Analysis

Standard DMA

Positions and radii in angstrom
Multipole moments in atomic units, ea_0^k for rank k

C          x = -1.207230  y = -2.751943  z = -0.269109 angstrom
           Maximum rank =  0   Radius =  0.650 angstrom
                   Q00  =  -0.243115

C          x = -2.389230  y = -3.373943  z =  0.493891 angstrom
           Maximum rank =  0   Radius =  0.650 angstrom
                   Q00  =  -0.233700

H          x = -1.532230  y = -1.891943  z = -0.854109 angstrom
           Maximum rank =  0   Radius =  0.325 angstrom
                   Q00  =   0.089853

H          x = -0.449230  y = -2.442943  z =  0.446891 angstrom
           Maximum rank =  0   Radius =  0.325 angstrom
                   Q00  =   0.063434

H          x = -0.758230  y = -3.490943  z = -0.935109 angstrom
           Maximum rank =  0   Radius =  0.325 angstrom
                   Q00  =   0.074887

H          x = -1.991230  y = -4.098943  z =  1.204891 angstrom
           Maximum rank =  0   Radius =  0.325 angstrom
                   Q00  =   0.077939

H          x = -3.069053  y = -3.883443  z = -0.204859 angstrom
           Maximum rank =  0   Radius =  0.325 angstrom
                   Q00  =   0.079572

H          x = -2.967299  y = -2.611713  z =  1.036881 angstrom
           Maximum rank =  0   Radius =  0.325 angstrom
                   Q00  =   0.086074

C          x = -0.227230  y =  2.858057  z = -1.060109 angstrom
           Maximum rank =  0   Radius =  0.650 angstrom
                   Q00  =  -0.195857

C          x =  0.509770  y =  0.395057  z = -0.876109 angstrom
           Maximum rank =  0   Radius =  0.650 angstrom
                   Q00  =  -0.000033

C          x =  0.348770  y =  1.654057  z = -0.394109 angstrom
           Maximum rank =  0   Radius =  0.650 angstrom
                   Q00  =   0.224716

C          x =  1.351770  y =  0.481057  z =  1.157891 angstrom
           Maximum rank =  0   Radius =  0.650 angstrom
                   Q00  =   0.460467

N          x =  1.135770  y = -0.326943  z =  0.113891 angstrom
           Maximum rank =  0   Radius =  0.650 angstrom
                   Q00  =  -0.479886

N          x =  0.846770  y =  1.676057  z =  0.889891 angstrom
           Maximum rank =  0   Radius =  0.650 angstrom
                   Q00  =  -0.763774

H          x =  0.209770  y =  0.030057  z = -1.845109 angstrom
           Maximum rank =  0   Radius =  0.325 angstrom
                   Q00  =   0.101892

H          x =  1.431770  y = -1.294943  z =  0.054891 angstrom
           Maximum rank =  0   Radius =  0.325 angstrom
                   Q00  =   0.221669

H          x = -0.218230  y =  2.745057  z = -2.136109 angstrom
           Maximum rank =  0   Radius =  0.325 angstrom
                   Q00  =   0.094500

H          x =  0.417770  y =  3.705057  z = -0.824109 angstrom
           Maximum rank =  0   Radius =  0.325 angstrom
                   Q00  =   0.113727

H          x =  1.830770  y =  0.192057  z =  2.086891 angstrom
           Maximum rank =  0   Radius =  0.325 angstrom
                   Q00  =   0.123159

H          x = -1.240476  y =  3.080707  z = -0.694379 angstrom
           Maximum rank =  0   Radius =  0.325 angstrom
                   Q00  =   0.104475

Total multipoles referred to origin at
           x =   0.000000,  y =    0.000000,  z =    0.000000 angstrom
                   Q00  =  -0.000000

Finished at 8:2:26 on 27 Apr 2020

  DMA results are available in the Python driver through the
	  variable('DMA DISTRIBUTED MULTIPOLES')
  and
	  variable('DMA TOTAL MULTIPOLES')
  commands.

    Psi4 stopped on: Monday, 27 April 2020 08:02AM
    Psi4 wall time for execution: 0:01:51.45

*** Psi4 exiting successfully. Buy a developer a beer!
