                               Psi4 1.3.2 release

  ==> Input File <==

--------------------------------------------------------------------------
import numpy as np
set {scf_type pk
basis cc-pvdz
d_convergence 10
gdma_switch   0
gdma_limit    0
gdma_origin   [ 0.0,  0.0,  0.0 ]
}
molecule test {
    units Angstrom
    0 1
    --
    0 1
    C                0.068844285574560     1.949607029343462     1.875177394755098
    O                0.815844285574560     0.743607029343461     1.794177394755099
    H                1.554844285574560     0.865607029343461     1.138177394755098
    H               -0.995155714425439     1.713607029343462     1.819177394755098
    H                0.278494285574561     2.450467029343462     2.831827394755099
    H                0.327884285574560     2.605497029343462     1.030957394755099
    C               -0.408155714425440    -0.876392970656539    -0.756822605244902
    C               -1.511155714425440    -0.468392970656539    -1.738822605244902
    C                0.886844285574560    -1.561392970656538    -1.422822605244902
    H               -0.073155714425440     0.026607029343461    -0.272822605244901
    H               -0.831155714425440    -1.544392970656538    -0.002822605244902
    H               -2.077155714425440    -1.363392970656539    -1.998822605244902
    H               -1.029155714425440    -0.100392970656539    -2.645822605244901
    H                1.338844285574560    -2.169392970656538    -0.631822605244902
    H                0.533844285574561    -2.270392970656538    -2.177822605244902
    H               -2.192715714425440     0.318837029343461    -1.384214605244902
    H                1.690234285574560    -0.944502970656539    -1.851777605244902

}
e, wfn = energy('scf', return_wfn=True)
gdma(wfn)
dmavals = variable('DMA DISTRIBUTED MULTIPOLES')
charges = np.array(dmavals)
print(charges)
np.save('SSI-189THR-199LYS-1-dimer.npy', np.array(charges))--------------------------------------------------------------------------

*** tstart() called on ds3
*** at Mon Apr 27 22:28:45 2020

   => Loading Basis Set <=

    Name: CC-PVDZ
    Role: ORBITAL
    Keyword: BASIS
    atoms 1, 7-9     entry C          line   138 file /theoryfs2/ds/metcalf/miniconda2/envs/tf2gpu/share/psi4/basis/cc-pvdz.gbs
    atoms 2          entry O          line   198 file /theoryfs2/ds/metcalf/miniconda2/envs/tf2gpu/share/psi4/basis/cc-pvdz.gbs
    atoms 3-6, 10-17 entry H          line    22 file /theoryfs2/ds/metcalf/miniconda2/envs/tf2gpu/share/psi4/basis/cc-pvdz.gbs

         ---------------------------------------------------------
                                   SCF
               by Justin Turney, Rob Parrish, Andy Simmonett
                          and Daniel G. A. Smith
                              RHF Reference
                        1 Threads,    500 MiB Core
         ---------------------------------------------------------

  ==> Geometry <==

    Molecular point group: c1
    Full point group: C1

    Geometry (in Angstrom), charge = 0, multiplicity = 1:

       Center              X                  Y                   Z               Mass
    ------------   -----------------  -----------------  -----------------  -----------------
         C            0.068844285575     1.949607029343     1.875177394755    12.000000000000
         O            0.815844285575     0.743607029343     1.794177394755    15.994914619570
         H            1.554844285575     0.865607029343     1.138177394755     1.007825032230
         H           -0.995155714425     1.713607029343     1.819177394755     1.007825032230
         H            0.278494285575     2.450467029343     2.831827394755     1.007825032230
         H            0.327884285575     2.605497029343     1.030957394755     1.007825032230
         C           -0.408155714425    -0.876392970657    -0.756822605245    12.000000000000
         C           -1.511155714425    -0.468392970657    -1.738822605245    12.000000000000
         C            0.886844285575    -1.561392970657    -1.422822605245    12.000000000000
         H           -0.073155714425     0.026607029343    -0.272822605245     1.007825032230
         H           -0.831155714425    -1.544392970657    -0.002822605245     1.007825032230
         H           -2.077155714425    -1.363392970657    -1.998822605245     1.007825032230
         H           -1.029155714425    -0.100392970657    -2.645822605245     1.007825032230
         H            1.338844285575    -2.169392970657    -0.631822605245     1.007825032230
         H            0.533844285575    -2.270392970657    -2.177822605245     1.007825032230
         H           -2.192715714425     0.318837029343    -1.384214605245     1.007825032230
         H            1.690234285575    -0.944502970657    -1.851777605245     1.007825032230

  Running in c1 symmetry.

  Rotational constants: A =      0.19987  B =      0.05282  C =      0.04404 [cm^-1]
  Rotational constants: A =   5992.07650  B =   1583.35821  C =   1320.29696 [MHz]
  Nuclear repulsion =  180.990444950052932

  Charge       = 0
  Multiplicity = 1
  Electrons    = 44
  Nalpha       = 22
  Nbeta        = 22

  ==> Algorithm <==

  SCF Algorithm Type is PK.
  DIIS enabled.
  MOM disabled.
  Fractional occupation disabled.
  Guess Type is SAD.
  Energy threshold   = 1.00e-06
  Density threshold  = 1.00e-10
  Integral threshold = 0.00e+00

  ==> Primary Basis <==

  Basis Set: CC-PVDZ
    Blend: CC-PVDZ
    Number of shells: 66
    Number of basis function: 130
    Number of Cartesian functions: 135
    Spherical Harmonics?: true
    Max angular momentum: 2

  ==> Pre-Iterations <==

   -------------------------------------------------------
    Irrep   Nso     Nmo     Nalpha   Nbeta   Ndocc  Nsocc
   -------------------------------------------------------
     A        130     130       0       0       0       0
   -------------------------------------------------------
    Total     130     130      22      22      22       0
   -------------------------------------------------------

  ==> Integral Setup <==

  Using integral reordering PK algorithm.
  Sizing the integral batches needed.
  Building batch lookup table.
   Calculation information:
      Number of atoms:                  17
      Number of AO shells:              66
      Number of primitives:            170
      Number of atomic orbitals:       135
      Number of basis functions:       130

      Integral cutoff                 1.00e-12
      Number of threads:                 1

	Batch   1 pq = [       0,    8515] index = [             0,36256870] size =     36256870
  Task number: 4
  Buffer size: 11059200
  Buffer per thread: 2
  We computed 2125956 shell quartets total.
  Whereas there are 2445366 unique shell quartets.

  ==> DiskJK: Disk-Based J/K Matrices <==

    J tasked:                  Yes
    K tasked:                  Yes
    wK tasked:                  No
    Memory [MiB]:              375
    Schwarz Cutoff:          1E-12

    OpenMP threads:              1

  Minimum eigenvalue in the overlap matrix is 5.7623514154E-03.
  Using Symmetric Orthogonalization.

  SCF Guess: Superposition of Atomic Densities via on-the-fly atomic UHF.

  ==> Iterations <==

                        Total Energy        Delta E     RMS |[F,P]|

   @RHF iter SAD:  -231.94122709273952   -2.31941e+02   0.00000e+00
   @RHF iter   1:  -233.13328560150586   -1.19206e+00   4.04839e-03 DIIS
   @RHF iter   2:  -233.27350593373674   -1.40220e-01   1.91958e-03 DIIS
   @RHF iter   3:  -233.30095979164005   -2.74539e-02   3.94002e-04 DIIS
   @RHF iter   4:  -233.30305151857220   -2.09173e-03   1.23969e-04 DIIS
   @RHF iter   5:  -233.30320175011150   -1.50232e-04   2.55160e-05 DIIS
   @RHF iter   6:  -233.30321070077829   -8.95067e-06   5.72101e-06 DIIS
   @RHF iter   7:  -233.30321131743779   -6.16659e-07   1.66420e-06 DIIS
   @RHF iter   8:  -233.30321136732317   -4.98854e-08   5.70797e-07 DIIS
   @RHF iter   9:  -233.30321137464651   -7.32334e-09   1.24027e-07 DIIS
   @RHF iter  10:  -233.30321137506124   -4.14730e-10   3.00432e-08 DIIS
   @RHF iter  11:  -233.30321137508449   -2.32490e-11   9.41378e-09 DIIS
   @RHF iter  12:  -233.30321137508648   -1.98952e-12   3.36764e-09 DIIS
   @RHF iter  13:  -233.30321137508750   -1.02318e-12   9.97158e-10 DIIS
   @RHF iter  14:  -233.30321137508730    1.98952e-13   2.87142e-10 DIIS
   @RHF iter  15:  -233.30321137508560    1.70530e-12   1.16556e-10 DIIS
   @RHF iter  16:  -233.30321137508696   -1.36424e-12   3.25618e-11 DIIS
  Energy and wave function converged.

  ==> Post-Iterations <==

    Orbital Energies [Eh]
    ---------------------

    Doubly Occupied:

       1A    -20.553982     2A    -11.278652     3A    -11.220083
       4A    -11.217062     5A    -11.212330     6A     -1.344651
       7A     -1.034399     8A     -0.919386     9A     -0.918180
      10A     -0.795369    11A     -0.678173    12A     -0.623128
      13A     -0.608756    14A     -0.590685    15A     -0.582465
      16A     -0.538952    17A     -0.531975    18A     -0.493609
      19A     -0.471435    20A     -0.466149    21A     -0.455168
      22A     -0.432072

    Virtual:

      23A      0.162286    24A      0.196244    25A      0.202344
      26A      0.239716    27A      0.245634    28A      0.253783
      29A      0.266845    30A      0.270533    31A      0.275485
      32A      0.281951    33A      0.306770    34A      0.338598
      35A      0.366089    36A      0.384996    37A      0.421829
      38A      0.586597    39A      0.593001    40A      0.619101
      41A      0.626546    42A      0.644529    43A      0.651224
      44A      0.700898    45A      0.749113    46A      0.767285
      47A      0.810368    48A      0.826440    49A      0.837534
      50A      0.872193    51A      0.874274    52A      0.876246
      53A      0.890086    54A      0.896322    55A      0.904289
      56A      0.910639    57A      0.921028    58A      0.924689
      59A      0.944327    60A      0.972789    61A      1.037414
      62A      1.107105    63A      1.113086    64A      1.124247
      65A      1.164882    66A      1.174733    67A      1.239066
      68A      1.283791    69A      1.359215    70A      1.382098
      71A      1.404981    72A      1.450643    73A      1.496992
      74A      1.563641    75A      1.607598    76A      1.661483
      77A      1.667591    78A      1.675105    79A      1.688839
      80A      1.700497    81A      1.738071    82A      1.788112
      83A      1.849036    84A      1.871539    85A      1.891247
      86A      1.903284    87A      1.906653    88A      1.919965
      89A      1.925192    90A      1.936715    91A      1.952944
      92A      1.958026    93A      1.970092    94A      1.993172
      95A      2.001166    96A      2.014863    97A      2.048366
      98A      2.057422    99A      2.122184   100A      2.160129
     101A      2.188385   102A      2.263060   103A      2.284043
     104A      2.303040   105A      2.326280   106A      2.360477
     107A      2.374504   108A      2.398961   109A      2.434149
     110A      2.450085   111A      2.521771   112A      2.552586
     113A      2.609230   114A      2.659683   115A      2.738391
     116A      2.748654   117A      2.761083   118A      2.770990
     119A      2.781036   120A      2.793245   121A      2.845707
     122A      2.897471   123A      2.921013   124A      2.969463
     125A      3.055153   126A      3.299308   127A      3.375280
     128A      3.428341   129A      3.592606   130A      4.055662

    Final Occupation by Irrep:
              A
    DOCC [    22 ]

  @RHF Final Energy:  -233.30321137508696

   => Energetics <=

    Nuclear Repulsion Energy =            180.9904449500529324
    One-Electron Energy =                -674.6539915760567965
    Two-Electron Energy =                 260.3603352509168758
    Total Energy =                       -233.3032113750869598

Computation Completed

Properties will be evaluated at   0.000000,   0.000000,   0.000000 [a0]

Properties computed using the SCF density matrix

  Nuclear Dipole Moment: [e a0]
     X:    -1.3782      Y:    -0.3825      Z:    -3.8779

  Electronic Dipole Moment: [e a0]
     X:     1.5388      Y:     1.0110      Z:     3.6360

  Dipole Moment: [e a0]
     X:     0.1606      Y:     0.6285      Z:    -0.2419     Total:     0.6924

  Dipole Moment: [D]
     X:     0.4082      Y:     1.5976      Z:    -0.6149     Total:     1.7598

*** tstop() called on ds3 at Mon Apr 27 22:29:04 2020
Module time:
	user time   =      13.20 seconds =       0.22 minutes
	system time =       6.71 seconds =       0.11 minutes
	total time  =         19 seconds =       0.32 minutes
Total time:
	user time   =      13.20 seconds =       0.22 minutes
	system time =       6.71 seconds =       0.11 minutes
	total time  =         19 seconds =       0.32 minutes
                                     G D M A

                                 by Anthony Stone

                           version 2.2.06, 22 June 2011

               Distributed Multipoles from Gaussian wavefunctions

Starting at 22:29:4 on 27 Apr 2020

Using SCF density matrix from file ./SSI/SSI-189THR-199LYS-1-dimer.test.24886.fchk

                         Distributed Multipole Analysis

Standard DMA

Positions and radii in angstrom
Multipole moments in atomic units, ea_0^k for rank k

C          x =  0.068844  y =  1.949607  z =  1.875177 angstrom
           Maximum rank =  0   Radius =  0.650 angstrom
                   Q00  =  -0.050820

O          x =  0.815844  y =  0.743607  z =  1.794177 angstrom
           Maximum rank =  0   Radius =  0.650 angstrom
                   Q00  =  -0.592291

H          x =  1.554844  y =  0.865607  z =  1.138177 angstrom
           Maximum rank =  0   Radius =  0.325 angstrom
                   Q00  =   0.404274

H          x = -0.995156  y =  1.713607  z =  1.819177 angstrom
           Maximum rank =  0   Radius =  0.325 angstrom
                   Q00  =   0.097030

H          x =  0.278494  y =  2.450467  z =  2.831827 angstrom
           Maximum rank =  0   Radius =  0.325 angstrom
                   Q00  =   0.093941

H          x =  0.327884  y =  2.605497  z =  1.030957 angstrom
           Maximum rank =  0   Radius =  0.325 angstrom
                   Q00  =   0.066057

C          x = -0.408156  y = -0.876393  z = -0.756823 angstrom
           Maximum rank =  0   Radius =  0.650 angstrom
                   Q00  =  -0.066208

C          x = -1.511156  y = -0.468393  z = -1.738823 angstrom
           Maximum rank =  0   Radius =  0.650 angstrom
                   Q00  =  -0.246051

C          x =  0.886844  y = -1.561393  z = -1.422823 angstrom
           Maximum rank =  0   Radius =  0.650 angstrom
                   Q00  =  -0.288951

H          x = -0.073156  y =  0.026607  z = -0.272823 angstrom
           Maximum rank =  0   Radius =  0.325 angstrom
                   Q00  =   0.038036

H          x = -0.831156  y = -1.544393  z = -0.002823 angstrom
           Maximum rank =  0   Radius =  0.325 angstrom
                   Q00  =   0.062098

H          x = -2.077156  y = -1.363393  z = -1.998823 angstrom
           Maximum rank =  0   Radius =  0.325 angstrom
                   Q00  =   0.076448

H          x = -1.029156  y = -0.100393  z = -2.645823 angstrom
           Maximum rank =  0   Radius =  0.325 angstrom
                   Q00  =   0.070811

H          x =  1.338844  y = -2.169393  z = -0.631823 angstrom
           Maximum rank =  0   Radius =  0.325 angstrom
                   Q00  =   0.089609

H          x =  0.533844  y = -2.270393  z = -2.177823 angstrom
           Maximum rank =  0   Radius =  0.325 angstrom
                   Q00  =   0.078142

H          x = -2.192716  y =  0.318837  z = -1.384215 angstrom
           Maximum rank =  0   Radius =  0.325 angstrom
                   Q00  =   0.081180

H          x =  1.690234  y = -0.944503  z = -1.851778 angstrom
           Maximum rank =  0   Radius =  0.325 angstrom
                   Q00  =   0.086695

Total multipoles referred to origin at
           x =   0.000000,  y =    0.000000,  z =    0.000000 angstrom
                   Q00  =  -0.000000

Finished at 22:29:4 on 27 Apr 2020

  DMA results are available in the Python driver through the
	  variable('DMA DISTRIBUTED MULTIPOLES')
  and
	  variable('DMA TOTAL MULTIPOLES')
  commands.

    Psi4 stopped on: Monday, 27 April 2020 10:29PM
    Psi4 wall time for execution: 0:00:19.55

*** Psi4 exiting successfully. Buy a developer a beer!
