                               Psi4 1.3.2 release

  ==> Input File <==

--------------------------------------------------------------------------
import numpy as np
set {scf_type pk
basis cc-pvdz
d_convergence 10
gdma_switch   0
gdma_limit    0
gdma_origin   [ 0.0,  0.0,  0.0 ]
}
molecule test {
    units Angstrom
    0 1
    --
    0 1
    C                1.402331419124022     1.746477106159048     2.669116814408649
    C                1.370331419124021     0.608477106159048     3.710116814408650
    H                0.428331419124022     2.208477106159048     2.625116814408650
    H                2.132331419124021     2.503477106159048     2.948116814408650
    H                1.640331419124022     1.338477106159049     1.688116814408649
    H                2.323331419124022     0.087477106159049     3.601116814408650
    H                0.536281419124022    -0.075702893840951     3.495046814408650
    H                1.348841419124022     0.998087106159049     4.738576814408649
    C               -0.110668580875978    -0.027522893840951    -0.270883185591350
    C               -1.701668580875978    -0.139522893840951    -2.491883185591350
    S               -0.436668580875978    -1.067522893840951    -1.707883185591351
    H               -1.004668580875978     0.066477106159049     0.344116814408649
    H                0.673331419124022    -0.482522893840951     0.333116814408649
    H                0.214331419124022     0.959477106159048    -0.600883185591351
    H               -1.897668580875978    -0.567522893840951    -3.473883185591350
    H               -1.325668580875978     0.871477106159049    -2.640883185591350
    H               -2.650738580875978    -0.092812893840951    -1.937733185591351

}
e, wfn = energy('scf', return_wfn=True)
gdma(wfn)
dmavals = variable('DMA DISTRIBUTED MULTIPOLES')
charges = np.array(dmavals)
print(charges)
np.save('SSI-179ALA-238MET-1-dimer.npy', np.array(charges))--------------------------------------------------------------------------

*** tstart() called on ds3
*** at Sun Apr 26 20:12:17 2020

   => Loading Basis Set <=

    Name: CC-PVDZ
    Role: ORBITAL
    Keyword: BASIS
    atoms 1-2, 9-10  entry C          line   138 file /theoryfs2/ds/metcalf/miniconda2/envs/tf2gpu/share/psi4/basis/cc-pvdz.gbs
    atoms 3-8, 12-17 entry H          line    22 file /theoryfs2/ds/metcalf/miniconda2/envs/tf2gpu/share/psi4/basis/cc-pvdz.gbs
    atoms 11         entry S          line   598 file /theoryfs2/ds/metcalf/miniconda2/envs/tf2gpu/share/psi4/basis/cc-pvdz.gbs

         ---------------------------------------------------------
                                   SCF
               by Justin Turney, Rob Parrish, Andy Simmonett
                          and Daniel G. A. Smith
                              RHF Reference
                        1 Threads,    500 MiB Core
         ---------------------------------------------------------

  ==> Geometry <==

    Molecular point group: c1
    Full point group: C1

    Geometry (in Angstrom), charge = 0, multiplicity = 1:

       Center              X                  Y                   Z               Mass
    ------------   -----------------  -----------------  -----------------  -----------------
         C            1.402331419124     1.746477106159     2.669116814409    12.000000000000
         C            1.370331419124     0.608477106159     3.710116814409    12.000000000000
         H            0.428331419124     2.208477106159     2.625116814409     1.007825032230
         H            2.132331419124     2.503477106159     2.948116814409     1.007825032230
         H            1.640331419124     1.338477106159     1.688116814409     1.007825032230
         H            2.323331419124     0.087477106159     3.601116814409     1.007825032230
         H            0.536281419124    -0.075702893841     3.495046814409     1.007825032230
         H            1.348841419124     0.998087106159     4.738576814409     1.007825032230
         C           -0.110668580876    -0.027522893841    -0.270883185591    12.000000000000
         C           -1.701668580876    -0.139522893841    -2.491883185591    12.000000000000
         S           -0.436668580876    -1.067522893841    -1.707883185591    31.972071174400
         H           -1.004668580876     0.066477106159     0.344116814409     1.007825032230
         H            0.673331419124    -0.482522893841     0.333116814409     1.007825032230
         H            0.214331419124     0.959477106159    -0.600883185591     1.007825032230
         H           -1.897668580876    -0.567522893841    -3.473883185591     1.007825032230
         H           -1.325668580876     0.871477106159    -2.640883185591     1.007825032230
         H           -2.650738580876    -0.092812893841    -1.937733185591     1.007825032230

  Running in c1 symmetry.

  Rotational constants: A =      0.31254  B =      0.02481  C =      0.02388 [cm^-1]
  Rotational constants: A =   9369.61825  B =    743.73980  C =    715.89955 [MHz]
  Nuclear repulsion =  215.451766160647594

  Charge       = 0
  Multiplicity = 1
  Electrons    = 52
  Nalpha       = 26
  Nbeta        = 26

  ==> Algorithm <==

  SCF Algorithm Type is PK.
  DIIS enabled.
  MOM disabled.
  Fractional occupation disabled.
  Guess Type is SAD.
  Energy threshold   = 1.00e-06
  Density threshold  = 1.00e-10
  Integral threshold = 0.00e+00

  ==> Primary Basis <==

  Basis Set: CC-PVDZ
    Blend: CC-PVDZ
    Number of shells: 68
    Number of basis function: 134
    Number of Cartesian functions: 139
    Spherical Harmonics?: true
    Max angular momentum: 2

  ==> Pre-Iterations <==

   -------------------------------------------------------
    Irrep   Nso     Nmo     Nalpha   Nbeta   Ndocc  Nsocc
   -------------------------------------------------------
     A        134     134       0       0       0       0
   -------------------------------------------------------
    Total     134     134      26      26      26       0
   -------------------------------------------------------

  ==> Integral Setup <==

  Using integral reordering PK algorithm.
  Sizing the integral batches needed.
  Building batch lookup table.
   Calculation information:
      Number of atoms:                  17
      Number of AO shells:              68
      Number of primitives:            198
      Number of atomic orbitals:       139
      Number of basis functions:       134

      Integral cutoff                 1.00e-12
      Number of threads:                 1

	Batch   1 pq = [       0,    9045] index = [             0,40910535] size =     40910535
  Task number: 4
  Buffer size: 11059200
  Buffer per thread: 2
  We computed 2036079 shell quartets total.
  Whereas there are 2753031 unique shell quartets.

  ==> DiskJK: Disk-Based J/K Matrices <==

    J tasked:                  Yes
    K tasked:                  Yes
    wK tasked:                  No
    Memory [MiB]:              375
    Schwarz Cutoff:          1E-12

    OpenMP threads:              1

  Minimum eigenvalue in the overlap matrix is 8.0375935886E-03.
  Using Symmetric Orthogonalization.

  SCF Guess: Superposition of Atomic Densities via on-the-fly atomic UHF.

  ==> Iterations <==

                        Total Energy        Delta E     RMS |[F,P]|

   @RHF iter SAD:  -554.95413583349136   -5.54954e+02   0.00000e+00
   @RHF iter   1:  -555.84390230163774   -8.89766e-01   3.37405e-03 DIIS
   @RHF iter   2:  -555.96743444870879   -1.23532e-01   1.33185e-03 DIIS
   @RHF iter   3:  -555.98530010264028   -1.78657e-02   3.14273e-04 DIIS
   @RHF iter   4:  -555.98715561095560   -1.85551e-03   4.74645e-05 DIIS
   @RHF iter   5:  -555.98719351542138   -3.79045e-05   1.07792e-05 DIIS
   @RHF iter   6:  -555.98719552965247   -2.01423e-06   2.63634e-06 DIIS
   @RHF iter   7:  -555.98719564838098   -1.18729e-07   7.17067e-07 DIIS
   @RHF iter   8:  -555.98719565813974   -9.75876e-09   1.78445e-07 DIIS
   @RHF iter   9:  -555.98719565900842   -8.68681e-10   4.98194e-08 DIIS
   @RHF iter  10:  -555.98719565907516   -6.67342e-11   1.22881e-08 DIIS
   @RHF iter  11:  -555.98719565907879   -3.63798e-12   2.51649e-09 DIIS
   @RHF iter  12:  -555.98719565907766    1.13687e-12   6.39088e-10 DIIS
   @RHF iter  13:  -555.98719565907857   -9.09495e-13   2.02059e-10 DIIS
   @RHF iter  14:  -555.98719565907845    1.13687e-13   7.32588e-11 DIIS
  Energy and wave function converged.

  ==> Post-Iterations <==

    Orbital Energies [Eh]
    ---------------------

    Doubly Occupied:

       1A    -91.933437     2A    -11.255522     3A    -11.252460
       4A    -11.223590     5A    -11.219647     6A     -8.938240
       7A     -6.620394     8A     -6.618755     9A     -6.616462
      10A     -1.070406    11A     -1.019749    12A     -0.954011
      13A     -0.841081    14A     -0.804337    15A     -0.608354
      16A     -0.604771    17A     -0.602392    18A     -0.596968
      19A     -0.575201    20A     -0.561801    21A     -0.505049
      22A     -0.498289    23A     -0.494639    24A     -0.484173
      25A     -0.427757    26A     -0.330075

    Virtual:

      27A      0.160907    28A      0.183560    29A      0.205182
      30A      0.227542    31A      0.229235    32A      0.239345
      33A      0.251134    34A      0.253659    35A      0.262167
      36A      0.274223    37A      0.279843    38A      0.297017
      39A      0.302733    40A      0.340523    41A      0.386949
      42A      0.512615    43A      0.548169    44A      0.571197
      45A      0.593599    46A      0.597286    47A      0.609133
      48A      0.636105    49A      0.647796    50A      0.672623
      51A      0.700903    52A      0.723745    53A      0.735325
      54A      0.786011    55A      0.813659    56A      0.827753
      57A      0.833683    58A      0.852818    59A      0.861008
      60A      0.876234    61A      0.879143    62A      0.889618
      63A      0.891807    64A      0.895307    65A      0.905824
      66A      0.911778    67A      0.921509    68A      0.930836
      69A      0.943903    70A      0.960794    71A      0.974318
      72A      1.004212    73A      1.117343    74A      1.125593
      75A      1.178291    76A      1.237642    77A      1.276205
      78A      1.305659    79A      1.322842    80A      1.362496
      81A      1.398703    82A      1.458880    83A      1.471814
      84A      1.486777    85A      1.492092    86A      1.570067
      87A      1.667392    88A      1.672323    89A      1.675523
      90A      1.691796    91A      1.854956    92A      1.868469
      93A      1.873298    94A      1.880266    95A      1.893520
      96A      1.914770    97A      1.921751    98A      1.926141
      99A      1.929283   100A      1.944203   101A      1.952771
     102A      1.957912   103A      1.971877   104A      1.986895
     105A      2.008524   106A      2.016005   107A      2.064570
     108A      2.086153   109A      2.105364   110A      2.151243
     111A      2.239466   112A      2.257681   113A      2.277117
     114A      2.306318   115A      2.400731   116A      2.432799
     117A      2.435862   118A      2.442621   119A      2.456958
     120A      2.473998   121A      2.556147   122A      2.595518
     123A      2.728176   124A      2.751711   125A      2.759787
     126A      2.768413   127A      2.791467   128A      2.798313
     129A      2.802064   130A      2.825933   131A      2.834403
     132A      2.856292   133A      2.935628   134A      2.973256

    Final Occupation by Irrep:
              A
    DOCC [    26 ]

  @RHF Final Energy:  -555.98719565907845

   => Energetics <=

    Nuclear Repulsion Energy =            215.4517661606475940
    One-Electron Energy =               -1189.5627987536304317
    Two-Electron Energy =                 418.1238369339044425
    Total Energy =                       -555.9871956590784521

Computation Completed

Properties will be evaluated at   0.000000,   0.000000,   0.000000 [a0]

Properties computed using the SCF density matrix

  Nuclear Dipole Moment: [e a0]
     X:     2.2556      Y:     7.2980      Z:    10.3795

  Electronic Dipole Moment: [e a0]
     X:    -2.5008      Y:    -6.7189      Z:   -10.2013

  Dipole Moment: [e a0]
     X:    -0.2452      Y:     0.5792      Z:     0.1783     Total:     0.6537

  Dipole Moment: [D]
     X:    -0.6232      Y:     1.4721      Z:     0.4531     Total:     1.6615

*** tstop() called on ds3 at Sun Apr 26 20:12:38 2020
Module time:
	user time   =      14.76 seconds =       0.25 minutes
	system time =       5.63 seconds =       0.09 minutes
	total time  =         21 seconds =       0.35 minutes
Total time:
	user time   =      14.76 seconds =       0.25 minutes
	system time =       5.63 seconds =       0.09 minutes
	total time  =         21 seconds =       0.35 minutes
                                     G D M A

                                 by Anthony Stone

                           version 2.2.06, 22 June 2011

               Distributed Multipoles from Gaussian wavefunctions

Starting at 20:12:38 on 26 Apr 2020

Using SCF density matrix from file ./SSI/SSI-179ALA-238MET-1-dimer.test.19701.fchk

                         Distributed Multipole Analysis

Standard DMA

Positions and radii in angstrom
Multipole moments in atomic units, ea_0^k for rank k

C          x =  1.402331  y =  1.746477  z =  2.669117 angstrom
           Maximum rank =  0   Radius =  0.650 angstrom
                   Q00  =  -0.250467

C          x =  1.370331  y =  0.608477  z =  3.710117 angstrom
           Maximum rank =  0   Radius =  0.650 angstrom
                   Q00  =  -0.229841

H          x =  0.428331  y =  2.208477  z =  2.625117 angstrom
           Maximum rank =  0   Radius =  0.325 angstrom
                   Q00  =   0.077054

H          x =  2.132331  y =  2.503477  z =  2.948117 angstrom
           Maximum rank =  0   Radius =  0.325 angstrom
                   Q00  =   0.083952

H          x =  1.640331  y =  1.338477  z =  1.688117 angstrom
           Maximum rank =  0   Radius =  0.325 angstrom
                   Q00  =   0.077825

H          x =  2.323331  y =  0.087477  z =  3.601117 angstrom
           Maximum rank =  0   Radius =  0.325 angstrom
                   Q00  =   0.074681

H          x =  0.536281  y = -0.075703  z =  3.495047 angstrom
           Maximum rank =  0   Radius =  0.325 angstrom
                   Q00  =   0.081837

H          x =  1.348841  y =  0.998087  z =  4.738577 angstrom
           Maximum rank =  0   Radius =  0.325 angstrom
                   Q00  =   0.084245

C          x = -0.110669  y = -0.027523  z = -0.270883 angstrom
           Maximum rank =  0   Radius =  0.650 angstrom
                   Q00  =  -0.361905

C          x = -1.701669  y = -0.139523  z = -2.491883 angstrom
           Maximum rank =  0   Radius =  0.650 angstrom
                   Q00  =  -0.348624

S          x = -0.436669  y = -1.067523  z = -1.707883 angstrom
           Maximum rank =  0   Radius =  0.650 angstrom
                   Q00  =   0.139243

H          x = -1.004669  y =  0.066477  z =  0.344117 angstrom
           Maximum rank =  0   Radius =  0.325 angstrom
                   Q00  =   0.088626

H          x =  0.673331  y = -0.482523  z =  0.333117 angstrom
           Maximum rank =  0   Radius =  0.325 angstrom
                   Q00  =   0.120355

H          x =  0.214331  y =  0.959477  z = -0.600883 angstrom
           Maximum rank =  0   Radius =  0.325 angstrom
                   Q00  =   0.085033

H          x = -1.897669  y = -0.567523  z = -3.473883 angstrom
           Maximum rank =  0   Radius =  0.325 angstrom
                   Q00  =   0.118834

H          x = -1.325669  y =  0.871477  z = -2.640883 angstrom
           Maximum rank =  0   Radius =  0.325 angstrom
                   Q00  =   0.075618

H          x = -2.650739  y = -0.092813  z = -1.937733 angstrom
           Maximum rank =  0   Radius =  0.325 angstrom
                   Q00  =   0.083534

Total multipoles referred to origin at
           x =   0.000000,  y =    0.000000,  z =    0.000000 angstrom
                   Q00  =  -0.000000

Finished at 20:12:38 on 26 Apr 2020

  DMA results are available in the Python driver through the
	  variable('DMA DISTRIBUTED MULTIPOLES')
  and
	  variable('DMA TOTAL MULTIPOLES')
  commands.

    Psi4 stopped on: Sunday, 26 April 2020 08:12PM
    Psi4 wall time for execution: 0:00:20.19

*** Psi4 exiting successfully. Buy a developer a beer!
