                               Psi4 1.3.2 release

  ==> Input File <==

--------------------------------------------------------------------------
import numpy as np
set {scf_type pk
basis cc-pvdz
d_convergence 10
gdma_switch   0
gdma_limit    0
gdma_origin   [ 0.0,  0.0,  0.0 ]
}
molecule test {
    units Angstrom
    0 1
    --
    0 1
    C                0.012072497209951    -0.538744236578233     1.326839998059798
    C               -0.371927502790049    -1.650744236578233     2.276839998059797
    H                0.128072497209951    -1.095744236578233     0.404839998059797
    H               -0.801927502790049     0.185255763421767     1.293839998059797
    H                0.929072497209951    -0.035744236578233     1.633839998059797
    H               -0.411927502790049    -1.247744236578233     3.289839998059798
    H                0.356164497209951    -2.474394236578232     2.238329998059798
    H               -1.368987502790049    -2.014154236578233     1.987349998059798
    C               -0.077927502790049     0.591255763421767    -1.302160001940202
    C                0.441072497209951     1.596255763421767    -2.299160001940202
    H                0.835072497209951     0.308255763421767    -0.793160001940203
    H               -0.790927502790049     1.096255763421767    -0.652160001940203
    H               -0.571927502790049    -0.251744236578233    -1.785160001940203
    H               -0.377927502790049     1.860255763421767    -2.969160001940203
    H                1.267022997209950     1.185065763421767    -2.898100001940203
    H                0.769046697209951     2.507975763421767    -1.778400001940202

}
e, wfn = energy('scf', return_wfn=True)
gdma(wfn)
dmavals = variable('DMA DISTRIBUTED MULTIPOLES')
charges = np.array(dmavals)
print(charges)
np.save('SSI-151THR-163THR-1-dimer.npy', np.array(charges))--------------------------------------------------------------------------

*** tstart() called on ds3
*** at Mon Apr 27 00:46:35 2020

   => Loading Basis Set <=

    Name: CC-PVDZ
    Role: ORBITAL
    Keyword: BASIS
    atoms 1-2, 9-10  entry C          line   138 file /theoryfs2/ds/metcalf/miniconda2/envs/tf2gpu/share/psi4/basis/cc-pvdz.gbs
    atoms 3-8, 11-16 entry H          line    22 file /theoryfs2/ds/metcalf/miniconda2/envs/tf2gpu/share/psi4/basis/cc-pvdz.gbs

         ---------------------------------------------------------
                                   SCF
               by Justin Turney, Rob Parrish, Andy Simmonett
                          and Daniel G. A. Smith
                              RHF Reference
                        1 Threads,    500 MiB Core
         ---------------------------------------------------------

  ==> Geometry <==

    Molecular point group: c1
    Full point group: C1

    Geometry (in Angstrom), charge = 0, multiplicity = 1:

       Center              X                  Y                   Z               Mass
    ------------   -----------------  -----------------  -----------------  -----------------
         C            0.012072497210    -0.538744236578     1.326839998060    12.000000000000
         C           -0.371927502790    -1.650744236578     2.276839998060    12.000000000000
         H            0.128072497210    -1.095744236578     0.404839998060     1.007825032230
         H           -0.801927502790     0.185255763422     1.293839998060     1.007825032230
         H            0.929072497210    -0.035744236578     1.633839998060     1.007825032230
         H           -0.411927502790    -1.247744236578     3.289839998060     1.007825032230
         H            0.356164497210    -2.474394236578     2.238329998060     1.007825032230
         H           -1.368987502790    -2.014154236578     1.987349998060     1.007825032230
         C           -0.077927502790     0.591255763422    -1.302160001940    12.000000000000
         C            0.441072497210     1.596255763422    -2.299160001940    12.000000000000
         H            0.835072497210     0.308255763422    -0.793160001940     1.007825032230
         H           -0.790927502790     1.096255763422    -0.652160001940     1.007825032230
         H           -0.571927502790    -0.251744236578    -1.785160001940     1.007825032230
         H           -0.377927502790     1.860255763422    -2.969160001940     1.007825032230
         H            1.267022997210     1.185065763422    -2.898100001940     1.007825032230
         H            0.769046697210     2.507975763422    -1.778400001940     1.007825032230

  Running in c1 symmetry.

  Rotational constants: A =      0.99509  B =      0.05359  C =      0.05298 [cm^-1]
  Rotational constants: A =  29832.02976  B =   1606.58965  C =   1588.18102 [MHz]
  Nuclear repulsion =  127.854099587335028

  Charge       = 0
  Multiplicity = 1
  Electrons    = 36
  Nalpha       = 18
  Nbeta        = 18

  ==> Algorithm <==

  SCF Algorithm Type is PK.
  DIIS enabled.
  MOM disabled.
  Fractional occupation disabled.
  Guess Type is SAD.
  Energy threshold   = 1.00e-06
  Density threshold  = 1.00e-10
  Integral threshold = 0.00e+00

  ==> Primary Basis <==

  Basis Set: CC-PVDZ
    Blend: CC-PVDZ
    Number of shells: 60
    Number of basis function: 116
    Number of Cartesian functions: 120
    Spherical Harmonics?: true
    Max angular momentum: 2

  ==> Pre-Iterations <==

   -------------------------------------------------------
    Irrep   Nso     Nmo     Nalpha   Nbeta   Ndocc  Nsocc
   -------------------------------------------------------
     A        116     116       0       0       0       0
   -------------------------------------------------------
    Total     116     116      18      18      18       0
   -------------------------------------------------------

  ==> Integral Setup <==

  Using integral reordering PK algorithm.
  Sizing the integral batches needed.
  Building batch lookup table.
   Calculation information:
      Number of atoms:                  16
      Number of AO shells:              60
      Number of primitives:            148
      Number of atomic orbitals:       120
      Number of basis functions:       116

      Integral cutoff                 1.00e-12
      Number of threads:                 1

	Batch   1 pq = [       0,    6786] index = [             0,23028291] size =     23028291
  Task number: 3
  Buffer size: 11059200
  Buffer per thread: 2
  We computed 1532036 shell quartets total.
  Whereas there are 1675365 unique shell quartets.

  ==> DiskJK: Disk-Based J/K Matrices <==

    J tasked:                  Yes
    K tasked:                  Yes
    wK tasked:                  No
    Memory [MiB]:              375
    Schwarz Cutoff:          1E-12

    OpenMP threads:              1

  Minimum eigenvalue in the overlap matrix is 5.5918868661E-03.
  Using Symmetric Orthogonalization.

  SCF Guess: Superposition of Atomic Densities via on-the-fly atomic UHF.

  ==> Iterations <==

                        Total Energy        Delta E     RMS |[F,P]|

   @RHF iter SAD:  -157.57192716094264   -1.57572e+02   0.00000e+00
   @RHF iter   1:  -158.27486696644453   -7.02940e-01   4.31809e-03 DIIS
   @RHF iter   2:  -158.41634587866935   -1.41479e-01   1.79751e-03 DIIS
   @RHF iter   3:  -158.43985981213478   -2.35139e-02   3.58554e-04 DIIS
   @RHF iter   4:  -158.44177529105806   -1.91548e-03   4.08397e-05 DIIS
   @RHF iter   5:  -158.44180190406507   -2.66130e-05   8.28539e-06 DIIS
   @RHF iter   6:  -158.44180289550928   -9.91444e-07   1.80931e-06 DIIS
   @RHF iter   7:  -158.44180293254206   -3.70328e-08   4.81956e-07 DIIS
   @RHF iter   8:  -158.44180293591015   -3.36809e-09   9.09183e-08 DIIS
   @RHF iter   9:  -158.44180293608252   -1.72378e-10   1.63249e-08 DIIS
   @RHF iter  10:  -158.44180293608724   -4.71800e-12   3.47994e-09 DIIS
   @RHF iter  11:  -158.44180293608792   -6.82121e-13   9.26494e-10 DIIS
   @RHF iter  12:  -158.44180293608741    5.11591e-13   2.81100e-10 DIIS
   @RHF iter  13:  -158.44180293608750   -8.52651e-14   4.74262e-11 DIIS
  Energy and wave function converged.

  ==> Post-Iterations <==

    Orbital Energies [Eh]
    ---------------------

    Doubly Occupied:

       1A    -11.212618     2A    -11.212088     3A    -11.209082
       4A    -11.208885     5A     -1.028760     6A     -1.018188
       7A     -0.842890     8A     -0.814969     9A     -0.615020
      10A     -0.604420    11A     -0.600200    12A     -0.593968
      13A     -0.511661    14A     -0.499611    15A     -0.492628
      16A     -0.482977    17A     -0.472296    18A     -0.445675

    Virtual:

      19A      0.175126    20A      0.195721    21A      0.233296
      22A      0.238770    23A      0.242895    24A      0.260707
      25A      0.270611    26A      0.278705    27A      0.281079
      28A      0.306822    29A      0.309712    30A      0.329650
      31A      0.405557    32A      0.411232    33A      0.594119
      34A      0.601899    35A      0.604899    36A      0.612486
      37A      0.619260    38A      0.622221    39A      0.669576
      40A      0.736117    41A      0.763604    42A      0.807518
      43A      0.876063    44A      0.880797    45A      0.894686
      46A      0.896810    47A      0.898379    48A      0.899024
      49A      0.901123    50A      0.917101    51A      0.925848
      52A      0.927761    53A      0.944354    54A      0.949691
      55A      0.962729    56A      1.008654    57A      1.094601
      58A      1.140961    59A      1.153517    60A      1.209635
      61A      1.262906    62A      1.358622    63A      1.461736
      64A      1.484489    65A      1.486593    66A      1.565699
      67A      1.576987    68A      1.623087    69A      1.658220
      70A      1.674572    71A      1.687305    72A      1.694644
      73A      1.839853    74A      1.861435    75A      1.874462
      76A      1.891549    77A      1.909835    78A      1.921753
      79A      1.929235    80A      1.939816    81A      1.943063
      82A      1.963914    83A      1.965946    84A      2.000217
      85A      2.013967    86A      2.034638    87A      2.085821
      88A      2.096303    89A      2.116410    90A      2.121623
      91A      2.178178    92A      2.183790    93A      2.277955
      94A      2.298653    95A      2.331995    96A      2.403985
      97A      2.450836    98A      2.474429    99A      2.479886
     100A      2.502737   101A      2.549542   102A      2.576451
     103A      2.614715   104A      2.629968   105A      2.767154
     106A      2.770372   107A      2.810918   108A      2.818732
     109A      2.835004   110A      2.836693   111A      2.844653
     112A      2.857050   113A      2.955958   114A      2.959205
     115A      2.975645   116A      2.986200

    Final Occupation by Irrep:
              A
    DOCC [    18 ]

  @RHF Final Energy:  -158.44180293608750

   => Energetics <=

    Nuclear Repulsion Energy =            127.8540995873350283
    One-Electron Energy =                -464.8599316618875719
    Two-Electron Energy =                 178.5640291384650311
    Total Energy =                       -158.4418029360874982

Computation Completed

Properties will be evaluated at   0.000000,   0.000000,   0.000000 [a0]

Properties computed using the SCF density matrix

  Nuclear Dipole Moment: [e a0]
     X:    -0.0367      Y:     0.0221      Z:    -0.0263

  Electronic Dipole Moment: [e a0]
     X:     0.0360      Y:    -0.0228      Z:     0.0241

  Dipole Moment: [e a0]
     X:    -0.0007      Y:    -0.0007      Z:    -0.0023     Total:     0.0025

  Dipole Moment: [D]
     X:    -0.0018      Y:    -0.0018      Z:    -0.0057     Total:     0.0063

*** tstop() called on ds3 at Mon Apr 27 00:46:57 2020
Module time:
	user time   =       7.78 seconds =       0.13 minutes
	system time =       2.55 seconds =       0.04 minutes
	total time  =         22 seconds =       0.37 minutes
Total time:
	user time   =       7.78 seconds =       0.13 minutes
	system time =       2.55 seconds =       0.04 minutes
	total time  =         22 seconds =       0.37 minutes
                                     G D M A

                                 by Anthony Stone

                           version 2.2.06, 22 June 2011

               Distributed Multipoles from Gaussian wavefunctions

Starting at 0:46:57 on 27 Apr 2020

Using SCF density matrix from file ./SSI/SSI-151THR-163THR-1-dimer.test.10808.fchk

                         Distributed Multipole Analysis

Standard DMA

Positions and radii in angstrom
Multipole moments in atomic units, ea_0^k for rank k

C          x =  0.012072  y = -0.538744  z =  1.326840 angstrom
           Maximum rank =  0   Radius =  0.650 angstrom
                   Q00  =  -0.221926

C          x = -0.371928  y = -1.650744  z =  2.276840 angstrom
           Maximum rank =  0   Radius =  0.650 angstrom
                   Q00  =  -0.220414

H          x =  0.128072  y = -1.095744  z =  0.404840 angstrom
           Maximum rank =  0   Radius =  0.325 angstrom
                   Q00  =   0.071299

H          x = -0.801928  y =  0.185256  z =  1.293840 angstrom
           Maximum rank =  0   Radius =  0.325 angstrom
                   Q00  =   0.072543

H          x =  0.929072  y = -0.035744  z =  1.633840 angstrom
           Maximum rank =  0   Radius =  0.325 angstrom
                   Q00  =   0.076546

H          x = -0.411928  y = -1.247744  z =  3.289840 angstrom
           Maximum rank =  0   Radius =  0.325 angstrom
                   Q00  =   0.071641

H          x =  0.356164  y = -2.474394  z =  2.238330 angstrom
           Maximum rank =  0   Radius =  0.325 angstrom
                   Q00  =   0.073249

H          x = -1.368988  y = -2.014154  z =  1.987350 angstrom
           Maximum rank =  0   Radius =  0.325 angstrom
                   Q00  =   0.072376

C          x = -0.077928  y =  0.591256  z = -1.302160 angstrom
           Maximum rank =  0   Radius =  0.650 angstrom
                   Q00  =  -0.214922

C          x =  0.441072  y =  1.596256  z = -2.299160 angstrom
           Maximum rank =  0   Radius =  0.650 angstrom
                   Q00  =  -0.217970

H          x =  0.835072  y =  0.308256  z = -0.793160 angstrom
           Maximum rank =  0   Radius =  0.325 angstrom
                   Q00  =   0.071450

H          x = -0.790928  y =  1.096256  z = -0.652160 angstrom
           Maximum rank =  0   Radius =  0.325 angstrom
                   Q00  =   0.072274

H          x = -0.571928  y = -0.251744  z = -1.785160 angstrom
           Maximum rank =  0   Radius =  0.325 angstrom
                   Q00  =   0.077041

H          x = -0.377928  y =  1.860256  z = -2.969160 angstrom
           Maximum rank =  0   Radius =  0.325 angstrom
                   Q00  =   0.069669

H          x =  1.267023  y =  1.185066  z = -2.898100 angstrom
           Maximum rank =  0   Radius =  0.325 angstrom
                   Q00  =   0.073056

H          x =  0.769047  y =  2.507976  z = -1.778400 angstrom
           Maximum rank =  0   Radius =  0.325 angstrom
                   Q00  =   0.074089

Total multipoles referred to origin at
           x =   0.000000,  y =    0.000000,  z =    0.000000 angstrom
                   Q00  =  -0.000000

Finished at 0:46:57 on 27 Apr 2020

  DMA results are available in the Python driver through the
	  variable('DMA DISTRIBUTED MULTIPOLES')
  and
	  variable('DMA TOTAL MULTIPOLES')
  commands.

    Psi4 stopped on: Monday, 27 April 2020 12:46AM
    Psi4 wall time for execution: 0:00:21.94

*** Psi4 exiting successfully. Buy a developer a beer!
