                               Psi4 1.3.2 release

  ==> Input File <==

--------------------------------------------------------------------------
import numpy as np
set {scf_type pk
basis cc-pvdz
d_convergence 10
gdma_switch   0
gdma_limit    0
gdma_origin   [ 0.0,  0.0,  0.0 ]
}
molecule test {
    units Angstrom
    0 1
    --
    0 1
    C               -1.986891225532441    -2.678559419022629    -0.840526193752524
    C               -1.270891225532440    -3.997559419022629    -1.057526193752524
    H               -3.061891225532440    -2.832559419022629    -0.876526193752524
    H               -1.747891225532441    -2.289559419022629     0.148473806247476
    H               -1.668891225532441    -1.951559419022629    -1.585526193752524
    H               -1.669891225532441    -4.712559419022630    -0.337526193752524
    H               -1.439478225532441    -4.380646419022630    -2.074788193752524
    H               -0.197020225532441    -3.867750419022630    -0.857650193752524
    C               -0.928891225532441     1.751440580977371     2.165473806247476
    C                0.238108774467559    -0.009559419022629     0.769473806247476
    C               -0.055891225532441     1.336440580977371     1.007473806247476
    C                1.089108774467559    -0.370559419022629    -0.268526193752524
    C                0.522108774467559     2.305440580977371     0.181473806247476
    C                1.647108774467559     0.595440580977371    -1.081526193752524
    C                1.379108774467559     1.931440580977371    -0.859526193752524
    H               -0.178891225532441    -0.774559419022629     1.409473806247476
    H                1.351108774467559    -1.402559419022629    -0.422526193752524
    H               -0.427891225532441     2.562440580977371     2.694473806247477
    H               -1.024891225532441     0.918440580977371     2.861473806247476
    H                0.324108774467559     3.350440580977371     0.357473806247476
    H                2.310108774467559     0.312440580977371    -1.886526193752524
    H                1.825108774467559     2.688440580977371    -1.488526193752524
    H               -1.930470225532441     2.092464480977371     1.864570806247476

}
e, wfn = energy('scf', return_wfn=True)
gdma(wfn)
dmavals = variable('DMA DISTRIBUTED MULTIPOLES')
charges = np.array(dmavals)
print(charges)
np.save('SSI-002VAL-042PHE-1-dimer.npy', np.array(charges))--------------------------------------------------------------------------

*** tstart() called on ds3
*** at Tue Apr 28 09:39:33 2020

   => Loading Basis Set <=

    Name: CC-PVDZ
    Role: ORBITAL
    Keyword: BASIS
    atoms 1-2, 9-15  entry C          line   138 file /theoryfs2/ds/metcalf/miniconda2/envs/tf2gpu/share/psi4/basis/cc-pvdz.gbs
    atoms 3-8, 16-23 entry H          line    22 file /theoryfs2/ds/metcalf/miniconda2/envs/tf2gpu/share/psi4/basis/cc-pvdz.gbs

         ---------------------------------------------------------
                                   SCF
               by Justin Turney, Rob Parrish, Andy Simmonett
                          and Daniel G. A. Smith
                              RHF Reference
                        1 Threads,    500 MiB Core
         ---------------------------------------------------------

  ==> Geometry <==

    Molecular point group: c1
    Full point group: C1

    Geometry (in Angstrom), charge = 0, multiplicity = 1:

       Center              X                  Y                   Z               Mass
    ------------   -----------------  -----------------  -----------------  -----------------
         C           -1.986891225532    -2.678559419023    -0.840526193753    12.000000000000
         C           -1.270891225532    -3.997559419023    -1.057526193753    12.000000000000
         H           -3.061891225532    -2.832559419023    -0.876526193753     1.007825032230
         H           -1.747891225532    -2.289559419023     0.148473806247     1.007825032230
         H           -1.668891225532    -1.951559419023    -1.585526193753     1.007825032230
         H           -1.669891225532    -4.712559419023    -0.337526193753     1.007825032230
         H           -1.439478225532    -4.380646419023    -2.074788193753     1.007825032230
         H           -0.197020225532    -3.867750419023    -0.857650193753     1.007825032230
         C           -0.928891225532     1.751440580977     2.165473806247    12.000000000000
         C            0.238108774468    -0.009559419023     0.769473806247    12.000000000000
         C           -0.055891225532     1.336440580977     1.007473806247    12.000000000000
         C            1.089108774468    -0.370559419023    -0.268526193753    12.000000000000
         C            0.522108774468     2.305440580977     0.181473806247    12.000000000000
         C            1.647108774468     0.595440580977    -1.081526193753    12.000000000000
         C            1.379108774468     1.931440580977    -0.859526193753    12.000000000000
         H           -0.178891225532    -0.774559419023     1.409473806247     1.007825032230
         H            1.351108774468    -1.402559419023    -0.422526193753     1.007825032230
         H           -0.427891225532     2.562440580977     2.694473806247     1.007825032230
         H           -1.024891225532     0.918440580977     2.861473806247     1.007825032230
         H            0.324108774468     3.350440580977     0.357473806247     1.007825032230
         H            2.310108774468     0.312440580977    -1.886526193753     1.007825032230
         H            1.825108774468     2.688440580977    -1.488526193753     1.007825032230
         H           -1.930470225532     2.092464480977     1.864570806247     1.007825032230

  Running in c1 symmetry.

  Rotational constants: A =      0.07176  B =      0.02405  C =      0.01943 [cm^-1]
  Rotational constants: A =   2151.41367  B =    721.10771  C =    582.37581 [MHz]
  Nuclear repulsion =  404.172911949145771

  Charge       = 0
  Multiplicity = 1
  Electrons    = 68
  Nalpha       = 34
  Nbeta        = 34

  ==> Algorithm <==

  SCF Algorithm Type is PK.
  DIIS enabled.
  MOM disabled.
  Fractional occupation disabled.
  Guess Type is SAD.
  Energy threshold   = 1.00e-06
  Density threshold  = 1.00e-10
  Integral threshold = 0.00e+00

  ==> Primary Basis <==

  Basis Set: CC-PVDZ
    Blend: CC-PVDZ
    Number of shells: 96
    Number of basis function: 196
    Number of Cartesian functions: 205
    Spherical Harmonics?: true
    Max angular momentum: 2

  ==> Pre-Iterations <==

   -------------------------------------------------------
    Irrep   Nso     Nmo     Nalpha   Nbeta   Ndocc  Nsocc
   -------------------------------------------------------
     A        196     196       0       0       0       0
   -------------------------------------------------------
    Total     196     196      34      34      34       0
   -------------------------------------------------------

  ==> Integral Setup <==

  Using integral reordering PK algorithm.
  Sizing the integral batches needed.
  Building batch lookup table.
   Calculation information:
      Number of atoms:                  23
      Number of AO shells:              96
      Number of primitives:            268
      Number of atomic orbitals:       205
      Number of basis functions:       196

      Integral cutoff                 1.00e-12
      Number of threads:                 1

	Batch   1 pq = [       0,    9405] index = [             0,44231715] size =     44231715
	Batch   2 pq = [    9405,   13301] index = [      44231715,88464951] size =     44233236
	Batch   3 pq = [   13301,   16290] index = [      88464951,132690195] size =     44225244
	Batch   4 pq = [   16290,   18810] index = [     132690195,176917455] size =     44227260
	Batch   5 pq = [   18810,   19306] index = [     176917455,186370471] size =      9453016
  Task number: 17
  Buffer size: 11059200
  Buffer per thread: 2
  We computed 9082886 shell quartets total.
  Whereas there are 10841496 unique shell quartets.

  ==> DiskJK: Disk-Based J/K Matrices <==

    J tasked:                  Yes
    K tasked:                  Yes
    wK tasked:                  No
    Memory [MiB]:              375
    Schwarz Cutoff:          1E-12

    OpenMP threads:              1

  Minimum eigenvalue in the overlap matrix is 3.0524281247E-04.
  Using Symmetric Orthogonalization.

  SCF Guess: Superposition of Atomic Densities via on-the-fly atomic UHF.

  ==> Iterations <==

                        Total Energy        Delta E     RMS |[F,P]|

   @RHF iter SAD:  -347.89896893078640   -3.47899e+02   0.00000e+00
   @RHF iter   1:  -348.76483200527389   -8.65863e-01   2.91438e-03 DIIS
   @RHF iter   2:  -348.95931431172266   -1.94482e-01   1.21142e-03 DIIS
   @RHF iter   3:  -348.98994672484059   -3.06324e-02   2.57111e-04 DIIS
   @RHF iter   4:  -348.99242362542248   -2.47690e-03   4.70913e-05 DIIS
   @RHF iter   5:  -348.99248626974799   -6.26443e-05   1.45715e-05 DIIS
   @RHF iter   6:  -348.99249188375012   -5.61400e-06   3.61324e-06 DIIS
   @RHF iter   7:  -348.99249226485193   -3.81102e-07   1.31236e-06 DIIS
   @RHF iter   8:  -348.99249231486397   -5.00120e-08   3.05744e-07 DIIS
   @RHF iter   9:  -348.99249232121275   -6.34878e-09   1.45014e-07 DIIS
   @RHF iter  10:  -348.99249232272598   -1.51323e-09   6.72942e-08 DIIS
   @RHF iter  11:  -348.99249232328060   -5.54621e-10   2.62420e-08 DIIS
   @RHF iter  12:  -348.99249232335421   -7.36122e-11   1.27844e-08 DIIS
   @RHF iter  13:  -348.99249232336388   -9.66338e-12   4.07612e-09 DIIS
   @RHF iter  14:  -348.99249232336609   -2.21689e-12   1.15478e-09 DIIS
   @RHF iter  15:  -348.99249232336501    1.08002e-12   4.30746e-10 DIIS
   @RHF iter  16:  -348.99249232336570   -6.82121e-13   1.67397e-10 DIIS
   @RHF iter  17:  -348.99249232336535    3.41061e-13   6.77106e-11 DIIS
  Energy and wave function converged.

  ==> Post-Iterations <==

    Orbital Energies [Eh]
    ---------------------

    Doubly Occupied:

       1A    -11.241634     2A    -11.234477     3A    -11.232952
       4A    -11.230797     5A    -11.230750     6A    -11.229737
       7A    -11.228122     8A    -11.217309     9A    -11.211657
      10A     -1.152971    11A     -1.045246    12A     -1.019989
      13A     -1.010901    14A     -0.931676    15A     -0.832998
      16A     -0.825927    17A     -0.794435    18A     -0.691906
      19A     -0.631506    20A     -0.630447    21A     -0.600119
      22A     -0.597563    23A     -0.581372    24A     -0.576025
      25A     -0.562248    26A     -0.536428    27A     -0.500063
      28A     -0.489364    29A     -0.485616    30A     -0.482335
      31A     -0.481214    32A     -0.479721    33A     -0.331039
      34A     -0.322802

    Virtual:

      35A      0.134563    36A      0.142243    37A      0.167263
      38A      0.193502    39A      0.204124    40A      0.222003
      41A      0.232009    42A      0.241899    43A      0.253396
      44A      0.260271    45A      0.263485    46A      0.275599
      47A      0.277870    48A      0.285422    49A      0.333191
      50A      0.345098    51A      0.373422    52A      0.382351
      53A      0.405509    54A      0.459611    55A      0.465323
      56A      0.478304    57A      0.495357    58A      0.563860
      59A      0.583401    60A      0.599177    61A      0.602100
      62A      0.619476    63A      0.634987    64A      0.657149
      65A      0.682953    66A      0.685923    67A      0.692439
      68A      0.704533    69A      0.718115    70A      0.741226
      71A      0.744901    72A      0.749247    73A      0.759303
      74A      0.770417    75A      0.785954    76A      0.814569
      77A      0.830050    78A      0.854345    79A      0.861698
      80A      0.866894    81A      0.872663    82A      0.884291
      83A      0.893035    84A      0.895928    85A      0.900565
      86A      0.911299    87A      0.916882    88A      0.917377
      89A      0.933787    90A      0.940486    91A      0.947944
      92A      0.975812    93A      0.983255    94A      0.999338
      95A      1.023261    96A      1.054934    97A      1.122394
      98A      1.127377    99A      1.134291   100A      1.147192
     101A      1.154895   102A      1.158522   103A      1.187032
     104A      1.232951   105A      1.239751   106A      1.243750
     107A      1.256053   108A      1.270108   109A      1.301087
     110A      1.310702   111A      1.317596   112A      1.333684
     113A      1.416285   114A      1.478587   115A      1.496195
     116A      1.505034   117A      1.525774   118A      1.549749
     119A      1.571038   120A      1.601159   121A      1.678355
     122A      1.683066   123A      1.693157   124A      1.700799
     125A      1.739896   126A      1.750006   127A      1.767433
     128A      1.792308   129A      1.812144   130A      1.857998
     131A      1.861608   132A      1.868818   133A      1.890348
     134A      1.898935   135A      1.904273   136A      1.905827
     137A      1.918573   138A      1.924872   139A      1.944243
     140A      1.947616   141A      1.954131   142A      1.957699
     143A      1.964756   144A      1.967897   145A      1.980518
     146A      1.981253   147A      1.998552   148A      2.008138
     149A      2.040883   150A      2.050734   151A      2.071837
     152A      2.100509   153A      2.123089   154A      2.132674
     155A      2.140630   156A      2.164880   157A      2.170800
     158A      2.179529   159A      2.193638   160A      2.244796
     161A      2.278977   162A      2.292797   163A      2.293617
     164A      2.303293   165A      2.320265   166A      2.330573
     167A      2.342427   168A      2.455455   169A      2.461010
     170A      2.469980   171A      2.477517   172A      2.513001
     173A      2.538269   174A      2.568250   175A      2.587897
     176A      2.630273   177A      2.737791   178A      2.752614
     179A      2.767143   180A      2.772430   181A      2.789852
     182A      2.805739   183A      2.820799   184A      2.849595
     185A      2.855695   186A      2.856323   187A      2.868596
     188A      2.956633   189A      2.969048   190A      2.983712
     191A      3.015675   192A      3.035579   193A      3.161570
     194A      3.203649   195A      3.305379   196A      3.976687

    Final Occupation by Irrep:
              A
    DOCC [    34 ]

  @RHF Final Energy:  -348.99249232336535

   => Energetics <=

    Nuclear Repulsion Energy =            404.1729119491457709
    One-Electron Energy =               -1271.0281203322529109
    Two-Electron Energy =                 517.8627160597417287
    Total Energy =                       -348.9924923233653544

Computation Completed

Properties will be evaluated at   0.000000,   0.000000,   0.000000 [a0]

Properties computed using the SCF density matrix

  Nuclear Dipole Moment: [e a0]
     X:    -7.0655      Y:    -9.6438      Z:    -0.1815

  Electronic Dipole Moment: [e a0]
     X:     7.0162      Y:     9.7338      Z:     0.2986

  Dipole Moment: [e a0]
     X:    -0.0493      Y:     0.0899      Z:     0.1171     Total:     0.1556

  Dipole Moment: [D]
     X:    -0.1253      Y:     0.2286      Z:     0.2976     Total:     0.3956

*** tstop() called on ds3 at Tue Apr 28 09:41:29 2020
Module time:
	user time   =      62.98 seconds =       1.05 minutes
	system time =      29.14 seconds =       0.49 minutes
	total time  =        116 seconds =       1.93 minutes
Total time:
	user time   =      62.98 seconds =       1.05 minutes
	system time =      29.14 seconds =       0.49 minutes
	total time  =        116 seconds =       1.93 minutes
                                     G D M A

                                 by Anthony Stone

                           version 2.2.06, 22 June 2011

               Distributed Multipoles from Gaussian wavefunctions

Starting at 9:41:29 on 28 Apr 2020

Using SCF density matrix from file ./SSI/SSI-002VAL-042PHE-1-dimer.test.11202.fchk

                         Distributed Multipole Analysis

Standard DMA

Positions and radii in angstrom
Multipole moments in atomic units, ea_0^k for rank k

C          x = -1.986891  y = -2.678559  z = -0.840526 angstrom
           Maximum rank =  0   Radius =  0.650 angstrom
                   Q00  =  -0.225902

C          x = -1.270891  y = -3.997559  z = -1.057526 angstrom
           Maximum rank =  0   Radius =  0.650 angstrom
                   Q00  =  -0.235427

H          x = -3.061891  y = -2.832559  z = -0.876526 angstrom
           Maximum rank =  0   Radius =  0.325 angstrom
                   Q00  =   0.076006

H          x = -1.747891  y = -2.289559  z =  0.148474 angstrom
           Maximum rank =  0   Radius =  0.325 angstrom
                   Q00  =   0.074423

H          x = -1.668891  y = -1.951559  z = -1.585526 angstrom
           Maximum rank =  0   Radius =  0.325 angstrom
                   Q00  =   0.084534

H          x = -1.669891  y = -4.712559  z = -0.337526 angstrom
           Maximum rank =  0   Radius =  0.325 angstrom
                   Q00  =   0.074136

H          x = -1.439478  y = -4.380646  z = -2.074788 angstrom
           Maximum rank =  0   Radius =  0.325 angstrom
                   Q00  =   0.080241

H          x = -0.197020  y = -3.867750  z = -0.857650 angstrom
           Maximum rank =  0   Radius =  0.325 angstrom
                   Q00  =   0.072848

C          x = -0.928891  y =  1.751441  z =  2.165474 angstrom
           Maximum rank =  0   Radius =  0.650 angstrom
                   Q00  =  -0.204398

C          x =  0.238109  y = -0.009559  z =  0.769474 angstrom
           Maximum rank =  0   Radius =  0.650 angstrom
                   Q00  =  -0.048166

C          x = -0.055891  y =  1.336441  z =  1.007474 angstrom
           Maximum rank =  0   Radius =  0.650 angstrom
                   Q00  =  -0.098727

C          x =  1.089109  y = -0.370559  z = -0.268526 angstrom
           Maximum rank =  0   Radius =  0.650 angstrom
                   Q00  =  -0.023272

C          x =  0.522109  y =  2.305441  z =  0.181474 angstrom
           Maximum rank =  0   Radius =  0.650 angstrom
                   Q00  =  -0.078398

C          x =  1.647109  y =  0.595441  z = -1.081526 angstrom
           Maximum rank =  0   Radius =  0.650 angstrom
                   Q00  =  -0.084205

C          x =  1.379109  y =  1.931441  z = -0.859526 angstrom
           Maximum rank =  0   Radius =  0.650 angstrom
                   Q00  =  -0.067261

H          x = -0.178891  y = -0.774559  z =  1.409474 angstrom
           Maximum rank =  0   Radius =  0.325 angstrom
                   Q00  =   0.059585

H          x =  1.351109  y = -1.402559  z = -0.422526 angstrom
           Maximum rank =  0   Radius =  0.325 angstrom
                   Q00  =   0.063398

H          x = -0.427891  y =  2.562441  z =  2.694474 angstrom
           Maximum rank =  0   Radius =  0.325 angstrom
                   Q00  =   0.099069

H          x = -1.024891  y =  0.918441  z =  2.861474 angstrom
           Maximum rank =  0   Radius =  0.325 angstrom
                   Q00  =   0.097794

H          x =  0.324109  y =  3.350441  z =  0.357474 angstrom
           Maximum rank =  0   Radius =  0.325 angstrom
                   Q00  =   0.056302

H          x =  2.310109  y =  0.312441  z = -1.886526 angstrom
           Maximum rank =  0   Radius =  0.325 angstrom
                   Q00  =   0.057964

H          x =  1.825109  y =  2.688441  z = -1.488526 angstrom
           Maximum rank =  0   Radius =  0.325 angstrom
                   Q00  =   0.064131

H          x = -1.930470  y =  2.092464  z =  1.864571 angstrom
           Maximum rank =  0   Radius =  0.325 angstrom
                   Q00  =   0.105326

Total multipoles referred to origin at
           x =   0.000000,  y =    0.000000,  z =    0.000000 angstrom
                   Q00  =  -0.000000

Finished at 9:41:29 on 28 Apr 2020

  DMA results are available in the Python driver through the
	  variable('DMA DISTRIBUTED MULTIPOLES')
  and
	  variable('DMA TOTAL MULTIPOLES')
  commands.

    Psi4 stopped on: Tuesday, 28 April 2020 09:41AM
    Psi4 wall time for execution: 0:01:55.61

*** Psi4 exiting successfully. Buy a developer a beer!
