                               Psi4 1.3.2 release

  ==> Input File <==

--------------------------------------------------------------------------
import numpy as np
set {scf_type pk
basis cc-pvdz
d_convergence 10
gdma_switch   0
gdma_limit    0
gdma_origin   [ 0.0,  0.0,  0.0 ]
}
molecule test {
    units Angstrom
    -1 1
    --
    -1 1
    C                0.713924917049539    -3.957325203049519    -2.413771044067717
    C               -0.253075082950462     0.024674796950481    -1.066771044067717
    C               -0.022075082950462    -0.220325203049519    -2.407771044067718
    C               -0.158075082950462    -1.012325203049518    -0.153771044067717
    C                0.302924917049538    -1.505325203049519    -2.837771044067718
    C                0.170924917049538    -2.298325203049519    -0.584771044067717
    C                0.413924917049538    -2.555325203049519    -1.932771044067717
    O               -0.573075082950462     1.286674796950481    -0.669771044067717
    H               -0.433075082950462     1.923674796950481    -1.378771044067717
    H               -0.095075082950462     0.585674796950481    -3.124771044067718
    H               -0.440075082950462    -0.795325203049519     0.855228955932282
    H                0.472924917049538    -1.685325203049519    -3.891771044067718
    H                0.217924917049538    -3.106325203049519     0.132228955932283
    H                1.220924917049538    -4.495325203049518    -1.618771044067717
    H                1.370924917049539    -3.893325203049519    -3.278771044067718
    H               -0.200225082950462    -4.501204203049519    -2.693995044067718
    C                1.194924917049538     2.162674796950481     2.209228955932282
    C               -0.193075082950462     2.266674796950481     2.795228955932282
    O               -1.151075082950462     2.179674796950481     1.998228955932283
    O               -0.328075082950462     2.459674796950481     4.025228955932282
    H                1.273924917049539     2.830674796950481     1.348228955932283
    H                1.362924917049539     1.137674796950481     1.868228955932283
    H                1.977525717049538     2.426901796950481     2.935672955932282

}
e, wfn = energy('scf', return_wfn=True)
gdma(wfn)
dmavals = variable('DMA DISTRIBUTED MULTIPOLES')
charges = np.array(dmavals)
print(charges)
np.save('SSI-049TYR-098GLU-1-dimer.npy', np.array(charges))--------------------------------------------------------------------------

*** tstart() called on ds3
*** at Mon Apr 27 13:04:19 2020

   => Loading Basis Set <=

    Name: CC-PVDZ
    Role: ORBITAL
    Keyword: BASIS
    atoms 1-7, 17-18  entry C          line   138 file /theoryfs2/ds/metcalf/miniconda2/envs/tf2gpu/share/psi4/basis/cc-pvdz.gbs
    atoms 8, 19-20    entry O          line   198 file /theoryfs2/ds/metcalf/miniconda2/envs/tf2gpu/share/psi4/basis/cc-pvdz.gbs
    atoms 9-16, 21-23 entry H          line    22 file /theoryfs2/ds/metcalf/miniconda2/envs/tf2gpu/share/psi4/basis/cc-pvdz.gbs

         ---------------------------------------------------------
                                   SCF
               by Justin Turney, Rob Parrish, Andy Simmonett
                          and Daniel G. A. Smith
                              RHF Reference
                        1 Threads,    500 MiB Core
         ---------------------------------------------------------

  ==> Geometry <==

    Molecular point group: c1
    Full point group: C1

    Geometry (in Angstrom), charge = -1, multiplicity = 1:

       Center              X                  Y                   Z               Mass
    ------------   -----------------  -----------------  -----------------  -----------------
         C            0.713924917050    -3.957325203050    -2.413771044068    12.000000000000
         C           -0.253075082950     0.024674796950    -1.066771044068    12.000000000000
         C           -0.022075082950    -0.220325203050    -2.407771044068    12.000000000000
         C           -0.158075082950    -1.012325203050    -0.153771044068    12.000000000000
         C            0.302924917050    -1.505325203050    -2.837771044068    12.000000000000
         C            0.170924917050    -2.298325203050    -0.584771044068    12.000000000000
         C            0.413924917050    -2.555325203050    -1.932771044068    12.000000000000
         O           -0.573075082950     1.286674796950    -0.669771044068    15.994914619570
         H           -0.433075082950     1.923674796950    -1.378771044068     1.007825032230
         H           -0.095075082950     0.585674796950    -3.124771044068     1.007825032230
         H           -0.440075082950    -0.795325203050     0.855228955932     1.007825032230
         H            0.472924917050    -1.685325203050    -3.891771044068     1.007825032230
         H            0.217924917050    -3.106325203050     0.132228955932     1.007825032230
         H            1.220924917050    -4.495325203050    -1.618771044068     1.007825032230
         H            1.370924917050    -3.893325203050    -3.278771044068     1.007825032230
         H           -0.200225082950    -4.501204203050    -2.693995044068     1.007825032230
         C            1.194924917050     2.162674796950     2.209228955932    12.000000000000
         C           -0.193075082950     2.266674796950     2.795228955932    12.000000000000
         O           -1.151075082950     2.179674796950     1.998228955932    15.994914619570
         O           -0.328075082950     2.459674796950     4.025228955932    15.994914619570
         H            1.273924917050     2.830674796950     1.348228955932     1.007825032230
         H            1.362924917050     1.137674796950     1.868228955932     1.007825032230
         H            1.977525717050     2.426901796950     2.935672955932     1.007825032230

  Running in c1 symmetry.

  Rotational constants: A =      0.07502  B =      0.01112  C =      0.01031 [cm^-1]
  Rotational constants: A =   2248.96123  B =    333.48178  C =    309.11020 [MHz]
  Nuclear repulsion =  635.266046702283802

  Charge       = -1
  Multiplicity = 1
  Electrons    = 90
  Nalpha       = 45
  Nbeta        = 45

  ==> Algorithm <==

  SCF Algorithm Type is PK.
  DIIS enabled.
  MOM disabled.
  Fractional occupation disabled.
  Guess Type is SAD.
  Energy threshold   = 1.00e-06
  Density threshold  = 1.00e-10
  Integral threshold = 0.00e+00

  ==> Primary Basis <==

  Basis Set: CC-PVDZ
    Blend: CC-PVDZ
    Number of shells: 105
    Number of basis function: 223
    Number of Cartesian functions: 235
    Spherical Harmonics?: true
    Max angular momentum: 2

  ==> Pre-Iterations <==

   -------------------------------------------------------
    Irrep   Nso     Nmo     Nalpha   Nbeta   Ndocc  Nsocc
   -------------------------------------------------------
     A        223     223       0       0       0       0
   -------------------------------------------------------
    Total     223     223      45      45      45       0
   -------------------------------------------------------

  ==> Integral Setup <==

  Using integral reordering PK algorithm.
  Sizing the integral batches needed.
  Building batch lookup table.
   Calculation information:
      Number of atoms:                  23
      Number of AO shells:             105
      Number of primitives:            319
      Number of atomic orbitals:       235
      Number of basis functions:       223

      Integral cutoff                 1.00e-12
      Number of threads:                 1

	Batch   1 pq = [       0,    9405] index = [             0,44231715] size =     44231715
	Batch   2 pq = [    9405,   13301] index = [      44231715,88464951] size =     44233236
	Batch   3 pq = [   13301,   16290] index = [      88464951,132690195] size =     44225244
	Batch   4 pq = [   16290,   18810] index = [     132690195,176917455] size =     44227260
	Batch   5 pq = [   18810,   21030] index = [     176917455,221140965] size =     44223510
	Batch   6 pq = [   21030,   23037] index = [     221140965,265363203] size =     44222238
	Batch   7 pq = [   23037,   24976] index = [     265363203,311912776] size =     46549573
  Task number: 29
  Buffer size: 11059200
  Buffer per thread: 2
  We computed 12502410 shell quartets total.
  Whereas there are 15487395 unique shell quartets.

  ==> DiskJK: Disk-Based J/K Matrices <==

    J tasked:                  Yes
    K tasked:                  Yes
    wK tasked:                  No
    Memory [MiB]:              375
    Schwarz Cutoff:          1E-12

    OpenMP threads:              1

  Minimum eigenvalue in the overlap matrix is 3.2088319107E-04.
  Using Symmetric Orthogonalization.

  SCF Guess: Superposition of Atomic Densities via on-the-fly atomic UHF.

  ==> Iterations <==

                        Total Energy        Delta E     RMS |[F,P]|

   @RHF iter SAD:  -570.23044800579521   -5.70230e+02   0.00000e+00
   @RHF iter   1:  -571.48707037293229   -1.25662e+00   3.73747e-03 DIIS
   @RHF iter   2:  -571.77674001831917   -2.89670e-01   1.97986e-03 DIIS
   @RHF iter   3:  -571.84924451789800   -7.25045e-02   3.43504e-04 DIIS
   @RHF iter   4:  -571.85309474179371   -3.85022e-03   1.26607e-04 DIIS
   @RHF iter   5:  -571.85362610077709   -5.31359e-04   2.09397e-05 DIIS
   @RHF iter   6:  -571.85364743884656   -2.13381e-05   7.58555e-06 DIIS
   @RHF iter   7:  -571.85365004665550   -2.60781e-06   3.16437e-06 DIIS
   @RHF iter   8:  -571.85365056785872   -5.21203e-07   1.01354e-06 DIIS
   @RHF iter   9:  -571.85365066420616   -9.63474e-08   4.38300e-07 DIIS
   @RHF iter  10:  -571.85365068572037   -2.15142e-08   1.90189e-07 DIIS
   @RHF iter  11:  -571.85365069164209   -5.92172e-09   7.18573e-08 DIIS
   @RHF iter  12:  -571.85365069242050   -7.78414e-10   3.41035e-08 DIIS
   @RHF iter  13:  -571.85365069251316   -9.26548e-11   9.65534e-09 DIIS
   @RHF iter  14:  -571.85365069252668   -1.35287e-11   3.70773e-09 DIIS
   @RHF iter  15:  -571.85365069251907    7.61702e-12   1.41434e-09 DIIS
   @RHF iter  16:  -571.85365069252907   -1.00044e-11   7.11795e-10 DIIS
   @RHF iter  17:  -571.85365069252020    8.86757e-12   3.03412e-10 DIIS
   @RHF iter  18:  -571.85365069252521   -5.00222e-12   1.18472e-10 DIIS
   @RHF iter  19:  -571.85365069252441    7.95808e-13   5.04771e-11 DIIS
  Energy and wave function converged.

  ==> Post-Iterations <==

    Orbital Energies [Eh]
    ---------------------

    Doubly Occupied:

       1A    -20.463087     2A    -20.246202     3A    -20.243403
       4A    -11.196044     5A    -11.154626     6A    -11.150227
       7A    -11.147462     8A    -11.144805     9A    -11.138607
      10A    -11.128203    11A    -11.102122    12A    -11.040122
      13A     -1.283083    14A     -1.135583    15A     -1.060278
      16A     -1.022671    17A     -0.950074    18A     -0.924125
      19A     -0.841838    20A     -0.787306    21A     -0.751640
      22A     -0.705342    23A     -0.628598    24A     -0.572172
      25A     -0.549266    26A     -0.516148    27A     -0.500149
      28A     -0.492421    29A     -0.489849    30A     -0.473920
      31A     -0.468858    32A     -0.434544    33A     -0.409751
      34A     -0.403268    35A     -0.396388    36A     -0.392094
      37A     -0.382070    38A     -0.371603    39A     -0.328282
      40A     -0.290924    41A     -0.246159    42A     -0.206909
      43A     -0.170083    44A     -0.157449    45A     -0.147437

    Virtual:

      46A      0.220663    47A      0.247858    48A      0.260198
      49A      0.276470    50A      0.304413    51A      0.306264
      52A      0.340149    53A      0.347746    54A      0.361150
      55A      0.369507    56A      0.398599    57A      0.418650
      58A      0.430417    59A      0.446849    60A      0.470754
      61A      0.507649    62A      0.534576    63A      0.548453
      64A      0.571478    65A      0.584748    66A      0.589222
      67A      0.597496    68A      0.699258    69A      0.702150
      70A      0.712620    71A      0.724263    72A      0.745208
      73A      0.758828    74A      0.773649    75A      0.787175
      76A      0.796210    77A      0.818315    78A      0.825390
      79A      0.834043    80A      0.837806    81A      0.841700
      82A      0.864511    83A      0.874860    84A      0.885086
      85A      0.901192    86A      0.938584    87A      0.941465
      88A      0.946872    89A      0.952116    90A      0.961912
      91A      0.976649    92A      0.983370    93A      0.985758
      94A      1.005823    95A      1.016055    96A      1.025082
      97A      1.029110    98A      1.035479    99A      1.045707
     100A      1.048848   101A      1.078490   102A      1.104210
     103A      1.117571   104A      1.124710   105A      1.149137
     106A      1.159081   107A      1.220814   108A      1.229803
     109A      1.239714   110A      1.258729   111A      1.264319
     112A      1.288902   113A      1.325547   114A      1.329685
     115A      1.338511   116A      1.356105   117A      1.366960
     118A      1.384157   119A      1.385597   120A      1.403139
     121A      1.422143   122A      1.438227   123A      1.460751
     124A      1.467918   125A      1.477234   126A      1.542780
     127A      1.557423   128A      1.579514   129A      1.590068
     130A      1.595954   131A      1.603346   132A      1.642487
     133A      1.658585   134A      1.690250   135A      1.699864
     136A      1.748065   137A      1.751161   138A      1.758563
     139A      1.775926   140A      1.819966   141A      1.829504
     142A      1.848065   143A      1.857777   144A      1.869522
     145A      1.873228   146A      1.898963   147A      1.907847
     148A      1.964575   149A      1.967300   150A      1.987031
     151A      2.001901   152A      2.006957   153A      2.028410
     154A      2.034726   155A      2.043124   156A      2.061255
     157A      2.075429   158A      2.079477   159A      2.101631
     160A      2.120762   161A      2.128432   162A      2.140721
     163A      2.146107   164A      2.157147   165A      2.162706
     166A      2.172070   167A      2.225743   168A      2.235974
     169A      2.238778   170A      2.256884   171A      2.289315
     172A      2.307404   173A      2.314399   174A      2.350471
     175A      2.356305   176A      2.363231   177A      2.381420
     178A      2.412670   179A      2.426528   180A      2.445111
     181A      2.486070   182A      2.510082   183A      2.556562
     184A      2.568615   185A      2.590478   186A      2.604783
     187A      2.623007   188A      2.666574   189A      2.676356
     190A      2.686107   191A      2.744037   192A      2.755752
     193A      2.791300   194A      2.841709   195A      2.858013
     196A      2.882815   197A      2.908302   198A      2.920232
     199A      2.931583   200A      2.979555   201A      2.984439
     202A      3.013281   203A      3.050992   204A      3.114818
     205A      3.180179   206A      3.194448   207A      3.256193
     208A      3.288837   209A      3.309907   210A      3.375091
     211A      3.380496   212A      3.393659   213A      3.470988
     214A      3.644681   215A      3.716878   216A      3.790112
     217A      3.811273   218A      3.846468   219A      4.064365
     220A      4.088519   221A      4.118093   222A      4.209226
     223A      4.306318

    Final Occupation by Irrep:
              A
    DOCC [    45 ]

  @RHF Final Energy:  -571.85365069252441

   => Energetics <=

    Nuclear Repulsion Energy =            635.2660467022838020
    One-Electron Energy =               -2054.9490156760484751
    Two-Electron Energy =                 847.8293182812402620
    Total Energy =                       -571.8536506925244112

Computation Completed

Properties will be evaluated at   0.000000,   0.000000,   0.000000 [a0]

Properties computed using the SCF density matrix

  Nuclear Dipole Moment: [e a0]
     X:     6.2980      Y:    -8.9452      Z:    -8.2683

  Electronic Dipole Moment: [e a0]
     X:    -4.7776      Y:     5.0700      Z:     2.4593

  Dipole Moment: [e a0]
     X:     1.5205      Y:    -3.8752      Z:    -5.8090     Total:     7.1466

  Dipole Moment: [D]
     X:     3.8646      Y:    -9.8498      Z:   -14.7650     Total:    18.1648

*** tstop() called on ds3 at Mon Apr 27 13:07:16 2020
Module time:
	user time   =     112.33 seconds =       1.87 minutes
	system time =      55.62 seconds =       0.93 minutes
	total time  =        177 seconds =       2.95 minutes
Total time:
	user time   =     112.33 seconds =       1.87 minutes
	system time =      55.62 seconds =       0.93 minutes
	total time  =        177 seconds =       2.95 minutes
                                     G D M A

                                 by Anthony Stone

                           version 2.2.06, 22 June 2011

               Distributed Multipoles from Gaussian wavefunctions

Starting at 13:7:16 on 27 Apr 2020

Using SCF density matrix from file ./SSI/SSI-049TYR-098GLU-1-dimer.test.5243.fchk

                         Distributed Multipole Analysis

Standard DMA

Positions and radii in angstrom
Multipole moments in atomic units, ea_0^k for rank k

C          x =  0.713925  y = -3.957325  z = -2.413771 angstrom
           Maximum rank =  0   Radius =  0.650 angstrom
                   Q00  =  -0.195518

C          x = -0.253075  y =  0.024675  z = -1.066771 angstrom
           Maximum rank =  0   Radius =  0.650 angstrom
                   Q00  =   0.333423

C          x = -0.022075  y = -0.220325  z = -2.407771 angstrom
           Maximum rank =  0   Radius =  0.650 angstrom
                   Q00  =  -0.176160

C          x = -0.158075  y = -1.012325  z = -0.153771 angstrom
           Maximum rank =  0   Radius =  0.650 angstrom
                   Q00  =  -0.089400

C          x =  0.302925  y = -1.505325  z = -2.837771 angstrom
           Maximum rank =  0   Radius =  0.650 angstrom
                   Q00  =   0.053952

C          x =  0.170925  y = -2.298325  z = -0.584771 angstrom
           Maximum rank =  0   Radius =  0.650 angstrom
                   Q00  =  -0.062415

C          x =  0.413925  y = -2.555325  z = -1.932771 angstrom
           Maximum rank =  0   Radius =  0.650 angstrom
                   Q00  =  -0.149479

O          x = -0.573075  y =  1.286675  z = -0.669771 angstrom
           Maximum rank =  0   Radius =  0.650 angstrom
                   Q00  =  -0.610206

H          x = -0.433075  y =  1.923675  z = -1.378771 angstrom
           Maximum rank =  0   Radius =  0.325 angstrom
                   Q00  =   0.382713

H          x = -0.095075  y =  0.585675  z = -3.124771 angstrom
           Maximum rank =  0   Radius =  0.325 angstrom
                   Q00  =   0.054514

H          x = -0.440075  y = -0.795325  z =  0.855229 angstrom
           Maximum rank =  0   Radius =  0.325 angstrom
                   Q00  =   0.097771

H          x =  0.472925  y = -1.685325  z = -3.891771 angstrom
           Maximum rank =  0   Radius =  0.325 angstrom
                   Q00  =   0.044224

H          x =  0.217925  y = -3.106325  z =  0.132229 angstrom
           Maximum rank =  0   Radius =  0.325 angstrom
                   Q00  =   0.049734

H          x =  1.220925  y = -4.495325  z = -1.618771 angstrom
           Maximum rank =  0   Radius =  0.325 angstrom
                   Q00  =   0.091345

H          x =  1.370925  y = -3.893325  z = -3.278771 angstrom
           Maximum rank =  0   Radius =  0.325 angstrom
                   Q00  =   0.084946

H          x = -0.200225  y = -4.501204  z = -2.693995 angstrom
           Maximum rank =  0   Radius =  0.325 angstrom
                   Q00  =   0.087449

C          x =  1.194925  y =  2.162675  z =  2.209229 angstrom
           Maximum rank =  0   Radius =  0.650 angstrom
                   Q00  =  -0.279546

C          x = -0.193075  y =  2.266675  z =  2.795229 angstrom
           Maximum rank =  0   Radius =  0.650 angstrom
                   Q00  =   0.988878

O          x = -1.151075  y =  2.179675  z =  1.998229 angstrom
           Maximum rank =  0   Radius =  0.650 angstrom
                   Q00  =  -0.935634

O          x = -0.328075  y =  2.459675  z =  4.025229 angstrom
           Maximum rank =  0   Radius =  0.650 angstrom
                   Q00  =  -0.941254

H          x =  1.273925  y =  2.830675  z =  1.348229 angstrom
           Maximum rank =  0   Radius =  0.325 angstrom
                   Q00  =   0.060312

H          x =  1.362925  y =  1.137675  z =  1.868229 angstrom
           Maximum rank =  0   Radius =  0.325 angstrom
                   Q00  =   0.072213

H          x =  1.977526  y =  2.426902  z =  2.935673 angstrom
           Maximum rank =  0   Radius =  0.325 angstrom
                   Q00  =   0.038137

Total multipoles referred to origin at
           x =   0.000000,  y =    0.000000,  z =    0.000000 angstrom
                   Q00  =  -1.000000

Finished at 13:7:16 on 27 Apr 2020

  DMA results are available in the Python driver through the
	  variable('DMA DISTRIBUTED MULTIPOLES')
  and
	  variable('DMA TOTAL MULTIPOLES')
  commands.

    Psi4 stopped on: Monday, 27 April 2020 01:07PM
    Psi4 wall time for execution: 0:02:57.09

*** Psi4 exiting successfully. Buy a developer a beer!
