                               Psi4 1.3.2 release

  ==> Input File <==

--------------------------------------------------------------------------
import numpy as np
set {scf_type pk
basis cc-pvdz
d_convergence 10
gdma_switch   0
gdma_limit    0
gdma_origin   [ 0.0,  0.0,  0.0 ]
}
molecule test {
    units Angstrom
    0 1
    --
    0 1
    C               -2.089805669953666    -3.441383141897770    -2.936196786799597
    C               -2.238805669953666    -2.780383141897770    -4.301196786799597
    H               -1.134805669953666    -3.175383141897770    -2.484196786799597
    H               -2.892805669953667    -3.110383141897770    -2.276196786799597
    H               -2.158805669953666    -4.526383141897770    -3.016196786799597
    H               -3.098805669953666    -3.207383141897770    -4.813196786799598
    H               -1.335028669953667    -2.973689141897771    -4.897706786799597
    H               -2.416303669953666    -1.700179141897771    -4.193246786799597
    C               -0.927805669953666     2.226616858102230     2.900803213200403
    C                0.089194330046334     0.763616858102230     1.024803213200403
    C                0.182194330046334     1.754616858102229     2.048803213200403
    C                1.380194330046334     0.624616858102230     0.453803213200403
    C                1.471194330046333     2.182616858102230     2.055803213200403
    C               -0.703805669953666    -0.902383141897770    -0.490196786799597
    C                0.580194330046334    -1.019383141897770    -1.038196786799597
    C               -0.958805669953666    -0.020383141897770     0.533803213200403
    C                1.636194330046333    -0.257383141897770    -0.578196786799597
    N                2.197194330046333     1.505616858102230     1.103803213200403
    H               -1.509805669953666    -1.509383141897771    -0.875196786799597
    H                0.742194330046334    -1.714383141897770    -1.849196786799597
    H               -1.951805669953666     0.072616858102230     0.951803213200403
    H                2.625194330046333    -0.336383141897770    -1.003196786799597
    H               -0.525805669953666     2.570616858102230     3.853803213200403
    H               -1.580805669953666     1.377616858102229     3.108803213200403
    H                1.862194330046334     2.949616858102230     2.711803213200403
    H                3.177194330046333     1.685616858102230     0.895803213200403
    H               -1.519436669953666     3.027486858102230     2.433273213200403

}
e, wfn = energy('scf', return_wfn=True)
gdma(wfn)
dmavals = variable('DMA DISTRIBUTED MULTIPOLES')
charges = np.array(dmavals)
print(charges)
np.save('SSI-094VAL-125TRP-1-dimer.npy', np.array(charges))--------------------------------------------------------------------------

*** tstart() called on ds3
*** at Mon Apr 27 08:56:43 2020

   => Loading Basis Set <=

    Name: CC-PVDZ
    Role: ORBITAL
    Keyword: BASIS
    atoms 1-2, 9-17  entry C          line   138 file /theoryfs2/ds/metcalf/miniconda2/envs/tf2gpu/share/psi4/basis/cc-pvdz.gbs
    atoms 3-8, 19-27 entry H          line    22 file /theoryfs2/ds/metcalf/miniconda2/envs/tf2gpu/share/psi4/basis/cc-pvdz.gbs
    atoms 18         entry N          line   168 file /theoryfs2/ds/metcalf/miniconda2/envs/tf2gpu/share/psi4/basis/cc-pvdz.gbs

         ---------------------------------------------------------
                                   SCF
               by Justin Turney, Rob Parrish, Andy Simmonett
                          and Daniel G. A. Smith
                              RHF Reference
                        1 Threads,    500 MiB Core
         ---------------------------------------------------------

  ==> Geometry <==

    Molecular point group: c1
    Full point group: C1

    Geometry (in Angstrom), charge = 0, multiplicity = 1:

       Center              X                  Y                   Z               Mass
    ------------   -----------------  -----------------  -----------------  -----------------
         C           -2.089805669954    -3.441383141898    -2.936196786800    12.000000000000
         C           -2.238805669954    -2.780383141898    -4.301196786800    12.000000000000
         H           -1.134805669954    -3.175383141898    -2.484196786800     1.007825032230
         H           -2.892805669954    -3.110383141898    -2.276196786800     1.007825032230
         H           -2.158805669954    -4.526383141898    -3.016196786800     1.007825032230
         H           -3.098805669954    -3.207383141898    -4.813196786800     1.007825032230
         H           -1.335028669954    -2.973689141898    -4.897706786800     1.007825032230
         H           -2.416303669954    -1.700179141898    -4.193246786800     1.007825032230
         C           -0.927805669954     2.226616858102     2.900803213200    12.000000000000
         C            0.089194330046     0.763616858102     1.024803213200    12.000000000000
         C            0.182194330046     1.754616858102     2.048803213200    12.000000000000
         C            1.380194330046     0.624616858102     0.453803213200    12.000000000000
         C            1.471194330046     2.182616858102     2.055803213200    12.000000000000
         C           -0.703805669954    -0.902383141898    -0.490196786800    12.000000000000
         C            0.580194330046    -1.019383141898    -1.038196786800    12.000000000000
         C           -0.958805669954    -0.020383141898     0.533803213200    12.000000000000
         C            1.636194330046    -0.257383141898    -0.578196786800    12.000000000000
         N            2.197194330046     1.505616858102     1.103803213200    14.003074004430
         H           -1.509805669954    -1.509383141898    -0.875196786800     1.007825032230
         H            0.742194330046    -1.714383141898    -1.849196786800     1.007825032230
         H           -1.951805669954     0.072616858102     0.951803213200     1.007825032230
         H            2.625194330046    -0.336383141898    -1.003196786800     1.007825032230
         H           -0.525805669954     2.570616858102     3.853803213200     1.007825032230
         H           -1.580805669954     1.377616858102     3.108803213200     1.007825032230
         H            1.862194330046     2.949616858102     2.711803213200     1.007825032230
         H            3.177194330046     1.685616858102     0.895803213200     1.007825032230
         H           -1.519436669954     3.027486858102     2.433273213200     1.007825032230

  Running in c1 symmetry.

  Rotational constants: A =      0.06804  B =      0.01204  C =      0.01054 [cm^-1]
  Rotational constants: A =   2039.89030  B =    360.98426  C =    316.01235 [MHz]
  Nuclear repulsion =  637.784993569139147

  Charge       = 0
  Multiplicity = 1
  Electrons    = 88
  Nalpha       = 44
  Nbeta        = 44

  ==> Algorithm <==

  SCF Algorithm Type is PK.
  DIIS enabled.
  MOM disabled.
  Fractional occupation disabled.
  Guess Type is SAD.
  Energy threshold   = 1.00e-06
  Density threshold  = 1.00e-10
  Integral threshold = 0.00e+00

  ==> Primary Basis <==

  Basis Set: CC-PVDZ
    Blend: CC-PVDZ
    Number of shells: 117
    Number of basis function: 243
    Number of Cartesian functions: 255
    Spherical Harmonics?: true
    Max angular momentum: 2

  ==> Pre-Iterations <==

   -------------------------------------------------------
    Irrep   Nso     Nmo     Nalpha   Nbeta   Ndocc  Nsocc
   -------------------------------------------------------
     A        243     243       0       0       0       0
   -------------------------------------------------------
    Total     243     243      44      44      44       0
   -------------------------------------------------------

  ==> Integral Setup <==

  Using integral reordering PK algorithm.
  Sizing the integral batches needed.
  Building batch lookup table.
   Calculation information:
      Number of atoms:                  27
      Number of AO shells:             117
      Number of primitives:            339
      Number of atomic orbitals:       255
      Number of basis functions:       243

      Integral cutoff                 1.00e-12
      Number of threads:                 1

	Batch   1 pq = [       0,    9405] index = [             0,44231715] size =     44231715
	Batch   2 pq = [    9405,   13301] index = [      44231715,88464951] size =     44233236
	Batch   3 pq = [   13301,   16290] index = [      88464951,132690195] size =     44225244
	Batch   4 pq = [   16290,   18810] index = [     132690195,176917455] size =     44227260
	Batch   5 pq = [   18810,   21030] index = [     176917455,221140965] size =     44223510
	Batch   6 pq = [   21030,   23037] index = [     221140965,265363203] size =     44222238
	Batch   7 pq = [   23037,   24883] index = [     265363203,309594286] size =     44231083
	Batch   8 pq = [   24883,   26601] index = [     309594286,353819901] size =     44225615
	Batch   9 pq = [   26601,   28214] index = [     353819901,398029005] size =     44209104
	Batch  10 pq = [   28214,   29646] index = [     398029005,439457481] size =     41428476
  Task number: 40
  Buffer size: 11059200
  Buffer per thread: 2
  We computed 19380197 shell quartets total.
  Whereas there are 23829156 unique shell quartets.

  ==> DiskJK: Disk-Based J/K Matrices <==

    J tasked:                  Yes
    K tasked:                  Yes
    wK tasked:                  No
    Memory [MiB]:              375
    Schwarz Cutoff:          1E-12

    OpenMP threads:              1

  Minimum eigenvalue in the overlap matrix is 2.3075643884E-04.
  Using Symmetric Orthogonalization.

  SCF Guess: Superposition of Atomic Densities via on-the-fly atomic UHF.

  ==> Iterations <==

                        Total Energy        Delta E     RMS |[F,P]|

   @RHF iter SAD:  -479.18041769242387   -4.79180e+02   0.00000e+00
   @RHF iter   1:  -479.48253187505350   -3.02114e-01   2.63721e-03 DIIS
   @RHF iter   2:  -479.71882344470930   -2.36292e-01   1.18798e-03 DIIS
   @RHF iter   3:  -479.76262247689391   -4.37990e-02   3.10216e-04 DIIS
   @RHF iter   4:  -479.76655257882305   -3.93010e-03   1.42525e-04 DIIS
   @RHF iter   5:  -479.76723212183163   -6.79543e-04   2.00163e-05 DIIS
   @RHF iter   6:  -479.76726109103026   -2.89692e-05   9.17373e-06 DIIS
   @RHF iter   7:  -479.76726698149190   -5.89046e-06   3.80279e-06 DIIS
   @RHF iter   8:  -479.76726862716220   -1.64567e-06   1.49119e-06 DIIS
   @RHF iter   9:  -479.76726895278216   -3.25620e-07   6.56652e-07 DIIS
   @RHF iter  10:  -479.76726901602831   -6.32461e-08   2.97826e-07 DIIS
   @RHF iter  11:  -479.76726903142230   -1.53940e-08   1.13535e-07 DIIS
   @RHF iter  12:  -479.76726903362169   -2.19939e-09   3.59938e-08 DIIS
   @RHF iter  13:  -479.76726903377329   -1.51601e-10   9.17547e-09 DIIS
   @RHF iter  14:  -479.76726903378301   -9.72022e-12   3.57642e-09 DIIS
   @RHF iter  15:  -479.76726903378153    1.47793e-12   1.75568e-09 DIIS
   @RHF iter  16:  -479.76726903378420   -2.67164e-12   9.21193e-10 DIIS
   @RHF iter  17:  -479.76726903378341    7.95808e-13   3.29869e-10 DIIS
   @RHF iter  18:  -479.76726903378187    1.53477e-12   1.47808e-10 DIIS
   @RHF iter  19:  -479.76726903378409   -2.21689e-12   4.53411e-11 DIIS
  Energy and wave function converged.

  ==> Post-Iterations <==

    Orbital Energies [Eh]
    ---------------------

    Doubly Occupied:

       1A    -15.600482     2A    -11.261021     3A    -11.260726
       4A    -11.228182     5A    -11.226680     6A    -11.226557
       7A    -11.223684     8A    -11.217321     9A    -11.216604
      10A    -11.216369    11A    -11.215246    12A    -11.212908
      13A     -1.295418    14A     -1.130363    15A     -1.076486
      16A     -1.018225    17A     -1.000190    18A     -0.986236
      19A     -0.931873    20A     -0.839767    21A     -0.834790
      22A     -0.804889    23A     -0.752020    24A     -0.718821
      25A     -0.662230    26A     -0.643382    27A     -0.603038
      28A     -0.598176    29A     -0.596638    30A     -0.593180
      31A     -0.590906    32A     -0.567695    33A     -0.552684
      34A     -0.539507    35A     -0.524986    36A     -0.501730
      37A     -0.493650    38A     -0.484225    39A     -0.480793
      40A     -0.470306    41A     -0.462296    42A     -0.372838
      43A     -0.294854    44A     -0.273789

    Virtual:

      45A      0.127444    46A      0.171815    47A      0.176508
      48A      0.182155    49A      0.193087    50A      0.216021
      51A      0.220540    52A      0.223804    53A      0.236814
      54A      0.243767    55A      0.246809    56A      0.261577
      57A      0.279375    58A      0.288001    59A      0.289001
      60A      0.295118    61A      0.334449    62A      0.346579
      63A      0.376251    64A      0.387224    65A      0.397340
      66A      0.409048    67A      0.429917    68A      0.453960
      69A      0.481037    70A      0.487171    71A      0.510894
      72A      0.527949    73A      0.594168    74A      0.599605
      75A      0.604505    76A      0.610975    77A      0.625489
      78A      0.639740    79A      0.657446    80A      0.672058
      81A      0.683483    82A      0.693425    83A      0.702525
      84A      0.721557    85A      0.726518    86A      0.738303
      87A      0.742504    88A      0.743417    89A      0.749263
      90A      0.760569    91A      0.773083    92A      0.780342
      93A      0.790015    94A      0.798446    95A      0.820594
      96A      0.842749    97A      0.846998    98A      0.852856
      99A      0.868901   100A      0.881650   101A      0.888511
     102A      0.891454   103A      0.894994   104A      0.898125
     105A      0.905555   106A      0.916113   107A      0.925804
     108A      0.933510   109A      0.945803   110A      0.955964
     111A      0.957939   112A      0.968674   113A      0.982013
     114A      0.995235   115A      1.015124   116A      1.031956
     117A      1.058209   118A      1.072298   119A      1.102412
     120A      1.119079   121A      1.128063   122A      1.137440
     123A      1.146006   124A      1.158885   125A      1.167984
     126A      1.216429   127A      1.220676   128A      1.233308
     129A      1.235860   130A      1.251795   131A      1.270284
     132A      1.278596   133A      1.282579   134A      1.295714
     135A      1.307273   136A      1.334265   137A      1.342437
     138A      1.363515   139A      1.396364   140A      1.430107
     141A      1.448784   142A      1.482937   143A      1.487166
     144A      1.527202   145A      1.559367   146A      1.578305
     147A      1.584847   148A      1.604510   149A      1.631736
     150A      1.643519   151A      1.650728   152A      1.684401
     153A      1.692775   154A      1.702424   155A      1.721114
     156A      1.742908   157A      1.762625   158A      1.772630
     159A      1.795344   160A      1.811397   161A      1.827740
     162A      1.836591   163A      1.870668   164A      1.882508
     165A      1.889343   166A      1.892846   167A      1.895356
     168A      1.905488   169A      1.910175   170A      1.923509
     171A      1.929585   172A      1.939233   173A      1.944284
     174A      1.953328   175A      1.954559   176A      1.956549
     177A      1.964281   178A      1.989394   179A      1.993572
     180A      2.012356   181A      2.018648   182A      2.023285
     183A      2.061901   184A      2.078812   185A      2.089503
     186A      2.094044   187A      2.106746   188A      2.114885
     189A      2.121168   190A      2.127939   191A      2.129177
     192A      2.160416   193A      2.170292   194A      2.196482
     195A      2.211620   196A      2.240993   197A      2.271652
     198A      2.287189   199A      2.301178   200A      2.308622
     201A      2.321821   202A      2.327580   203A      2.348400
     204A      2.354961   205A      2.409661   206A      2.423631
     207A      2.449747   208A      2.458063   209A      2.464026
     210A      2.475881   211A      2.546273   212A      2.575198
     213A      2.587691   214A      2.592707   215A      2.613117
     216A      2.645659   217A      2.673110   218A      2.694433
     219A      2.715453   220A      2.764112   221A      2.770644
     222A      2.788631   223A      2.789886   224A      2.799215
     225A      2.812386   226A      2.843850   227A      2.853885
     228A      2.859445   229A      2.872905   230A      2.884433
     231A      2.923876   232A      2.961362   233A      2.975906
     234A      2.986128   235A      3.041831   236A      3.060872
     237A      3.091149   238A      3.131595   239A      3.219441
     240A      3.331492   241A      3.392280   242A      3.748431
     243A      3.977060

    Final Occupation by Irrep:
              A
    DOCC [    44 ]

  @RHF Final Energy:  -479.76726903378409

   => Energetics <=

    Nuclear Repulsion Energy =            637.7849935691391465
    One-Electron Energy =               -1913.5010022097319506
    Two-Electron Energy =                 795.9487396068088856
    Total Energy =                       -479.7672690337840322

Computation Completed

Properties will be evaluated at   0.000000,   0.000000,   0.000000 [a0]

Properties computed using the SCF density matrix

  Nuclear Dipole Moment: [e a0]
     X:   -10.9911      Y:    -9.9134      Z:   -10.7401

  Electronic Dipole Moment: [e a0]
     X:    11.6369      Y:    10.3308      Z:    10.9025

  Dipole Moment: [e a0]
     X:     0.6458      Y:     0.4174      Z:     0.1624     Total:     0.7859

  Dipole Moment: [D]
     X:     1.6414      Y:     1.0610      Z:     0.4127     Total:     1.9975

*** tstop() called on ds3 at Mon Apr 27 09:06:49 2020
Module time:
	user time   =     155.74 seconds =       2.60 minutes
	system time =      83.00 seconds =       1.38 minutes
	total time  =        606 seconds =      10.10 minutes
Total time:
	user time   =     155.74 seconds =       2.60 minutes
	system time =      83.00 seconds =       1.38 minutes
	total time  =        606 seconds =      10.10 minutes
                                     G D M A

                                 by Anthony Stone

                           version 2.2.06, 22 June 2011

               Distributed Multipoles from Gaussian wavefunctions

Starting at 9:6:49 on 27 Apr 2020

Using SCF density matrix from file ./SSI/SSI-094VAL-125TRP-1-dimer.test.1296.fchk

                         Distributed Multipole Analysis

Standard DMA

Positions and radii in angstrom
Multipole moments in atomic units, ea_0^k for rank k

C          x = -2.089806  y = -3.441383  z = -2.936197 angstrom
           Maximum rank =  0   Radius =  0.650 angstrom
                   Q00  =  -0.247197

C          x = -2.238806  y = -2.780383  z = -4.301197 angstrom
           Maximum rank =  0   Radius =  0.650 angstrom
                   Q00  =  -0.225721

H          x = -1.134806  y = -3.175383  z = -2.484197 angstrom
           Maximum rank =  0   Radius =  0.325 angstrom
                   Q00  =   0.078894

H          x = -2.892806  y = -3.110383  z = -2.276197 angstrom
           Maximum rank =  0   Radius =  0.325 angstrom
                   Q00  =   0.076063

H          x = -2.158806  y = -4.526383  z = -3.016197 angstrom
           Maximum rank =  0   Radius =  0.325 angstrom
                   Q00  =   0.079481

H          x = -3.098806  y = -3.207383  z = -4.813197 angstrom
           Maximum rank =  0   Radius =  0.325 angstrom
                   Q00  =   0.078649

H          x = -1.335029  y = -2.973689  z = -4.897707 angstrom
           Maximum rank =  0   Radius =  0.325 angstrom
                   Q00  =   0.076759

H          x = -2.416304  y = -1.700179  z = -4.193247 angstrom
           Maximum rank =  0   Radius =  0.325 angstrom
                   Q00  =   0.081498

C          x = -0.927806  y =  2.226617  z =  2.900803 angstrom
           Maximum rank =  0   Radius =  0.650 angstrom
                   Q00  =  -0.212454

C          x =  0.089194  y =  0.763617  z =  1.024803 angstrom
           Maximum rank =  0   Radius =  0.650 angstrom
                   Q00  =  -0.046620

C          x =  0.182194  y =  1.754617  z =  2.048803 angstrom
           Maximum rank =  0   Radius =  0.650 angstrom
                   Q00  =  -0.113764

C          x =  1.380194  y =  0.624617  z =  0.453803 angstrom
           Maximum rank =  0   Radius =  0.650 angstrom
                   Q00  =   0.238633

C          x =  1.471194  y =  2.182617  z =  2.055803 angstrom
           Maximum rank =  0   Radius =  0.650 angstrom
                   Q00  =   0.066249

C          x = -0.703806  y = -0.902383  z = -0.490197 angstrom
           Maximum rank =  0   Radius =  0.650 angstrom
                   Q00  =  -0.093516

C          x =  0.580194  y = -1.019383  z = -1.038197 angstrom
           Maximum rank =  0   Radius =  0.650 angstrom
                   Q00  =  -0.011601

C          x = -0.958806  y = -0.020383  z =  0.533803 angstrom
           Maximum rank =  0   Radius =  0.650 angstrom
                   Q00  =  -0.094928

C          x =  1.636194  y = -0.257383  z = -0.578197 angstrom
           Maximum rank =  0   Radius =  0.650 angstrom
                   Q00  =  -0.116006

N          x =  2.197194  y =  1.505617  z =  1.103803 angstrom
           Maximum rank =  0   Radius =  0.650 angstrom
                   Q00  =  -0.495067

H          x = -1.509806  y = -1.509383  z = -0.875197 angstrom
           Maximum rank =  0   Radius =  0.325 angstrom
                   Q00  =   0.061396

H          x =  0.742194  y = -1.714383  z = -1.849197 angstrom
           Maximum rank =  0   Radius =  0.325 angstrom
                   Q00  =   0.059602

H          x = -1.951806  y =  0.072617  z =  0.951803 angstrom
           Maximum rank =  0   Radius =  0.325 angstrom
                   Q00  =   0.066721

H          x =  2.625194  y = -0.336383  z = -1.003197 angstrom
           Maximum rank =  0   Radius =  0.325 angstrom
                   Q00  =   0.073078

H          x = -0.525806  y =  2.570617  z =  3.853803 angstrom
           Maximum rank =  0   Radius =  0.325 angstrom
                   Q00  =   0.103369

H          x = -1.580806  y =  1.377617  z =  3.108803 angstrom
           Maximum rank =  0   Radius =  0.325 angstrom
                   Q00  =   0.100795

H          x =  1.862194  y =  2.949617  z =  2.711803 angstrom
           Maximum rank =  0   Radius =  0.325 angstrom
                   Q00  =   0.099749

H          x =  3.177194  y =  1.685617  z =  0.895803 angstrom
           Maximum rank =  0   Radius =  0.325 angstrom
                   Q00  =   0.217784

H          x = -1.519437  y =  3.027487  z =  2.433273 angstrom
           Maximum rank =  0   Radius =  0.325 angstrom
                   Q00  =   0.098155

Total multipoles referred to origin at
           x =   0.000000,  y =    0.000000,  z =    0.000000 angstrom
                   Q00  =  -0.000000

Finished at 9:6:49 on 27 Apr 2020

  DMA results are available in the Python driver through the
	  variable('DMA DISTRIBUTED MULTIPOLES')
  and
	  variable('DMA TOTAL MULTIPOLES')
  commands.

    Psi4 stopped on: Monday, 27 April 2020 09:06AM
    Psi4 wall time for execution: 0:10:05.69

*** Psi4 exiting successfully. Buy a developer a beer!
