                               Psi4 1.3.2 release

  ==> Input File <==

--------------------------------------------------------------------------
import numpy as np
set {scf_type pk
basis cc-pvdz
d_convergence 10
gdma_switch   0
gdma_limit    0
gdma_origin   [ 0.0,  0.0,  0.0 ]
}
molecule test {
    units Angstrom
    0 1
    --
    0 1
    C                1.030987012613800     0.158677198763611    -1.768449023000070
    C                2.525987012613800     0.306677198763611    -1.479449023000070
    H                0.460987012613800     0.607677198763611    -0.965449023000070
    H                0.772987012613800     0.679677198763611    -2.686449023000070
    H                0.765987012613800    -0.894322801236390    -1.869449023000070
    H                3.067987012613800    -0.113322801236389    -2.324449023000070
    H                2.805380012613800    -0.231278801236389    -0.561549023000070
    H                2.782917012613800     1.371413198763610    -1.377838023000070
    C               -1.641012987386200    -0.243322801236389     0.749550976999930
    C               -0.856012987386200    -1.379322801236389     1.421550976999930
    C               -1.171012987386200     1.138677198763611     1.141550976999930
    H               -1.519012987386200    -0.331322801236389    -0.330449023000070
    H               -2.710012987386200    -0.334322801236389     0.942550976999930
    H                0.208987012613800    -1.149322801236389     1.367550976999930
    H               -0.088012987386200     1.224677198763610     1.051550976999930
    H               -1.644012987386200     1.874677198763611     0.490550976999930
    H               -1.435012987386200     1.337677198763610     2.161550976999929
    H               -1.139127987386200    -1.510642801236389     2.476350976999930
    H               -1.007607987386200    -2.309629801236389     0.854500976999930

}
e, wfn = energy('scf', return_wfn=True)
gdma(wfn)
dmavals = variable('DMA DISTRIBUTED MULTIPOLES')
charges = np.array(dmavals)
print(charges)
np.save('SSI-026LEU-039ILE-1-dimer.npy', np.array(charges))--------------------------------------------------------------------------

*** tstart() called on ds3
*** at Sun Apr 26 17:59:58 2020

   => Loading Basis Set <=

    Name: CC-PVDZ
    Role: ORBITAL
    Keyword: BASIS
    atoms 1-2, 9-11  entry C          line   138 file /theoryfs2/ds/metcalf/miniconda2/envs/tf2gpu/share/psi4/basis/cc-pvdz.gbs
    atoms 3-8, 12-19 entry H          line    22 file /theoryfs2/ds/metcalf/miniconda2/envs/tf2gpu/share/psi4/basis/cc-pvdz.gbs

         ---------------------------------------------------------
                                   SCF
               by Justin Turney, Rob Parrish, Andy Simmonett
                          and Daniel G. A. Smith
                              RHF Reference
                        1 Threads,    500 MiB Core
         ---------------------------------------------------------

  ==> Geometry <==

    Molecular point group: c1
    Full point group: C1

    Geometry (in Angstrom), charge = 0, multiplicity = 1:

       Center              X                  Y                   Z               Mass
    ------------   -----------------  -----------------  -----------------  -----------------
         C            1.030987012614     0.158677198764    -1.768449023000    12.000000000000
         C            2.525987012614     0.306677198764    -1.479449023000    12.000000000000
         H            0.460987012614     0.607677198764    -0.965449023000     1.007825032230
         H            0.772987012614     0.679677198764    -2.686449023000     1.007825032230
         H            0.765987012614    -0.894322801236    -1.869449023000     1.007825032230
         H            3.067987012614    -0.113322801236    -2.324449023000     1.007825032230
         H            2.805380012614    -0.231278801236    -0.561549023000     1.007825032230
         H            2.782917012614     1.371413198764    -1.377838023000     1.007825032230
         C           -1.641012987386    -0.243322801236     0.749550977000    12.000000000000
         C           -0.856012987386    -1.379322801236     1.421550977000    12.000000000000
         C           -1.171012987386     1.138677198764     1.141550977000    12.000000000000
         H           -1.519012987386    -0.331322801236    -0.330449023000     1.007825032230
         H           -2.710012987386    -0.334322801236     0.942550977000     1.007825032230
         H            0.208987012614    -1.149322801236     1.367550977000     1.007825032230
         H           -0.088012987386     1.224677198764     1.051550977000     1.007825032230
         H           -1.644012987386     1.874677198764     0.490550977000     1.007825032230
         H           -1.435012987386     1.337677198764     2.161550977000     1.007825032230
         H           -1.139127987386    -1.510642801236     2.476350977000     1.007825032230
         H           -1.007607987386    -2.309629801236     0.854500977000     1.007825032230

  Running in c1 symmetry.

  Rotational constants: A =      0.19834  B =      0.04989  C =      0.04558 [cm^-1]
  Rotational constants: A =   5946.18867  B =   1495.74111  C =   1366.46494 [MHz]
  Nuclear repulsion =  183.590026291258539

  Charge       = 0
  Multiplicity = 1
  Electrons    = 44
  Nalpha       = 22
  Nbeta        = 22

  ==> Algorithm <==

  SCF Algorithm Type is PK.
  DIIS enabled.
  MOM disabled.
  Fractional occupation disabled.
  Guess Type is SAD.
  Energy threshold   = 1.00e-06
  Density threshold  = 1.00e-10
  Integral threshold = 0.00e+00

  ==> Primary Basis <==

  Basis Set: CC-PVDZ
    Blend: CC-PVDZ
    Number of shells: 72
    Number of basis function: 140
    Number of Cartesian functions: 145
    Spherical Harmonics?: true
    Max angular momentum: 2

  ==> Pre-Iterations <==

   -------------------------------------------------------
    Irrep   Nso     Nmo     Nalpha   Nbeta   Ndocc  Nsocc
   -------------------------------------------------------
     A        140     140       0       0       0       0
   -------------------------------------------------------
    Total     140     140      22      22      22       0
   -------------------------------------------------------

  ==> Integral Setup <==

  Using integral reordering PK algorithm.
  Sizing the integral batches needed.
  Building batch lookup table.
   Calculation information:
      Number of atoms:                  19
      Number of AO shells:              72
      Number of primitives:            180
      Number of atomic orbitals:       145
      Number of basis functions:       140

      Integral cutoff                 1.00e-12
      Number of threads:                 1

	Batch   1 pq = [       0,    9405] index = [             0,44231715] size =     44231715
	Batch   2 pq = [    9405,    9870] index = [      44231715,48713385] size =      4481670
  Task number: 5
  Buffer size: 11059200
  Buffer per thread: 2
  We computed 3166481 shell quartets total.
  Whereas there are 3454506 unique shell quartets.

  ==> DiskJK: Disk-Based J/K Matrices <==

    J tasked:                  Yes
    K tasked:                  Yes
    wK tasked:                  No
    Memory [MiB]:              375
    Schwarz Cutoff:          1E-12

    OpenMP threads:              1

  Minimum eigenvalue in the overlap matrix is 5.3833842481E-03.
  Using Symmetric Orthogonalization.

  SCF Guess: Superposition of Atomic Densities via on-the-fly atomic UHF.

  ==> Iterations <==

                        Total Energy        Delta E     RMS |[F,P]|

   @RHF iter SAD:  -196.42652974684364   -1.96427e+02   0.00000e+00
   @RHF iter   1:  -197.30858430113616   -8.82055e-01   3.81217e-03 DIIS
   @RHF iter   2:  -197.46944015051344   -1.60856e-01   1.63683e-03 DIIS
   @RHF iter   3:  -197.49773468699289   -2.82945e-02   3.27919e-04 DIIS
   @RHF iter   4:  -197.49997658519231   -2.24190e-03   5.07531e-05 DIIS
   @RHF iter   5:  -197.50001828925622   -4.17041e-05   1.51746e-05 DIIS
   @RHF iter   6:  -197.50002187357106   -3.58431e-06   2.53662e-06 DIIS
   @RHF iter   7:  -197.50002198972416   -1.16153e-07   4.89917e-07 DIIS
   @RHF iter   8:  -197.50002199469481   -4.97064e-09   1.26241e-07 DIIS
   @RHF iter   9:  -197.50002199500858   -3.13776e-10   3.98206e-08 DIIS
   @RHF iter  10:  -197.50002199504502   -3.64366e-11   8.33038e-09 DIIS
   @RHF iter  11:  -197.50002199504758   -2.55795e-12   1.56459e-09 DIIS
   @RHF iter  12:  -197.50002199504766   -8.52651e-14   3.25048e-10 DIIS
   @RHF iter  13:  -197.50002199504712    5.40012e-13   7.79293e-11 DIIS
  Energy and wave function converged.

  ==> Post-Iterations <==

    Orbital Energies [Eh]
    ---------------------

    Doubly Occupied:

       1A    -11.219425     2A    -11.217996     3A    -11.217227
       4A    -11.214608     5A    -11.211868     6A     -1.055566
       7A     -1.018690     8A     -0.926697     9A     -0.837657
      10A     -0.797552    11A     -0.630318    12A     -0.599569
      13A     -0.596400    14A     -0.594492    15A     -0.552431
      16A     -0.534330    17A     -0.499893    18A     -0.487587
      19A     -0.485165    20A     -0.473568    21A     -0.468950
      22A     -0.463511

    Virtual:

      23A      0.166470    24A      0.196984    25A      0.218777
      26A      0.220156    27A      0.241101    28A      0.256062
      29A      0.260124    30A      0.265169    31A      0.274478
      32A      0.287441    33A      0.293029    34A      0.308099
      35A      0.329531    36A      0.339467    37A      0.373842
      38A      0.410786    39A      0.437145    40A      0.569286
      41A      0.583849    42A      0.605050    43A      0.612015
      44A      0.621554    45A      0.630154    46A      0.639307
      47A      0.666554    48A      0.700963    49A      0.771563
      50A      0.793881    51A      0.807580    52A      0.845924
      53A      0.869902    54A      0.876870    55A      0.879390
      56A      0.884766    57A      0.889135    58A      0.899699
      59A      0.904467    60A      0.911623    61A      0.923778
      62A      0.928327    63A      0.941055    64A      0.961993
      65A      0.981222    66A      0.984064    67A      0.992680
      68A      1.061779    69A      1.121094    70A      1.121641
      71A      1.127707    72A      1.155053    73A      1.203789
      74A      1.318495    75A      1.388899    76A      1.456467
      77A      1.472923    78A      1.478422    79A      1.498987
      80A      1.522613    81A      1.589819    82A      1.638788
      83A      1.664590    84A      1.681518    85A      1.691232
      86A      1.716907    87A      1.722814    88A      1.838538
      89A      1.864383    90A      1.867868    91A      1.880693
      92A      1.890494    93A      1.912493    94A      1.921046
      95A      1.926566    96A      1.942283    97A      1.950550
      98A      1.957188    99A      1.960070   100A      1.968593
     101A      1.980346   102A      1.990525   103A      2.005125
     104A      2.012270   105A      2.022287   106A      2.044012
     107A      2.076584   108A      2.106707   109A      2.124175
     110A      2.137955   111A      2.171250   112A      2.278550
     113A      2.299801   114A      2.305615   115A      2.320897
     116A      2.332715   117A      2.370622   118A      2.460029
     119A      2.475308   120A      2.480017   121A      2.538513
     122A      2.564615   123A      2.581404   124A      2.586662
     125A      2.615547   126A      2.653417   127A      2.760570
     128A      2.763272   129A      2.790213   130A      2.798587
     131A      2.820962   132A      2.824642   133A      2.854721
     134A      2.862133   135A      2.925879   136A      2.947744
     137A      2.961533   138A      2.992377   139A      3.008997
     140A      3.091483

    Final Occupation by Irrep:
              A
    DOCC [    22 ]

  @RHF Final Energy:  -197.50002199504712

   => Energetics <=

    Nuclear Repulsion Energy =            183.5900262912585390
    One-Electron Energy =                -627.9730965662089375
    Two-Electron Energy =                 246.8830482799032779
    Total Energy =                       -197.5000219950471205

Computation Completed

Properties will be evaluated at   0.000000,   0.000000,   0.000000 [a0]

Properties computed using the SCF density matrix

  Nuclear Dipole Moment: [e a0]
     X:     1.2397      Y:     0.2078      Z:    -0.7228

  Electronic Dipole Moment: [e a0]
     X:    -1.2739      Y:    -0.1994      Z:     0.6963

  Dipole Moment: [e a0]
     X:    -0.0342      Y:     0.0083      Z:    -0.0265     Total:     0.0440

  Dipole Moment: [D]
     X:    -0.0868      Y:     0.0212      Z:    -0.0674     Total:     0.1120

*** tstop() called on ds3 at Sun Apr 26 18:00:23 2020
Module time:
	user time   =      16.17 seconds =       0.27 minutes
	system time =       5.78 seconds =       0.10 minutes
	total time  =         25 seconds =       0.42 minutes
Total time:
	user time   =      16.17 seconds =       0.27 minutes
	system time =       5.78 seconds =       0.10 minutes
	total time  =         25 seconds =       0.42 minutes
                                     G D M A

                                 by Anthony Stone

                           version 2.2.06, 22 June 2011

               Distributed Multipoles from Gaussian wavefunctions

Starting at 18:0:23 on 26 Apr 2020

Using SCF density matrix from file ./SSI/SSI-026LEU-039ILE-1-dimer.test.14050.fchk

                         Distributed Multipole Analysis

Standard DMA

Positions and radii in angstrom
Multipole moments in atomic units, ea_0^k for rank k

C          x =  1.030987  y =  0.158677  z = -1.768449 angstrom
           Maximum rank =  0   Radius =  0.650 angstrom
                   Q00  =  -0.248887

C          x =  2.525987  y =  0.306677  z = -1.479449 angstrom
           Maximum rank =  0   Radius =  0.650 angstrom
                   Q00  =  -0.232441

H          x =  0.460987  y =  0.607677  z = -0.965449 angstrom
           Maximum rank =  0   Radius =  0.325 angstrom
                   Q00  =   0.084579

H          x =  0.772987  y =  0.679677  z = -2.686449 angstrom
           Maximum rank =  0   Radius =  0.325 angstrom
                   Q00  =   0.079731

H          x =  0.765987  y = -0.894323  z = -1.869449 angstrom
           Maximum rank =  0   Radius =  0.325 angstrom
                   Q00  =   0.077863

H          x =  3.067987  y = -0.113323  z = -2.324449 angstrom
           Maximum rank =  0   Radius =  0.325 angstrom
                   Q00  =   0.079656

H          x =  2.805380  y = -0.231279  z = -0.561549 angstrom
           Maximum rank =  0   Radius =  0.325 angstrom
                   Q00  =   0.078819

H          x =  2.782917  y =  1.371413  z = -1.377838 angstrom
           Maximum rank =  0   Radius =  0.325 angstrom
                   Q00  =   0.078752

C          x = -1.641013  y = -0.243323  z =  0.749551 angstrom
           Maximum rank =  0   Radius =  0.650 angstrom
                   Q00  =  -0.086327

C          x = -0.856013  y = -1.379323  z =  1.421551 angstrom
           Maximum rank =  0   Radius =  0.650 angstrom
                   Q00  =  -0.228708

C          x = -1.171013  y =  1.138677  z =  1.141551 angstrom
           Maximum rank =  0   Radius =  0.650 angstrom
                   Q00  =  -0.250635

H          x = -1.519013  y = -0.331323  z = -0.330449 angstrom
           Maximum rank =  0   Radius =  0.325 angstrom
                   Q00  =   0.044512

H          x = -2.710013  y = -0.334323  z =  0.942551 angstrom
           Maximum rank =  0   Radius =  0.325 angstrom
                   Q00  =   0.050702

H          x =  0.208987  y = -1.149323  z =  1.367551 angstrom
           Maximum rank =  0   Radius =  0.325 angstrom
                   Q00  =   0.075923

H          x = -0.088013  y =  1.224677  z =  1.051551 angstrom
           Maximum rank =  0   Radius =  0.325 angstrom
                   Q00  =   0.072380

H          x = -1.644013  y =  1.874677  z =  0.490551 angstrom
           Maximum rank =  0   Radius =  0.325 angstrom
                   Q00  =   0.081400

H          x = -1.435013  y =  1.337677  z =  2.161551 angstrom
           Maximum rank =  0   Radius =  0.325 angstrom
                   Q00  =   0.078842

H          x = -1.139128  y = -1.510643  z =  2.476351 angstrom
           Maximum rank =  0   Radius =  0.325 angstrom
                   Q00  =   0.080737

H          x = -1.007608  y = -2.309630  z =  0.854501 angstrom
           Maximum rank =  0   Radius =  0.325 angstrom
                   Q00  =   0.083102

Total multipoles referred to origin at
           x =   0.000000,  y =    0.000000,  z =    0.000000 angstrom
                   Q00  =  -0.000000

Finished at 18:0:23 on 26 Apr 2020

  DMA results are available in the Python driver through the
	  variable('DMA DISTRIBUTED MULTIPOLES')
  and
	  variable('DMA TOTAL MULTIPOLES')
  commands.

    Psi4 stopped on: Sunday, 26 April 2020 06:00PM
    Psi4 wall time for execution: 0:00:24.72

*** Psi4 exiting successfully. Buy a developer a beer!
