                               Psi4 1.3.2 release

  ==> Input File <==

--------------------------------------------------------------------------
import numpy as np
set {scf_type pk
basis cc-pvdz
d_convergence 10
gdma_switch   0
gdma_limit    0
gdma_origin   [ 0.0,  0.0,  0.0 ]
}
molecule test {
    units Angstrom
    0 1
    --
    0 1
    C                2.980719645515425     0.744953493936507     0.941200124663608
    C                3.280719645515425     0.406953493936506    -0.507799875336391
    O                3.591719645515425    -0.732046506063493    -0.858799875336392
    N                3.198719645515425     1.411953493936506    -1.364799875336391
    H                2.126719645515426     1.423953493936506     0.972200124663609
    H                3.825719645515425     1.286953493936506     1.354200124663609
    H                3.386719645515425     1.227953493936506    -2.340799875336391
    H                2.934719645515425     2.336953493936506    -1.057799875336391
    H                2.737709645515425    -0.141746506063494     1.545110124663609
    C               -3.233280354484575     0.059953493936506     2.441200124663609
    C               -0.543280354484575     0.006953493936506    -0.278799875336391
    C               -1.190280354484575     0.212953493936506     0.953200124663608
    C               -1.231280354484575    -0.584046506063494    -1.337799875336391
    C               -2.526280354484575    -0.166046506063494     1.126200124663609
    C               -2.562280354484574    -0.960046506063494    -1.166799875336391
    C               -3.204280354484575    -0.750046506063493     0.058200124663609
    H                0.478719645515425     0.323953493936506    -0.421799875336391
    H               -0.657280354484575     0.679953493936506     1.769200124663609
    H               -0.740280354484575    -0.738046506063493    -2.289799875336392
    H               -3.103280354484574    -1.413046506063494    -1.988799875336391
    H               -2.605280354484575    -0.336046506063494     3.235200124663609
    H               -4.179280354484574    -0.485046506063494     2.444200124663608
    H               -4.239280354484576    -1.041046506063493     0.172200124663609
    H               -3.425431354484575     1.120394493936506     2.661520124663608

}
e, wfn = energy('scf', return_wfn=True)
gdma(wfn)
dmavals = variable('DMA DISTRIBUTED MULTIPOLES')
charges = np.array(dmavals)
print(charges)
np.save('SSI-058GLN-067PHE-2-dimer.npy', np.array(charges))--------------------------------------------------------------------------

*** tstart() called on ds3
*** at Sun Apr 26 22:15:33 2020

   => Loading Basis Set <=

    Name: CC-PVDZ
    Role: ORBITAL
    Keyword: BASIS
    atoms 1-2, 10-16 entry C          line   138 file /theoryfs2/ds/metcalf/miniconda2/envs/tf2gpu/share/psi4/basis/cc-pvdz.gbs
    atoms 3          entry O          line   198 file /theoryfs2/ds/metcalf/miniconda2/envs/tf2gpu/share/psi4/basis/cc-pvdz.gbs
    atoms 4          entry N          line   168 file /theoryfs2/ds/metcalf/miniconda2/envs/tf2gpu/share/psi4/basis/cc-pvdz.gbs
    atoms 5-9, 17-24 entry H          line    22 file /theoryfs2/ds/metcalf/miniconda2/envs/tf2gpu/share/psi4/basis/cc-pvdz.gbs

         ---------------------------------------------------------
                                   SCF
               by Justin Turney, Rob Parrish, Andy Simmonett
                          and Daniel G. A. Smith
                              RHF Reference
                        1 Threads,    500 MiB Core
         ---------------------------------------------------------

  ==> Geometry <==

    Molecular point group: c1
    Full point group: C1

    Geometry (in Angstrom), charge = 0, multiplicity = 1:

       Center              X                  Y                   Z               Mass
    ------------   -----------------  -----------------  -----------------  -----------------
         C            2.980719645515     0.744953493937     0.941200124664    12.000000000000
         C            3.280719645515     0.406953493937    -0.507799875336    12.000000000000
         O            3.591719645515    -0.732046506063    -0.858799875336    15.994914619570
         N            3.198719645515     1.411953493937    -1.364799875336    14.003074004430
         H            2.126719645515     1.423953493937     0.972200124664     1.007825032230
         H            3.825719645515     1.286953493937     1.354200124664     1.007825032230
         H            3.386719645515     1.227953493937    -2.340799875336     1.007825032230
         H            2.934719645515     2.336953493937    -1.057799875336     1.007825032230
         H            2.737709645515    -0.141746506063     1.545110124664     1.007825032230
         C           -3.233280354485     0.059953493937     2.441200124664    12.000000000000
         C           -0.543280354485     0.006953493937    -0.278799875336    12.000000000000
         C           -1.190280354485     0.212953493937     0.953200124664    12.000000000000
         C           -1.231280354485    -0.584046506063    -1.337799875336    12.000000000000
         C           -2.526280354485    -0.166046506063     1.126200124664    12.000000000000
         C           -2.562280354485    -0.960046506063    -1.166799875336    12.000000000000
         C           -3.204280354485    -0.750046506063     0.058200124664    12.000000000000
         H            0.478719645515     0.323953493937    -0.421799875336     1.007825032230
         H           -0.657280354485     0.679953493937     1.769200124664     1.007825032230
         H           -0.740280354485    -0.738046506063    -2.289799875336     1.007825032230
         H           -3.103280354485    -1.413046506063    -1.988799875336     1.007825032230
         H           -2.605280354485    -0.336046506063     3.235200124664     1.007825032230
         H           -4.179280354485    -0.485046506063     2.444200124664     1.007825032230
         H           -4.239280354485    -1.041046506063     0.172200124664     1.007825032230
         H           -3.425431354485     1.120394493937     2.661520124664     1.007825032230

  Running in c1 symmetry.

  Rotational constants: A =      0.06585  B =      0.01346  C =      0.01192 [cm^-1]
  Rotational constants: A =   1974.18598  B =    403.39357  C =    357.44128 [MHz]
  Nuclear repulsion =  545.347967372508833

  Charge       = 0
  Multiplicity = 1
  Electrons    = 82
  Nalpha       = 41
  Nbeta        = 41

  ==> Algorithm <==

  SCF Algorithm Type is PK.
  DIIS enabled.
  MOM disabled.
  Fractional occupation disabled.
  Guess Type is SAD.
  Energy threshold   = 1.00e-06
  Density threshold  = 1.00e-10
  Integral threshold = 0.00e+00

  ==> Primary Basis <==

  Basis Set: CC-PVDZ
    Blend: CC-PVDZ
    Number of shells: 105
    Number of basis function: 219
    Number of Cartesian functions: 230
    Spherical Harmonics?: true
    Max angular momentum: 2

  ==> Pre-Iterations <==

   -------------------------------------------------------
    Irrep   Nso     Nmo     Nalpha   Nbeta   Ndocc  Nsocc
   -------------------------------------------------------
     A        219     219       0       0       0       0
   -------------------------------------------------------
    Total     219     219      41      41      41       0
   -------------------------------------------------------

  ==> Integral Setup <==

  Using integral reordering PK algorithm.
  Sizing the integral batches needed.
  Building batch lookup table.
   Calculation information:
      Number of atoms:                  24
      Number of AO shells:             105
      Number of primitives:            307
      Number of atomic orbitals:       230
      Number of basis functions:       219

      Integral cutoff                 1.00e-12
      Number of threads:                 1

	Batch   1 pq = [       0,    9405] index = [             0,44231715] size =     44231715
	Batch   2 pq = [    9405,   13301] index = [      44231715,88464951] size =     44233236
	Batch   3 pq = [   13301,   16290] index = [      88464951,132690195] size =     44225244
	Batch   4 pq = [   16290,   18810] index = [     132690195,176917455] size =     44227260
	Batch   5 pq = [   18810,   21030] index = [     176917455,221140965] size =     44223510
	Batch   6 pq = [   21030,   23037] index = [     221140965,265363203] size =     44222238
	Batch   7 pq = [   23037,   24090] index = [     265363203,290176095] size =     24812892
  Task number: 27
  Buffer size: 11059200
  Buffer per thread: 2
  We computed 12504692 shell quartets total.
  Whereas there are 15487395 unique shell quartets.

  ==> DiskJK: Disk-Based J/K Matrices <==

    J tasked:                  Yes
    K tasked:                  Yes
    wK tasked:                  No
    Memory [MiB]:              375
    Schwarz Cutoff:          1E-12

    OpenMP threads:              1

  Minimum eigenvalue in the overlap matrix is 3.0848998954E-04.
  Using Symmetric Orthogonalization.

  SCF Guess: Superposition of Atomic Densities via on-the-fly atomic UHF.

  ==> Iterations <==

                        Total Energy        Delta E     RMS |[F,P]|

   @RHF iter SAD:  -476.39612738465337   -4.76396e+02   0.00000e+00
   @RHF iter   1:  -477.45575836305409   -1.05963e+00   3.21718e-03 DIIS
   @RHF iter   2:  -477.68902741305828   -2.33269e-01   1.74159e-03 DIIS
   @RHF iter   3:  -477.74645364416637   -5.74262e-02   4.01456e-04 DIIS
   @RHF iter   4:  -477.75091023026607   -4.45659e-03   1.57016e-04 DIIS
   @RHF iter   5:  -477.75161818578783   -7.07956e-04   2.37752e-05 DIIS
   @RHF iter   6:  -477.75165202669251   -3.38409e-05   1.11754e-05 DIIS
   @RHF iter   7:  -477.75165834865834   -6.32197e-06   4.21826e-06 DIIS
   @RHF iter   8:  -477.75165963343557   -1.28478e-06   1.45919e-06 DIIS
   @RHF iter   9:  -477.75165978781843   -1.54383e-07   4.43768e-07 DIIS
   @RHF iter  10:  -477.75165979725602   -9.43760e-09   1.65641e-07 DIIS
   @RHF iter  11:  -477.75165979882274   -1.56672e-09   4.90809e-08 DIIS
   @RHF iter  12:  -477.75165979894211   -1.19371e-10   1.85423e-08 DIIS
   @RHF iter  13:  -477.75165979896934   -2.72280e-11   6.38902e-09 DIIS
   @RHF iter  14:  -477.75165979897423   -4.88853e-12   2.89678e-09 DIIS
   @RHF iter  15:  -477.75165979897645   -2.21689e-12   1.43153e-09 DIIS
   @RHF iter  16:  -477.75165979898122   -4.77485e-12   5.11251e-10 DIIS
   @RHF iter  17:  -477.75165979897929    1.93268e-12   1.52594e-10 DIIS
   @RHF iter  18:  -477.75165979898014   -8.52651e-13   5.32317e-11 DIIS
  Energy and wave function converged.

  ==> Post-Iterations <==

    Orbital Energies [Eh]
    ---------------------

    Doubly Occupied:

       1A    -20.504845     2A    -15.591686     3A    -11.349314
       4A    -11.244116     5A    -11.242284     6A    -11.237958
       7A    -11.236069     8A    -11.233910     9A    -11.231452
      10A    -11.231094    11A    -11.230714    12A     -1.367013
      13A     -1.219888    14A     -1.149459    15A     -1.043524
      16A     -1.008609    17A     -1.002091    18A     -0.931336
      19A     -0.825252    20A     -0.802509    21A     -0.793805
      22A     -0.730075    23A     -0.689873    24A     -0.654875
      25A     -0.634119    26A     -0.629460    27A     -0.615037
      28A     -0.579290    29A     -0.575475    30A     -0.570188
      31A     -0.562600    32A     -0.559270    33A     -0.537833
      34A     -0.524137    35A     -0.485512    36A     -0.484291
      37A     -0.481243    38A     -0.410549    39A     -0.405167
      40A     -0.330016    41A     -0.322027

    Virtual:

      42A      0.133145    43A      0.141453    44A      0.156901
      45A      0.186190    46A      0.194923    47A      0.204159
      48A      0.208382    49A      0.224547    50A      0.236056
      51A      0.250250    52A      0.258063    53A      0.266246
      54A      0.269184    55A      0.288339    56A      0.295327
      57A      0.317725    58A      0.363158    59A      0.379458
      60A      0.381506    61A      0.446467    62A      0.452948
      63A      0.471198    64A      0.474320    65A      0.498257
      66A      0.563738    67A      0.583243    68A      0.594290
      69A      0.624033    70A      0.630014    71A      0.659998
      72A      0.677193    73A      0.693051    74A      0.697852
      75A      0.708498    76A      0.716231    77A      0.728205
      78A      0.729549    79A      0.739965    80A      0.744499
      81A      0.746710    82A      0.755008    83A      0.773641
      84A      0.785290    85A      0.788739    86A      0.800794
      87A      0.821924    88A      0.841935    89A      0.853414
      90A      0.862281    91A      0.877585    92A      0.879646
      93A      0.886520    94A      0.896784    95A      0.904822
      96A      0.914236    97A      0.923418    98A      0.925518
      99A      0.939553   100A      0.955961   101A      0.958290
     102A      0.991162   103A      0.995696   104A      1.011120
     105A      1.052250   106A      1.065063   107A      1.102012
     108A      1.123329   109A      1.131293   110A      1.143194
     111A      1.149371   112A      1.155085   113A      1.186557
     114A      1.207508   115A      1.238283   116A      1.245173
     117A      1.248452   118A      1.284862   119A      1.300120
     120A      1.306452   121A      1.319622   122A      1.326546
     123A      1.339633   124A      1.366733   125A      1.375205
     126A      1.390395   127A      1.409238   128A      1.431113
     129A      1.466041   130A      1.490257   131A      1.523683
     132A      1.531492   133A      1.555303   134A      1.613082
     135A      1.652876   136A      1.669490   137A      1.676717
     138A      1.689687   139A      1.731819   140A      1.739971
     141A      1.744803   142A      1.758150   143A      1.788086
     144A      1.797330   145A      1.814153   146A      1.844498
     147A      1.872979   148A      1.879627   149A      1.882223
     150A      1.894137   151A      1.900912   152A      1.905116
     153A      1.913023   154A      1.918459   155A      1.930866
     156A      1.944924   157A      1.951007   158A      1.967274
     159A      1.974727   160A      1.980632   161A      1.988503
     162A      2.008411   163A      2.031995   164A      2.040412
     165A      2.052365   166A      2.070339   167A      2.083469
     168A      2.107704   169A      2.126791   170A      2.153377
     171A      2.159806   172A      2.168104   173A      2.188882
     174A      2.190795   175A      2.228997   176A      2.244027
     177A      2.259762   178A      2.270441   179A      2.282711
     180A      2.301511   181A      2.331929   182A      2.352521
     183A      2.423197   184A      2.441483   185A      2.456423
     186A      2.471483   187A      2.497725   188A      2.514636
     189A      2.532334   190A      2.561023   191A      2.571908
     192A      2.613083   193A      2.625529   194A      2.708840
     195A      2.727230   196A      2.754583   197A      2.766293
     198A      2.770385   199A      2.781688   200A      2.804777
     201A      2.841089   202A      2.847900   203A      2.862280
     204A      2.873701   205A      2.968671   206A      2.994466
     207A      3.004983   208A      3.024779   209A      3.090915
     210A      3.136635   211A      3.153669   212A      3.188658
     213A      3.280174   214A      3.299166   215A      3.502767
     216A      3.538935   217A      3.860577   218A      3.899879
     219A      3.948532

    Final Occupation by Irrep:
              A
    DOCC [    41 ]

  @RHF Final Energy:  -477.75165979898014

   => Energetics <=

    Nuclear Repulsion Energy =            545.3479673725088333
    One-Electron Energy =               -1729.6833177198636804
    Two-Electron Energy =                 706.5836905483747614
    Total Energy =                       -477.7516597989801994

Computation Completed

Properties will be evaluated at   0.000000,   0.000000,   0.000000 [a0]

Properties computed using the SCF density matrix

  Nuclear Dipole Moment: [e a0]
     X:    -3.2355      Y:     3.9721      Z:     5.6761

  Electronic Dipole Moment: [e a0]
     X:     2.8084      Y:    -2.3265      Z:    -5.4402

  Dipole Moment: [e a0]
     X:    -0.4271      Y:     1.6456      Z:     0.2359     Total:     1.7164

  Dipole Moment: [D]
     X:    -1.0856      Y:     4.1827      Z:     0.5996     Total:     4.3627

*** tstop() called on ds3 at Sun Apr 26 22:17:57 2020
Module time:
	user time   =     101.78 seconds =       1.70 minutes
	system time =      48.51 seconds =       0.81 minutes
	total time  =        144 seconds =       2.40 minutes
Total time:
	user time   =     101.78 seconds =       1.70 minutes
	system time =      48.51 seconds =       0.81 minutes
	total time  =        144 seconds =       2.40 minutes
                                     G D M A

                                 by Anthony Stone

                           version 2.2.06, 22 June 2011

               Distributed Multipoles from Gaussian wavefunctions

Starting at 22:17:57 on 26 Apr 2020

Using SCF density matrix from file ./SSI/SSI-058GLN-067PHE-2-dimer.test.9932.fchk

                         Distributed Multipole Analysis

Standard DMA

Positions and radii in angstrom
Multipole moments in atomic units, ea_0^k for rank k

C          x =  2.980720  y =  0.744953  z =  0.941200 angstrom
           Maximum rank =  0   Radius =  0.650 angstrom
                   Q00  =  -0.261245

C          x =  3.280720  y =  0.406953  z = -0.507800 angstrom
           Maximum rank =  0   Radius =  0.650 angstrom
                   Q00  =   0.804742

O          x =  3.591720  y = -0.732047  z = -0.858800 angstrom
           Maximum rank =  0   Radius =  0.650 angstrom
                   Q00  =  -0.789764

N          x =  3.198720  y =  1.411953  z = -1.364800 angstrom
           Maximum rank =  0   Radius =  0.650 angstrom
                   Q00  =  -0.518595

H          x =  2.126720  y =  1.423953  z =  0.972200 angstrom
           Maximum rank =  0   Radius =  0.325 angstrom
                   Q00  =   0.082791

H          x =  3.825720  y =  1.286953  z =  1.354200 angstrom
           Maximum rank =  0   Radius =  0.325 angstrom
                   Q00  =   0.123343

H          x =  3.386720  y =  1.227953  z = -2.340800 angstrom
           Maximum rank =  0   Radius =  0.325 angstrom
                   Q00  =   0.223172

H          x =  2.934720  y =  2.336953  z = -1.057800 angstrom
           Maximum rank =  0   Radius =  0.325 angstrom
                   Q00  =   0.207222

H          x =  2.737710  y = -0.141747  z =  1.545110 angstrom
           Maximum rank =  0   Radius =  0.325 angstrom
                   Q00  =   0.133524

C          x = -3.233280  y =  0.059953  z =  2.441200 angstrom
           Maximum rank =  0   Radius =  0.650 angstrom
                   Q00  =  -0.205502

C          x = -0.543280  y =  0.006953  z = -0.278800 angstrom
           Maximum rank =  0   Radius =  0.650 angstrom
                   Q00  =  -0.061683

C          x = -1.190280  y =  0.212953  z =  0.953200 angstrom
           Maximum rank =  0   Radius =  0.650 angstrom
                   Q00  =  -0.100579

C          x = -1.231280  y = -0.584047  z = -1.337800 angstrom
           Maximum rank =  0   Radius =  0.650 angstrom
                   Q00  =  -0.073769

C          x = -2.526280  y = -0.166047  z =  1.126200 angstrom
           Maximum rank =  0   Radius =  0.650 angstrom
                   Q00  =  -0.102453

C          x = -2.562280  y = -0.960047  z = -1.166800 angstrom
           Maximum rank =  0   Radius =  0.650 angstrom
                   Q00  =  -0.042999

C          x = -3.204280  y = -0.750047  z =  0.058200 angstrom
           Maximum rank =  0   Radius =  0.650 angstrom
                   Q00  =  -0.003557

H          x =  0.478720  y =  0.323953  z = -0.421800 angstrom
           Maximum rank =  0   Radius =  0.325 angstrom
                   Q00  =   0.044824

H          x = -0.657280  y =  0.679953  z =  1.769200 angstrom
           Maximum rank =  0   Radius =  0.325 angstrom
                   Q00  =   0.049587

H          x = -0.740280  y = -0.738047  z = -2.289800 angstrom
           Maximum rank =  0   Radius =  0.325 angstrom
                   Q00  =   0.063794

H          x = -3.103280  y = -1.413047  z = -1.988800 angstrom
           Maximum rank =  0   Radius =  0.325 angstrom
                   Q00  =   0.066182

H          x = -2.605280  y = -0.336047  z =  3.235200 angstrom
           Maximum rank =  0   Radius =  0.325 angstrom
                   Q00  =   0.100605

H          x = -4.179280  y = -0.485047  z =  2.444200 angstrom
           Maximum rank =  0   Radius =  0.325 angstrom
                   Q00  =   0.098869

H          x = -4.239280  y = -1.041047  z =  0.172200 angstrom
           Maximum rank =  0   Radius =  0.325 angstrom
                   Q00  =   0.059211

H          x = -3.425431  y =  1.120394  z =  2.661520 angstrom
           Maximum rank =  0   Radius =  0.325 angstrom
                   Q00  =   0.102279

Total multipoles referred to origin at
           x =   0.000000,  y =    0.000000,  z =    0.000000 angstrom
                   Q00  =  -0.000000

Finished at 22:17:57 on 26 Apr 2020

  DMA results are available in the Python driver through the
	  variable('DMA DISTRIBUTED MULTIPOLES')
  and
	  variable('DMA TOTAL MULTIPOLES')
  commands.

    Psi4 stopped on: Sunday, 26 April 2020 10:17PM
    Psi4 wall time for execution: 0:02:24.63

*** Psi4 exiting successfully. Buy a developer a beer!
