                               Psi4 1.3.2 release

  ==> Input File <==

--------------------------------------------------------------------------
import numpy as np
set {scf_type pk
basis cc-pvdz
d_convergence 10
gdma_switch   0
gdma_limit    0
gdma_origin   [ 0.0,  0.0,  0.0 ]
}
molecule test {
    units Angstrom
    0 1
    --
    0 1
    C               -1.206975821262646    -0.474529929730403    -0.619261898207047
    C               -2.758975821262646    -0.290529929730403    -0.751261898207047
    H               -0.942975821262646    -0.508529929730403     0.428738101792953
    H               -0.919975821262646    -1.417529929730403    -1.076261898207047
    H               -0.672975821262646     0.339470070269597    -1.106261898207047
    H               -3.248975821262646    -1.095529929730403    -0.202261898207047
    H               -3.024975821262646    -0.430529929730403    -1.800261898207047
    H               -3.157575821262646     0.678010070269597    -0.415032898207047
    C                1.902024178737354    -0.371529929730403     0.791738101792953
    C                2.074024178737354     1.144470070269597     0.587738101792953
    H                0.977024178737354    -0.595529929730403     1.314738101792953
    H                1.901024178737354    -0.864529929730403    -0.180261898207047
    H                2.729024178737354    -0.765529929730403     1.382738101792953
    H                1.400024178737354     1.435470070269597    -0.216261898207047
    H                1.750434178737354     1.696060070269597     1.482745101792953
    H                3.089704178737354     1.434870070269597     0.281050101792953

}
e, wfn = energy('scf', return_wfn=True)
gdma(wfn)
dmavals = variable('DMA DISTRIBUTED MULTIPOLES')
charges = np.array(dmavals)
print(charges)
np.save('SSI-112ILE-125VAL-1-dimer.npy', np.array(charges))--------------------------------------------------------------------------

*** tstart() called on ds3
*** at Tue Apr 28 12:42:13 2020

   => Loading Basis Set <=

    Name: CC-PVDZ
    Role: ORBITAL
    Keyword: BASIS
    atoms 1-2, 9-10  entry C          line   138 file /theoryfs2/ds/metcalf/miniconda2/envs/tf2gpu/share/psi4/basis/cc-pvdz.gbs
    atoms 3-8, 11-16 entry H          line    22 file /theoryfs2/ds/metcalf/miniconda2/envs/tf2gpu/share/psi4/basis/cc-pvdz.gbs

         ---------------------------------------------------------
                                   SCF
               by Justin Turney, Rob Parrish, Andy Simmonett
                          and Daniel G. A. Smith
                              RHF Reference
                        1 Threads,    500 MiB Core
         ---------------------------------------------------------

  ==> Geometry <==

    Molecular point group: c1
    Full point group: C1

    Geometry (in Angstrom), charge = 0, multiplicity = 1:

       Center              X                  Y                   Z               Mass
    ------------   -----------------  -----------------  -----------------  -----------------
         C           -1.206975821263    -0.474529929730    -0.619261898207    12.000000000000
         C           -2.758975821263    -0.290529929730    -0.751261898207    12.000000000000
         H           -0.942975821263    -0.508529929730     0.428738101793     1.007825032230
         H           -0.919975821263    -1.417529929730    -1.076261898207     1.007825032230
         H           -0.672975821263     0.339470070270    -1.106261898207     1.007825032230
         H           -3.248975821263    -1.095529929730    -0.202261898207     1.007825032230
         H           -3.024975821263    -0.430529929730    -1.800261898207     1.007825032230
         H           -3.157575821263     0.678010070270    -0.415032898207     1.007825032230
         C            1.902024178737    -0.371529929730     0.791738101793    12.000000000000
         C            2.074024178737     1.144470070270     0.587738101793    12.000000000000
         H            0.977024178737    -0.595529929730     1.314738101793     1.007825032230
         H            1.901024178737    -0.864529929730    -0.180261898207     1.007825032230
         H            2.729024178737    -0.765529929730     1.382738101793     1.007825032230
         H            1.400024178737     1.435470070270    -0.216261898207     1.007825032230
         H            1.750434178737     1.696060070270     1.482745101793     1.007825032230
         H            3.089704178737     1.434870070270     0.281050101793     1.007825032230

  Running in c1 symmetry.

  Rotational constants: A =      0.50476  B =      0.05502  C =      0.05199 [cm^-1]
  Rotational constants: A =  15132.18316  B =   1649.38679  C =   1558.65425 [MHz]
  Nuclear repulsion =  124.538797176303007

  Charge       = 0
  Multiplicity = 1
  Electrons    = 36
  Nalpha       = 18
  Nbeta        = 18

  ==> Algorithm <==

  SCF Algorithm Type is PK.
  DIIS enabled.
  MOM disabled.
  Fractional occupation disabled.
  Guess Type is SAD.
  Energy threshold   = 1.00e-06
  Density threshold  = 1.00e-10
  Integral threshold = 0.00e+00

  ==> Primary Basis <==

  Basis Set: CC-PVDZ
    Blend: CC-PVDZ
    Number of shells: 60
    Number of basis function: 116
    Number of Cartesian functions: 120
    Spherical Harmonics?: true
    Max angular momentum: 2

  ==> Pre-Iterations <==

   -------------------------------------------------------
    Irrep   Nso     Nmo     Nalpha   Nbeta   Ndocc  Nsocc
   -------------------------------------------------------
     A        116     116       0       0       0       0
   -------------------------------------------------------
    Total     116     116      18      18      18       0
   -------------------------------------------------------

  ==> Integral Setup <==

  Using integral reordering PK algorithm.
  Sizing the integral batches needed.
  Building batch lookup table.
   Calculation information:
      Number of atoms:                  16
      Number of AO shells:              60
      Number of primitives:            148
      Number of atomic orbitals:       120
      Number of basis functions:       116

      Integral cutoff                 1.00e-12
      Number of threads:                 1

	Batch   1 pq = [       0,    6786] index = [             0,23028291] size =     23028291
  Task number: 3
  Buffer size: 11059200
  Buffer per thread: 2
  We computed 1494255 shell quartets total.
  Whereas there are 1675365 unique shell quartets.

  ==> DiskJK: Disk-Based J/K Matrices <==

    J tasked:                  Yes
    K tasked:                  Yes
    wK tasked:                  No
    Memory [MiB]:              375
    Schwarz Cutoff:          1E-12

    OpenMP threads:              1

  Minimum eigenvalue in the overlap matrix is 6.9491163110E-03.
  Using Symmetric Orthogonalization.

  SCF Guess: Superposition of Atomic Densities via on-the-fly atomic UHF.

  ==> Iterations <==

                        Total Energy        Delta E     RMS |[F,P]|

   @RHF iter SAD:  -157.30959708197148   -1.57310e+02   0.00000e+00
   @RHF iter   1:  -158.30699800075652   -9.97401e-01   4.13822e-03 DIIS
   @RHF iter   2:  -158.43765018450915   -1.30652e-01   1.73464e-03 DIIS
   @RHF iter   3:  -158.45964600042888   -2.19958e-02   3.46054e-04 DIIS
   @RHF iter   4:  -158.46142956108207   -1.78356e-03   3.83863e-05 DIIS
   @RHF iter   5:  -158.46145217126991   -2.26102e-05   7.09344e-06 DIIS
   @RHF iter   6:  -158.46145284553290   -6.74263e-07   1.64806e-06 DIIS
   @RHF iter   7:  -158.46145287137779   -2.58449e-08   3.36237e-07 DIIS
   @RHF iter   8:  -158.46145287271580   -1.33801e-09   5.14222e-08 DIIS
   @RHF iter   9:  -158.46145287276241   -4.66116e-11   1.29907e-08 DIIS
   @RHF iter  10:  -158.46145287276494   -2.52953e-12   3.76130e-09 DIIS
   @RHF iter  11:  -158.46145287276553   -5.96856e-13   9.82964e-10 DIIS
   @RHF iter  12:  -158.46145287276508    4.54747e-13   1.92751e-10 DIIS
   @RHF iter  13:  -158.46145287276488    1.98952e-13   3.21917e-11 DIIS
  Energy and wave function converged.

  ==> Post-Iterations <==

    Orbital Energies [Eh]
    ---------------------

    Doubly Occupied:

       1A    -11.220723     2A    -11.218939     3A    -11.218794
       4A    -11.215867     5A     -1.015815     6A     -1.008532
       7A     -0.844593     8A     -0.836838     9A     -0.602418
      10A     -0.597586    11A     -0.591926    12A     -0.587805
      13A     -0.504907    14A     -0.497894    15A     -0.492448
      16A     -0.488566    17A     -0.481423    18A     -0.475609

    Virtual:

      19A      0.175409    20A      0.198342    21A      0.226821
      22A      0.227485    23A      0.243614    24A      0.259159
      25A      0.270462    26A      0.278975    27A      0.282913
      28A      0.293173    29A      0.348028    30A      0.356230
      31A      0.390862    32A      0.405565    33A      0.563563
      34A      0.580468    35A      0.588475    36A      0.601266
      37A      0.608521    38A      0.636983    39A      0.678010
      40A      0.698666    41A      0.748184    42A      0.776621
      43A      0.841655    44A      0.859176    45A      0.887257
      46A      0.891303    47A      0.894016    48A      0.895355
      49A      0.903649    50A      0.918971    51A      0.924877
      52A      0.941332    53A      0.954363    54A      0.971138
      55A      0.979124    56A      1.008349    57A      1.114440
      58A      1.125800    59A      1.138042    60A      1.150736
      61A      1.202290    62A      1.292033    63A      1.444431
      64A      1.457234    65A      1.477751    66A      1.499959
      67A      1.589886    68A      1.612690    69A      1.686871
      70A      1.689172    71A      1.697336    72A      1.701586
      73A      1.848001    74A      1.852580    75A      1.869632
      76A      1.883778    77A      1.898919    78A      1.908703
      79A      1.921361    80A      1.930681    81A      1.935393
      82A      1.947000    83A      1.952666    84A      1.962208
      85A      1.966190    86A      1.972490    87A      1.994557
      88A      2.056661    89A      2.088860    90A      2.117768
      91A      2.134348    92A      2.166453    93A      2.299033
      94A      2.301562    95A      2.312768    96A      2.367236
      97A      2.424476    98A      2.447946    99A      2.454094
     100A      2.475818   101A      2.544599   102A      2.565124
     103A      2.576346   104A      2.609918   105A      2.763600
     106A      2.767814   107A      2.791121   108A      2.800801
     109A      2.842252   110A      2.849915   111A      2.866286
     112A      2.874747   113A      2.930704   114A      2.948566
     115A      2.975315   116A      2.983972

    Final Occupation by Irrep:
              A
    DOCC [    18 ]

  @RHF Final Energy:  -158.46145287276488

   => Energetics <=

    Nuclear Repulsion Energy =            124.5387971763030066
    One-Electron Energy =                -458.1991346881183631
    Two-Electron Energy =                 175.1988846390504477
    Total Energy =                       -158.4614528727648803

Computation Completed

Properties will be evaluated at   0.000000,   0.000000,   0.000000 [a0]

Properties computed using the SCF density matrix

  Nuclear Dipole Moment: [e a0]
     X:    -0.1127      Y:    -0.0880      Z:    -0.0999

  Electronic Dipole Moment: [e a0]
     X:     0.1028      Y:     0.0627      Z:     0.0913

  Dipole Moment: [e a0]
     X:    -0.0099      Y:    -0.0252      Z:    -0.0087     Total:     0.0285

  Dipole Moment: [D]
     X:    -0.0252      Y:    -0.0641      Z:    -0.0220     Total:     0.0723

*** tstop() called on ds3 at Tue Apr 28 12:42:34 2020
Module time:
	user time   =       7.60 seconds =       0.13 minutes
	system time =       2.55 seconds =       0.04 minutes
	total time  =         21 seconds =       0.35 minutes
Total time:
	user time   =       7.60 seconds =       0.13 minutes
	system time =       2.55 seconds =       0.04 minutes
	total time  =         21 seconds =       0.35 minutes
                                     G D M A

                                 by Anthony Stone

                           version 2.2.06, 22 June 2011

               Distributed Multipoles from Gaussian wavefunctions

Starting at 12:42:34 on 28 Apr 2020

Using SCF density matrix from file ./SSI/SSI-112ILE-125VAL-1-dimer.test.15308.fchk

                         Distributed Multipole Analysis

Standard DMA

Positions and radii in angstrom
Multipole moments in atomic units, ea_0^k for rank k

C          x = -1.206976  y = -0.474530  z = -0.619262 angstrom
           Maximum rank =  0   Radius =  0.650 angstrom
                   Q00  =  -0.246353

C          x = -2.758976  y = -0.290530  z = -0.751262 angstrom
           Maximum rank =  0   Radius =  0.650 angstrom
                   Q00  =  -0.253163

H          x = -0.942976  y = -0.508530  z =  0.428738 angstrom
           Maximum rank =  0   Radius =  0.325 angstrom
                   Q00  =   0.080960

H          x = -0.919976  y = -1.417530  z = -1.076262 angstrom
           Maximum rank =  0   Radius =  0.325 angstrom
                   Q00  =   0.085196

H          x = -0.672976  y =  0.339470  z = -1.106262 angstrom
           Maximum rank =  0   Radius =  0.325 angstrom
                   Q00  =   0.083840

H          x = -3.248976  y = -1.095530  z = -0.202262 angstrom
           Maximum rank =  0   Radius =  0.325 angstrom
                   Q00  =   0.080915

H          x = -3.024976  y = -0.430530  z = -1.800262 angstrom
           Maximum rank =  0   Radius =  0.325 angstrom
                   Q00  =   0.078835

H          x = -3.157576  y =  0.678010  z = -0.415033 angstrom
           Maximum rank =  0   Radius =  0.325 angstrom
                   Q00  =   0.087167

C          x =  1.902024  y = -0.371530  z =  0.791738 angstrom
           Maximum rank =  0   Radius =  0.650 angstrom
                   Q00  =  -0.224263

C          x =  2.074024  y =  1.144470  z =  0.587738 angstrom
           Maximum rank =  0   Radius =  0.650 angstrom
                   Q00  =  -0.249450

H          x =  0.977024  y = -0.595530  z =  1.314738 angstrom
           Maximum rank =  0   Radius =  0.325 angstrom
                   Q00  =   0.082804

H          x =  1.901024  y = -0.864530  z = -0.180262 angstrom
           Maximum rank =  0   Radius =  0.325 angstrom
                   Q00  =   0.078564

H          x =  2.729024  y = -0.765530  z =  1.382738 angstrom
           Maximum rank =  0   Radius =  0.325 angstrom
                   Q00  =   0.077667

H          x =  1.400024  y =  1.435470  z = -0.216262 angstrom
           Maximum rank =  0   Radius =  0.325 angstrom
                   Q00  =   0.074333

H          x =  1.750434  y =  1.696060  z =  1.482745 angstrom
           Maximum rank =  0   Radius =  0.325 angstrom
                   Q00  =   0.079123

H          x =  3.089704  y =  1.434870  z =  0.281050 angstrom
           Maximum rank =  0   Radius =  0.325 angstrom
                   Q00  =   0.083823

Total multipoles referred to origin at
           x =   0.000000,  y =    0.000000,  z =    0.000000 angstrom
                   Q00  =  -0.000000

Finished at 12:42:34 on 28 Apr 2020

  DMA results are available in the Python driver through the
	  variable('DMA DISTRIBUTED MULTIPOLES')
  and
	  variable('DMA TOTAL MULTIPOLES')
  commands.

    Psi4 stopped on: Tuesday, 28 April 2020 12:42PM
    Psi4 wall time for execution: 0:00:20.73

*** Psi4 exiting successfully. Buy a developer a beer!
