                               Psi4 1.3.2 release

  ==> Input File <==

--------------------------------------------------------------------------
import numpy as np
set {scf_type pk
basis cc-pvdz
d_convergence 10
gdma_switch   0
gdma_limit    0
gdma_origin   [ 0.0,  0.0,  0.0 ]
}
molecule test {
    units Angstrom
    0 1
    --
    0 1
    C                0.545710684295785    -2.276940666633649    -0.852580263482807
    C                0.305710684295785    -1.824940666633649    -2.206580263482807
    N                1.661710684295785    -1.297940666633649    -0.440580263482807
    H               -0.345289315704215    -2.159940666633649    -0.227580263482807
    H                0.885710684295785    -3.318940666633649    -0.855580263482807
    H                1.177710684295785    -2.051940666633649    -2.827580263482807
    H                0.227710684295785    -0.732940666633649    -2.183580263482807
    H                1.243710684295785    -0.402940666633649    -0.174580263482807
    H                2.130710684295785    -1.625940666633649     0.395419736517193
    H                2.367710684295785    -1.156940666633649    -1.153580263482807
    H               -0.607054315704215    -2.114960666633649    -2.747644263482807
    C               -1.886289315704215     1.798059333366351     1.530419736517193
    C               -0.614289315704215     1.360059333366351     0.874419736517193
    O               -0.241289315704215     0.177059333366351     1.015419736517193
    O               -0.005289315704215     2.161059333366351     0.155419736517193
    H               -1.841289315704215     2.861059333366351     1.779419736517193
    H               -2.034289315704215     1.247059333366351     2.460419736517193
    H               -2.744117315704214     1.620049333366351     0.865259736517193

}
e, wfn = energy('scf', return_wfn=True)
gdma(wfn)
dmavals = variable('DMA DISTRIBUTED MULTIPOLES')
charges = np.array(dmavals)
print(charges)
np.save('SSI-050LYS-056GLU-1-dimer.npy', np.array(charges))--------------------------------------------------------------------------

*** tstart() called on ds3
*** at Tue Apr 28 13:39:34 2020

   => Loading Basis Set <=

    Name: CC-PVDZ
    Role: ORBITAL
    Keyword: BASIS
    atoms 1-2, 12-13  entry C          line   138 file /theoryfs2/ds/metcalf/miniconda2/envs/tf2gpu/share/psi4/basis/cc-pvdz.gbs
    atoms 3           entry N          line   168 file /theoryfs2/ds/metcalf/miniconda2/envs/tf2gpu/share/psi4/basis/cc-pvdz.gbs
    atoms 4-11, 16-18 entry H          line    22 file /theoryfs2/ds/metcalf/miniconda2/envs/tf2gpu/share/psi4/basis/cc-pvdz.gbs
    atoms 14-15       entry O          line   198 file /theoryfs2/ds/metcalf/miniconda2/envs/tf2gpu/share/psi4/basis/cc-pvdz.gbs

         ---------------------------------------------------------
                                   SCF
               by Justin Turney, Rob Parrish, Andy Simmonett
                          and Daniel G. A. Smith
                              RHF Reference
                        1 Threads,    500 MiB Core
         ---------------------------------------------------------

  ==> Geometry <==

    Molecular point group: c1
    Full point group: C1

    Geometry (in Angstrom), charge = 0, multiplicity = 1:

       Center              X                  Y                   Z               Mass
    ------------   -----------------  -----------------  -----------------  -----------------
         C            0.545710684296    -2.276940666634    -0.852580263483    12.000000000000
         C            0.305710684296    -1.824940666634    -2.206580263483    12.000000000000
         N            1.661710684296    -1.297940666634    -0.440580263483    14.003074004430
         H           -0.345289315704    -2.159940666634    -0.227580263483     1.007825032230
         H            0.885710684296    -3.318940666634    -0.855580263483     1.007825032230
         H            1.177710684296    -2.051940666634    -2.827580263483     1.007825032230
         H            0.227710684296    -0.732940666634    -2.183580263483     1.007825032230
         H            1.243710684296    -0.402940666634    -0.174580263483     1.007825032230
         H            2.130710684296    -1.625940666634     0.395419736517     1.007825032230
         H            2.367710684296    -1.156940666634    -1.153580263483     1.007825032230
         H           -0.607054315704    -2.114960666634    -2.747644263483     1.007825032230
         C           -1.886289315704     1.798059333366     1.530419736517    12.000000000000
         C           -0.614289315704     1.360059333366     0.874419736517    12.000000000000
         O           -0.241289315704     0.177059333366     1.015419736517    15.994914619570
         O           -0.005289315704     2.161059333366     0.155419736517    15.994914619570
         H           -1.841289315704     2.861059333366     1.779419736517     1.007825032230
         H           -2.034289315704     1.247059333366     2.460419736517     1.007825032230
         H           -2.744117315704     1.620049333366     0.865259736517     1.007825032230

  Running in c1 symmetry.

  Rotational constants: A =      0.15603  B =      0.03214  C =      0.03175 [cm^-1]
  Rotational constants: A =   4677.60866  B =    963.40278  C =    951.86911 [MHz]
  Nuclear repulsion =  312.048250758983784

  Charge       = 0
  Multiplicity = 1
  Electrons    = 58
  Nalpha       = 29
  Nbeta        = 29

  ==> Algorithm <==

  SCF Algorithm Type is PK.
  DIIS enabled.
  MOM disabled.
  Fractional occupation disabled.
  Guess Type is SAD.
  Energy threshold   = 1.00e-06
  Density threshold  = 1.00e-10
  Integral threshold = 0.00e+00

  ==> Primary Basis <==

  Basis Set: CC-PVDZ
    Blend: CC-PVDZ
    Number of shells: 75
    Number of basis function: 153
    Number of Cartesian functions: 160
    Spherical Harmonics?: true
    Max angular momentum: 2

  ==> Pre-Iterations <==

   -------------------------------------------------------
    Irrep   Nso     Nmo     Nalpha   Nbeta   Ndocc  Nsocc
   -------------------------------------------------------
     A        153     153       0       0       0       0
   -------------------------------------------------------
    Total     153     153      29      29      29       0
   -------------------------------------------------------

  ==> Integral Setup <==

  Using integral reordering PK algorithm.
  Sizing the integral batches needed.
  Building batch lookup table.
   Calculation information:
      Number of atoms:                  18
      Number of AO shells:              75
      Number of primitives:            209
      Number of atomic orbitals:       160
      Number of basis functions:       153

      Integral cutoff                 1.00e-12
      Number of threads:                 1

	Batch   1 pq = [       0,    9405] index = [             0,44231715] size =     44231715
	Batch   2 pq = [    9405,   11781] index = [      44231715,69401871] size =     25170156
  Task number: 7
  Buffer size: 11059200
  Buffer per thread: 2
  We computed 3478777 shell quartets total.
  Whereas there are 4062675 unique shell quartets.

  ==> DiskJK: Disk-Based J/K Matrices <==

    J tasked:                  Yes
    K tasked:                  Yes
    wK tasked:                  No
    Memory [MiB]:              375
    Schwarz Cutoff:          1E-12

    OpenMP threads:              1

  Minimum eigenvalue in the overlap matrix is 4.6129515211E-03.
  Using Symmetric Orthogonalization.

  SCF Guess: Superposition of Atomic Densities via on-the-fly atomic UHF.

  ==> Iterations <==

                        Total Energy        Delta E     RMS |[F,P]|

   @RHF iter SAD:  -360.88932093645894   -3.60889e+02   0.00000e+00
   @RHF iter   1:  -361.77070918931599   -8.81388e-01   4.68959e-03 DIIS
   @RHF iter   2:  -361.97688769294075   -2.06179e-01   2.49908e-03 DIIS
   @RHF iter   3:  -362.03019861873116   -5.33109e-02   4.26504e-04 DIIS
   @RHF iter   4:  -362.03309902683964   -2.90041e-03   1.47741e-04 DIIS
   @RHF iter   5:  -362.03342825619330   -3.29229e-04   2.72078e-05 DIIS
   @RHF iter   6:  -362.03344405129150   -1.57951e-05   1.30762e-05 DIIS
   @RHF iter   7:  -362.03344627985172   -2.22856e-06   3.48340e-06 DIIS
   @RHF iter   8:  -362.03344673413432   -4.54283e-07   1.72664e-06 DIIS
   @RHF iter   9:  -362.03344683397268   -9.98384e-08   5.41488e-07 DIIS
   @RHF iter  10:  -362.03344684539042   -1.14177e-08   1.58687e-07 DIIS
   @RHF iter  11:  -362.03344684621152   -8.21103e-10   3.52061e-08 DIIS
   @RHF iter  12:  -362.03344684624813   -3.66072e-11   8.25508e-09 DIIS
   @RHF iter  13:  -362.03344684625182   -3.69482e-12   1.79289e-09 DIIS
   @RHF iter  14:  -362.03344684625114    6.82121e-13   6.26093e-10 DIIS
   @RHF iter  15:  -362.03344684624921    1.93268e-12   2.05310e-10 DIIS
   @RHF iter  16:  -362.03344684625108   -1.87583e-12   8.36531e-11 DIIS
  Energy and wave function converged.

  ==> Post-Iterations <==

    Orbital Energies [Eh]
    ---------------------

    Doubly Occupied:

       1A    -20.421037     2A    -20.401931     3A    -15.723633
       4A    -11.337742     5A    -11.269221     6A    -11.256139
       7A    -11.165536     8A     -1.344883     9A     -1.308530
      10A     -1.190119    11A     -1.095232    12A     -0.921910
      13A     -0.907264    14A     -0.805425    15A     -0.790753
      16A     -0.704144    17A     -0.664192    18A     -0.640070
      19A     -0.597229    20A     -0.565023    21A     -0.554957
      22A     -0.544138    23A     -0.541546    24A     -0.538747
      25A     -0.473437    26A     -0.447432    27A     -0.340864
      28A     -0.317469    29A     -0.316037

    Virtual:

      30A      0.111535    31A      0.159512    32A      0.161495
      33A      0.195183    34A      0.227537    35A      0.233197
      36A      0.249795    37A      0.258233    38A      0.273597
      39A      0.282963    40A      0.315089    41A      0.338213
      42A      0.346395    43A      0.360691    44A      0.462323
      45A      0.530632    46A      0.539323    47A      0.543106
      48A      0.573826    49A      0.581191    50A      0.591883
      51A      0.637521    52A      0.716741    53A      0.738855
      54A      0.761379    55A      0.772552    56A      0.786022
      57A      0.811566    58A      0.815060    59A      0.834180
      60A      0.842524    61A      0.845604    62A      0.862118
      63A      0.881654    64A      0.904496    65A      0.916225
      66A      0.920955    67A      0.924034    68A      0.953712
      69A      0.969685    70A      1.013823    71A      1.015761
      72A      1.048223    73A      1.088967    74A      1.096224
      75A      1.116171    76A      1.183656    77A      1.210571
      78A      1.232356    79A      1.298175    80A      1.322956
      81A      1.377667    82A      1.388680    83A      1.427627
      84A      1.451730    85A      1.470825    86A      1.503568
      87A      1.513960    88A      1.554363    89A      1.584699
      90A      1.609017    91A      1.644448    92A      1.665082
      93A      1.716531    94A      1.722878    95A      1.740600
      96A      1.778191    97A      1.801836    98A      1.832618
      99A      1.853661   100A      1.873390   101A      1.888794
     102A      1.917666   103A      1.936466   104A      1.941347
     105A      1.958480   106A      1.979553   107A      2.002446
     108A      2.031146   109A      2.044564   110A      2.088631
     111A      2.106620   112A      2.125206   113A      2.134499
     114A      2.159814   115A      2.166868   116A      2.222993
     117A      2.248912   118A      2.261015   119A      2.284800
     120A      2.304416   121A      2.320449   122A      2.362747
     123A      2.417227   124A      2.457268   125A      2.509008
     126A      2.538680   127A      2.555412   128A      2.577175
     129A      2.605827   130A      2.656389   131A      2.686910
     132A      2.702389   133A      2.722573   134A      2.798126
     135A      2.803160   136A      2.835075   137A      2.857301
     138A      2.865022   139A      2.935112   140A      2.955749
     141A      3.013105   142A      3.088407   143A      3.129823
     144A      3.148455   145A      3.218711   146A      3.290278
     147A      3.312337   148A      3.502208   149A      3.636035
     150A      3.705075   151A      3.939023   152A      3.950029
     153A      4.085466

    Final Occupation by Irrep:
              A
    DOCC [    29 ]

  @RHF Final Energy:  -362.03344684625108

   => Energetics <=

    Nuclear Repulsion Energy =            312.0482507589837837
    One-Electron Energy =               -1113.7941162135116429
    Two-Electron Energy =                 439.7124186082767210
    Total Energy =                       -362.0334468462510813

Computation Completed

Properties will be evaluated at   0.000000,   0.000000,   0.000000 [a0]

Properties computed using the SCF density matrix

  Nuclear Dipole Moment: [e a0]
     X:     0.4264      Y:    -7.3314      Z:    -4.3707

  Electronic Dipole Moment: [e a0]
     X:     1.5550      Y:     3.4769      Z:     2.8045

  Dipole Moment: [e a0]
     X:     1.9814      Y:    -3.8545      Z:    -1.5662     Total:     4.6083

  Dipole Moment: [D]
     X:     5.0361      Y:    -9.7972      Z:    -3.9810     Total:    11.7130

*** tstop() called on ds3 at Tue Apr 28 13:40:10 2020
Module time:
	user time   =      25.31 seconds =       0.42 minutes
	system time =      11.36 seconds =       0.19 minutes
	total time  =         36 seconds =       0.60 minutes
Total time:
	user time   =      25.31 seconds =       0.42 minutes
	system time =      11.36 seconds =       0.19 minutes
	total time  =         36 seconds =       0.60 minutes
                                     G D M A

                                 by Anthony Stone

                           version 2.2.06, 22 June 2011

               Distributed Multipoles from Gaussian wavefunctions

Starting at 13:40:10 on 28 Apr 2020

Using SCF density matrix from file ./SSI/SSI-050LYS-056GLU-1-dimer.test.19715.fchk

                         Distributed Multipole Analysis

Standard DMA

Positions and radii in angstrom
Multipole moments in atomic units, ea_0^k for rank k

C          x =  0.545711  y = -2.276941  z = -0.852580 angstrom
           Maximum rank =  0   Radius =  0.650 angstrom
                   Q00  =   0.002738

C          x =  0.305711  y = -1.824941  z = -2.206580 angstrom
           Maximum rank =  0   Radius =  0.650 angstrom
                   Q00  =  -0.233667

N          x =  1.661711  y = -1.297941  z = -0.440580 angstrom
           Maximum rank =  0   Radius =  0.650 angstrom
                   Q00  =  -0.087796

H          x = -0.345289  y = -2.159941  z = -0.227580 angstrom
           Maximum rank =  0   Radius =  0.325 angstrom
                   Q00  =   0.161020

H          x =  0.885711  y = -3.318941  z = -0.855580 angstrom
           Maximum rank =  0   Radius =  0.325 angstrom
                   Q00  =   0.086660

H          x =  1.177711  y = -2.051941  z = -2.827580 angstrom
           Maximum rank =  0   Radius =  0.325 angstrom
                   Q00  =   0.059622

H          x =  0.227711  y = -0.732941  z = -2.183580 angstrom
           Maximum rank =  0   Radius =  0.325 angstrom
                   Q00  =   0.104209

H          x =  1.243711  y = -0.402941  z = -0.174580 angstrom
           Maximum rank =  0   Radius =  0.325 angstrom
                   Q00  =   0.276768

H          x =  2.130711  y = -1.625941  z =  0.395420 angstrom
           Maximum rank =  0   Radius =  0.325 angstrom
                   Q00  =   0.222233

H          x =  2.367711  y = -1.156941  z = -1.153580 angstrom
           Maximum rank =  0   Radius =  0.325 angstrom
                   Q00  =   0.222113

H          x = -0.607054  y = -2.114961  z = -2.747644 angstrom
           Maximum rank =  0   Radius =  0.325 angstrom
                   Q00  =   0.128031

C          x = -1.886289  y =  1.798059  z =  1.530420 angstrom
           Maximum rank =  0   Radius =  0.650 angstrom
                   Q00  =  -0.258013

C          x = -0.614289  y =  1.360059  z =  0.874420 angstrom
           Maximum rank =  0   Radius =  0.650 angstrom
                   Q00  =   0.897388

O          x = -0.241289  y =  0.177059  z =  1.015420 angstrom
           Maximum rank =  0   Radius =  0.650 angstrom
                   Q00  =  -0.955024

O          x = -0.005289  y =  2.161059  z =  0.155420 angstrom
           Maximum rank =  0   Radius =  0.650 angstrom
                   Q00  =  -0.883718

H          x = -1.841289  y =  2.861059  z =  1.779420 angstrom
           Maximum rank =  0   Radius =  0.325 angstrom
                   Q00  =   0.086747

H          x = -2.034289  y =  1.247059  z =  2.460420 angstrom
           Maximum rank =  0   Radius =  0.325 angstrom
                   Q00  =   0.071854

H          x = -2.744117  y =  1.620049  z =  0.865260 angstrom
           Maximum rank =  0   Radius =  0.325 angstrom
                   Q00  =   0.098836

Total multipoles referred to origin at
           x =   0.000000,  y =    0.000000,  z =    0.000000 angstrom
                   Q00  =  -0.000000

Finished at 13:40:10 on 28 Apr 2020

  DMA results are available in the Python driver through the
	  variable('DMA DISTRIBUTED MULTIPOLES')
  and
	  variable('DMA TOTAL MULTIPOLES')
  commands.

    Psi4 stopped on: Tuesday, 28 April 2020 01:40PM
    Psi4 wall time for execution: 0:00:35.71

*** Psi4 exiting successfully. Buy a developer a beer!
