                               Psi4 1.3.2 release

  ==> Input File <==

--------------------------------------------------------------------------
import numpy as np
set {scf_type pk
basis cc-pvdz
d_convergence 10
gdma_switch   0
gdma_limit    0
gdma_origin   [ 0.0,  0.0,  0.0 ]
}
molecule test {
    units Angstrom
    0 1
    --
    0 1
    C               -0.753710464100383    -1.099055625745080    -2.987083797125134
    C                0.979289535899617     0.454944374254920    -0.072083797125134
    C               -0.145710464100383     0.350944374254920    -0.926083797125134
    C                0.145289535899617    -0.660055625745080    -1.894083797125134
    C                1.395289535899617    -1.117055625745080    -1.615083797125134
    C                1.028289535899617     1.354944374254921     0.981916202874866
    C               -0.074710464100383     2.159944374254920     1.197916202874866
    C               -1.247710464100383     1.186944374254920    -0.699083797125134
    C               -1.206710464100383     2.081944374254920     0.366916202874866
    N                1.895289535899617    -0.462055625745080    -0.516083797125134
    H                2.823289535899617    -0.637055625745080    -0.132083797125134
    H                1.901289535899617     1.404944374254920     1.609916202874866
    H                1.909289535899617    -1.898055625745080    -2.164083797125134
    H               -0.066710464100383     2.859944374254920     2.021916202874866
    H               -2.116710464100383     1.122944374254920    -1.336083797125134
    H               -0.155710464100383    -1.431055625745080    -3.834083797125134
    H               -1.343710464100383    -0.241055625745080    -3.314083797125134
    H               -2.057710464100383     2.721944374254920     0.549916202874866
    H               -1.434079464100383    -1.906815625745080    -2.679469797125134
    C               -0.419710464100383    -2.020055625745080     2.297916202874866
    C               -1.408710464100383    -1.443055625745080     3.310916202874866
    H                0.060289535899617    -1.215055625745080     1.749916202874866
    H                0.329289535899617    -2.599055625745080     2.829916202874866
    H               -0.916710464100383    -2.683055625745080     1.596916202874866
    H               -1.776710464100383    -2.261055625745080     3.926916202874866
    H               -2.254765464100383    -0.953495625745080     2.806416202874866
    H               -0.887877464100383    -0.752215625745080     3.990236202874866

}
e, wfn = energy('scf', return_wfn=True)
gdma(wfn)
dmavals = variable('DMA DISTRIBUTED MULTIPOLES')
charges = np.array(dmavals)
print(charges)
np.save('SSI-039TRP-066LEU-1-dimer.npy', np.array(charges))--------------------------------------------------------------------------

*** tstart() called on ds3
*** at Mon Apr 27 18:38:30 2020

   => Loading Basis Set <=

    Name: CC-PVDZ
    Role: ORBITAL
    Keyword: BASIS
    atoms 1-9, 20-21   entry C          line   138 file /theoryfs2/ds/metcalf/miniconda2/envs/tf2gpu/share/psi4/basis/cc-pvdz.gbs
    atoms 10           entry N          line   168 file /theoryfs2/ds/metcalf/miniconda2/envs/tf2gpu/share/psi4/basis/cc-pvdz.gbs
    atoms 11-19, 22-27 entry H          line    22 file /theoryfs2/ds/metcalf/miniconda2/envs/tf2gpu/share/psi4/basis/cc-pvdz.gbs

         ---------------------------------------------------------
                                   SCF
               by Justin Turney, Rob Parrish, Andy Simmonett
                          and Daniel G. A. Smith
                              RHF Reference
                        1 Threads,    500 MiB Core
         ---------------------------------------------------------

  ==> Geometry <==

    Molecular point group: c1
    Full point group: C1

    Geometry (in Angstrom), charge = 0, multiplicity = 1:

       Center              X                  Y                   Z               Mass
    ------------   -----------------  -----------------  -----------------  -----------------
         C           -0.753710464100    -1.099055625745    -2.987083797125    12.000000000000
         C            0.979289535900     0.454944374255    -0.072083797125    12.000000000000
         C           -0.145710464100     0.350944374255    -0.926083797125    12.000000000000
         C            0.145289535900    -0.660055625745    -1.894083797125    12.000000000000
         C            1.395289535900    -1.117055625745    -1.615083797125    12.000000000000
         C            1.028289535900     1.354944374255     0.981916202875    12.000000000000
         C           -0.074710464100     2.159944374255     1.197916202875    12.000000000000
         C           -1.247710464100     1.186944374255    -0.699083797125    12.000000000000
         C           -1.206710464100     2.081944374255     0.366916202875    12.000000000000
         N            1.895289535900    -0.462055625745    -0.516083797125    14.003074004430
         H            2.823289535900    -0.637055625745    -0.132083797125     1.007825032230
         H            1.901289535900     1.404944374255     1.609916202875     1.007825032230
         H            1.909289535900    -1.898055625745    -2.164083797125     1.007825032230
         H           -0.066710464100     2.859944374255     2.021916202875     1.007825032230
         H           -2.116710464100     1.122944374255    -1.336083797125     1.007825032230
         H           -0.155710464100    -1.431055625745    -3.834083797125     1.007825032230
         H           -1.343710464100    -0.241055625745    -3.314083797125     1.007825032230
         H           -2.057710464100     2.721944374255     0.549916202875     1.007825032230
         H           -1.434079464100    -1.906815625745    -2.679469797125     1.007825032230
         C           -0.419710464100    -2.020055625745     2.297916202875    12.000000000000
         C           -1.408710464100    -1.443055625745     3.310916202875    12.000000000000
         H            0.060289535900    -1.215055625745     1.749916202875     1.007825032230
         H            0.329289535900    -2.599055625745     2.829916202875     1.007825032230
         H           -0.916710464100    -2.683055625745     1.596916202875     1.007825032230
         H           -1.776710464100    -2.261055625745     3.926916202875     1.007825032230
         H           -2.254765464100    -0.953495625745     2.806416202875     1.007825032230
         H           -0.887877464100    -0.752215625745     3.990236202875     1.007825032230

  Running in c1 symmetry.

  Rotational constants: A =      0.03360  B =      0.02307  C =      0.01963 [cm^-1]
  Rotational constants: A =   1007.27616  B =    691.62925  C =    588.48190 [MHz]
  Nuclear repulsion =  670.990981490791455

  Charge       = 0
  Multiplicity = 1
  Electrons    = 88
  Nalpha       = 44
  Nbeta        = 44

  ==> Algorithm <==

  SCF Algorithm Type is PK.
  DIIS enabled.
  MOM disabled.
  Fractional occupation disabled.
  Guess Type is SAD.
  Energy threshold   = 1.00e-06
  Density threshold  = 1.00e-10
  Integral threshold = 0.00e+00

  ==> Primary Basis <==

  Basis Set: CC-PVDZ
    Blend: CC-PVDZ
    Number of shells: 117
    Number of basis function: 243
    Number of Cartesian functions: 255
    Spherical Harmonics?: true
    Max angular momentum: 2

  ==> Pre-Iterations <==

   -------------------------------------------------------
    Irrep   Nso     Nmo     Nalpha   Nbeta   Ndocc  Nsocc
   -------------------------------------------------------
     A        243     243       0       0       0       0
   -------------------------------------------------------
    Total     243     243      44      44      44       0
   -------------------------------------------------------

  ==> Integral Setup <==

  Using integral reordering PK algorithm.
  Sizing the integral batches needed.
  Building batch lookup table.
   Calculation information:
      Number of atoms:                  27
      Number of AO shells:             117
      Number of primitives:            339
      Number of atomic orbitals:       255
      Number of basis functions:       243

      Integral cutoff                 1.00e-12
      Number of threads:                 1

	Batch   1 pq = [       0,    9405] index = [             0,44231715] size =     44231715
	Batch   2 pq = [    9405,   13301] index = [      44231715,88464951] size =     44233236
	Batch   3 pq = [   13301,   16290] index = [      88464951,132690195] size =     44225244
	Batch   4 pq = [   16290,   18810] index = [     132690195,176917455] size =     44227260
	Batch   5 pq = [   18810,   21030] index = [     176917455,221140965] size =     44223510
	Batch   6 pq = [   21030,   23037] index = [     221140965,265363203] size =     44222238
	Batch   7 pq = [   23037,   24883] index = [     265363203,309594286] size =     44231083
	Batch   8 pq = [   24883,   26601] index = [     309594286,353819901] size =     44225615
	Batch   9 pq = [   26601,   28214] index = [     353819901,398029005] size =     44209104
	Batch  10 pq = [   28214,   29646] index = [     398029005,439457481] size =     41428476
  Task number: 40
  Buffer size: 11059200
  Buffer per thread: 2
  We computed 24889024 shell quartets total.
  Whereas there are 23829156 unique shell quartets.
     4.45 percent of shell quartets recomputed by reordering.

  ==> DiskJK: Disk-Based J/K Matrices <==

    J tasked:                  Yes
    K tasked:                  Yes
    wK tasked:                  No
    Memory [MiB]:              375
    Schwarz Cutoff:          1E-12

    OpenMP threads:              1

  Minimum eigenvalue in the overlap matrix is 2.3456754812E-04.
  Using Symmetric Orthogonalization.

  SCF Guess: Superposition of Atomic Densities via on-the-fly atomic UHF.

  ==> Iterations <==

                        Total Energy        Delta E     RMS |[F,P]|

   @RHF iter SAD:  -479.09958128361484   -4.79100e+02   0.00000e+00
   @RHF iter   1:  -479.48547466752109   -3.85893e-01   2.62748e-03 DIIS
   @RHF iter   2:  -479.71897332280622   -2.33499e-01   1.18994e-03 DIIS
   @RHF iter   3:  -479.76279872478540   -4.38254e-02   3.10507e-04 DIIS
   @RHF iter   4:  -479.76671947697201   -3.92075e-03   1.42737e-04 DIIS
   @RHF iter   5:  -479.76740098866492   -6.81512e-04   2.01068e-05 DIIS
   @RHF iter   6:  -479.76743023960904   -2.92509e-05   9.29413e-06 DIIS
   @RHF iter   7:  -479.76743621204508   -5.97244e-06   3.82762e-06 DIIS
   @RHF iter   8:  -479.76743787154049   -1.65950e-06   1.52253e-06 DIIS
   @RHF iter   9:  -479.76743820757167   -3.36031e-07   6.74529e-07 DIIS
   @RHF iter  10:  -479.76743827414595   -6.65743e-08   3.04757e-07 DIIS
   @RHF iter  11:  -479.76743829060308   -1.64571e-08   1.17794e-07 DIIS
   @RHF iter  12:  -479.76743829299608   -2.39299e-09   3.71202e-08 DIIS
   @RHF iter  13:  -479.76743829314694   -1.50862e-10   9.51710e-09 DIIS
   @RHF iter  14:  -479.76743829316456   -1.76215e-11   3.96028e-09 DIIS
   @RHF iter  15:  -479.76743829316825   -3.69482e-12   1.82316e-09 DIIS
   @RHF iter  16:  -479.76743829316365    4.60432e-12   9.24183e-10 DIIS
   @RHF iter  17:  -479.76743829316382   -1.70530e-13   3.57887e-10 DIIS
   @RHF iter  18:  -479.76743829316655   -2.72848e-12   1.50916e-10 DIIS
   @RHF iter  19:  -479.76743829316570    8.52651e-13   5.28681e-11 DIIS
  Energy and wave function converged.

  ==> Post-Iterations <==

    Orbital Energies [Eh]
    ---------------------

    Doubly Occupied:

       1A    -15.602310     2A    -11.263009     3A    -11.262956
       4A    -11.231365     5A    -11.230885     6A    -11.229527
       7A    -11.224761     8A    -11.222747     9A    -11.219082
      10A    -11.214788    11A    -11.207525    12A    -11.200926
      13A     -1.296098    14A     -1.129223    15A     -1.076052
      16A     -1.006274    17A     -0.998749    18A     -0.988130
      19A     -0.931975    20A     -0.840280    21A     -0.825235
      22A     -0.805242    23A     -0.752721    24A     -0.719464
      25A     -0.663701    26A     -0.643017    27A     -0.603688
      28A     -0.598222    29A     -0.592229    30A     -0.586834
      31A     -0.582380    32A     -0.569065    33A     -0.552597
      34A     -0.539893    35A     -0.526541    36A     -0.495510
      37A     -0.487367    38A     -0.476289    39A     -0.471956
      40A     -0.471685    41A     -0.460993    42A     -0.373127
      43A     -0.295895    44A     -0.274890

    Virtual:

      45A      0.124942    46A      0.168279    47A      0.176669
      48A      0.186492    49A      0.197193    50A      0.208178
      51A      0.221048    52A      0.229868    53A      0.231612
      54A      0.251010    55A      0.258868    56A      0.266237
      57A      0.270817    58A      0.276621    59A      0.291282
      60A      0.300971    61A      0.307575    62A      0.321100
      63A      0.375911    64A      0.382925    65A      0.406800
      66A      0.409289    67A      0.421959    68A      0.446396
      69A      0.471516    70A      0.480428    71A      0.506817
      72A      0.518638    73A      0.586934    74A      0.592857
      75A      0.600233    76A      0.609399    77A      0.626522
      78A      0.640685    79A      0.645591    80A      0.664504
      81A      0.673619    82A      0.693047    83A      0.698403
      84A      0.719387    85A      0.724835    86A      0.731735
      87A      0.738646    88A      0.752752    89A      0.759062
      90A      0.763943    91A      0.773459    92A      0.778422
      93A      0.789862    94A      0.797694    95A      0.825864
      96A      0.849694    97A      0.862974    98A      0.867003
      99A      0.874724   100A      0.884545   101A      0.887161
     102A      0.899582   103A      0.904097   104A      0.906289
     105A      0.911723   106A      0.921322   107A      0.924551
     108A      0.941931   109A      0.950252   110A      0.953605
     111A      0.958665   112A      0.965966   113A      0.977252
     114A      0.990967   115A      1.013740   116A      1.042626
     117A      1.060939   118A      1.091508   119A      1.108752
     120A      1.129429   121A      1.135893   122A      1.141245
     123A      1.146220   124A      1.154935   125A      1.158259
     126A      1.178387   127A      1.218570   128A      1.223726
     129A      1.230241   130A      1.238440   131A      1.252737
     132A      1.274417   133A      1.290355   134A      1.297462
     135A      1.326622   136A      1.333050   137A      1.359194
     138A      1.368924   139A      1.387033   140A      1.422797
     141A      1.443514   142A      1.484190   143A      1.496038
     144A      1.521564   145A      1.558310   146A      1.576293
     147A      1.596428   148A      1.612516   149A      1.631008
     150A      1.640705   151A      1.652873   152A      1.684265
     153A      1.693156   154A      1.700325   155A      1.710376
     156A      1.748099   157A      1.766849   158A      1.769458
     159A      1.785736   160A      1.809865   161A      1.833394
     162A      1.841883   163A      1.870505   164A      1.880371
     165A      1.882547   166A      1.895422   167A      1.901862
     168A      1.905669   169A      1.913268   170A      1.927039
     171A      1.939173   172A      1.945797   173A      1.951990
     174A      1.960602   175A      1.965324   176A      1.971151
     177A      1.973083   178A      1.992728   179A      1.995167
     180A      2.004886   181A      2.013438   182A      2.031442
     183A      2.054410   184A      2.080271   185A      2.089095
     186A      2.092415   187A      2.102029   188A      2.108375
     189A      2.119848   190A      2.134883   191A      2.145992
     192A      2.159440   193A      2.168796   194A      2.176206
     195A      2.178094   196A      2.228495   197A      2.265945
     198A      2.285906   199A      2.306553   200A      2.310393
     201A      2.314889   202A      2.326933   203A      2.342854
     204A      2.372646   205A      2.406707   206A      2.416017
     207A      2.451840   208A      2.466346   209A      2.472013
     210A      2.487606   211A      2.552471   212A      2.573433
     213A      2.582180   214A      2.601793   215A      2.629601
     216A      2.648232   217A      2.675121   218A      2.686922
     219A      2.713917   220A      2.769252   221A      2.770839
     222A      2.781050   223A      2.787803   224A      2.798764
     225A      2.825984   226A      2.847126   227A      2.860041
     228A      2.869165   229A      2.878505   230A      2.892122
     231A      2.912966   232A      2.957607   233A      2.975415
     234A      3.007689   235A      3.054543   236A      3.066460
     237A      3.091520   238A      3.134517   239A      3.215475
     240A      3.311170   241A      3.385143   242A      3.749590
     243A      3.958801

    Final Occupation by Irrep:
              A
    DOCC [    44 ]

  @RHF Final Energy:  -479.76743829316570

   => Energetics <=

    Nuclear Repulsion Energy =            670.9909814907914551
    One-Electron Energy =               -1980.0264302172799944
    Two-Electron Energy =                 829.2680104333228428
    Total Energy =                       -479.7674382931656965

Computation Completed

Properties will be evaluated at   0.000000,   0.000000,   0.000000 [a0]

Properties computed using the SCF density matrix

  Nuclear Dipole Moment: [e a0]
     X:    -5.6184      Y:    -7.9373      Z:     7.1471

  Electronic Dipole Moment: [e a0]
     X:     6.3268      Y:     7.5709      Z:    -7.2694

  Dipole Moment: [e a0]
     X:     0.7084      Y:    -0.3664      Z:    -0.1223     Total:     0.8069

  Dipole Moment: [D]
     X:     1.8007      Y:    -0.9313      Z:    -0.3109     Total:     2.0509

*** tstop() called on ds3 at Mon Apr 27 18:42:54 2020
Module time:
	user time   =     193.66 seconds =       3.23 minutes
	system time =      67.84 seconds =       1.13 minutes
	total time  =        264 seconds =       4.40 minutes
Total time:
	user time   =     193.66 seconds =       3.23 minutes
	system time =      67.84 seconds =       1.13 minutes
	total time  =        264 seconds =       4.40 minutes
                                     G D M A

                                 by Anthony Stone

                           version 2.2.06, 22 June 2011

               Distributed Multipoles from Gaussian wavefunctions

Starting at 18:42:54 on 27 Apr 2020

Using SCF density matrix from file ./SSI/SSI-039TRP-066LEU-1-dimer.test.26909.fchk

                         Distributed Multipole Analysis

Standard DMA

Positions and radii in angstrom
Multipole moments in atomic units, ea_0^k for rank k

C          x = -0.753710  y = -1.099056  z = -2.987084 angstrom
           Maximum rank =  0   Radius =  0.650 angstrom
                   Q00  =  -0.213028

C          x =  0.979290  y =  0.454944  z = -0.072084 angstrom
           Maximum rank =  0   Radius =  0.650 angstrom
                   Q00  =   0.275064

C          x = -0.145710  y =  0.350944  z = -0.926084 angstrom
           Maximum rank =  0   Radius =  0.650 angstrom
                   Q00  =  -0.051497

C          x =  0.145290  y = -0.660056  z = -1.894084 angstrom
           Maximum rank =  0   Radius =  0.650 angstrom
                   Q00  =  -0.118739

C          x =  1.395290  y = -1.117056  z = -1.615084 angstrom
           Maximum rank =  0   Radius =  0.650 angstrom
                   Q00  =   0.071587

C          x =  1.028290  y =  1.354944  z =  0.981916 angstrom
           Maximum rank =  0   Radius =  0.650 angstrom
                   Q00  =  -0.115585

C          x = -0.074710  y =  2.159944  z =  1.197916 angstrom
           Maximum rank =  0   Radius =  0.650 angstrom
                   Q00  =  -0.039592

C          x = -1.247710  y =  1.186944  z = -0.699084 angstrom
           Maximum rank =  0   Radius =  0.650 angstrom
                   Q00  =  -0.103755

C          x = -1.206710  y =  2.081944  z =  0.366916 angstrom
           Maximum rank =  0   Radius =  0.650 angstrom
                   Q00  =  -0.097642

N          x =  1.895290  y = -0.462056  z = -0.516084 angstrom
           Maximum rank =  0   Radius =  0.650 angstrom
                   Q00  =  -0.491425

H          x =  2.823290  y = -0.637056  z = -0.132084 angstrom
           Maximum rank =  0   Radius =  0.325 angstrom
                   Q00  =   0.218533

H          x =  1.901290  y =  1.404944  z =  1.609916 angstrom
           Maximum rank =  0   Radius =  0.325 angstrom
                   Q00  =   0.070934

H          x =  1.909290  y = -1.898056  z = -2.164084 angstrom
           Maximum rank =  0   Radius =  0.325 angstrom
                   Q00  =   0.101629

H          x = -0.066710  y =  2.859944  z =  2.021916 angstrom
           Maximum rank =  0   Radius =  0.325 angstrom
                   Q00  =   0.064992

H          x = -2.116710  y =  1.122944  z = -1.336084 angstrom
           Maximum rank =  0   Radius =  0.325 angstrom
                   Q00  =   0.071132

H          x = -0.155710  y = -1.431056  z = -3.834084 angstrom
           Maximum rank =  0   Radius =  0.325 angstrom
                   Q00  =   0.103747

H          x = -1.343710  y = -0.241056  z = -3.314084 angstrom
           Maximum rank =  0   Radius =  0.325 angstrom
                   Q00  =   0.101451

H          x = -2.057710  y =  2.721944  z =  0.549916 angstrom
           Maximum rank =  0   Radius =  0.325 angstrom
                   Q00  =   0.062197

H          x = -1.434079  y = -1.906816  z = -2.679470 angstrom
           Maximum rank =  0   Radius =  0.325 angstrom
                   Q00  =   0.098285

C          x = -0.419710  y = -2.020056  z =  2.297916 angstrom
           Maximum rank =  0   Radius =  0.650 angstrom
                   Q00  =  -0.245521

C          x = -1.408710  y = -1.443056  z =  3.310916 angstrom
           Maximum rank =  0   Radius =  0.650 angstrom
                   Q00  =  -0.225202

H          x =  0.060290  y = -1.215056  z =  1.749916 angstrom
           Maximum rank =  0   Radius =  0.325 angstrom
                   Q00  =   0.093347

H          x =  0.329290  y = -2.599056  z =  2.829916 angstrom
           Maximum rank =  0   Radius =  0.325 angstrom
                   Q00  =   0.064761

H          x = -0.916710  y = -2.683056  z =  1.596916 angstrom
           Maximum rank =  0   Radius =  0.325 angstrom
                   Q00  =   0.077096

H          x = -1.776710  y = -2.261056  z =  3.926916 angstrom
           Maximum rank =  0   Radius =  0.325 angstrom
                   Q00  =   0.068553

H          x = -2.254765  y = -0.953496  z =  2.806416 angstrom
           Maximum rank =  0   Radius =  0.325 angstrom
                   Q00  =   0.084241

H          x = -0.887877  y = -0.752216  z =  3.990236 angstrom
           Maximum rank =  0   Radius =  0.325 angstrom
                   Q00  =   0.074436

Total multipoles referred to origin at
           x =   0.000000,  y =    0.000000,  z =    0.000000 angstrom
                   Q00  =  -0.000000

Finished at 18:42:54 on 27 Apr 2020

  DMA results are available in the Python driver through the
	  variable('DMA DISTRIBUTED MULTIPOLES')
  and
	  variable('DMA TOTAL MULTIPOLES')
  commands.

    Psi4 stopped on: Monday, 27 April 2020 06:42PM
    Psi4 wall time for execution: 0:04:24.03

*** Psi4 exiting successfully. Buy a developer a beer!
