                               Psi4 1.3.2 release

  ==> Input File <==

--------------------------------------------------------------------------
import numpy as np
set {scf_type pk
basis cc-pvdz
d_convergence 10
gdma_switch   0
gdma_limit    0
gdma_origin   [ 0.0,  0.0,  0.0 ]
}
molecule test {
    units Angstrom
    1 1
    --
    1 1
    C               -0.165351600096582    -2.169749831612160    -0.443748002761247
    C               -0.932351600096582    -1.824749831612159    -1.717748002761246
    C                1.966648399903418    -2.884749831612160    -1.465748002761246
    N                1.283648399903418    -2.096749831612159    -0.649748002761246
    N                1.348648399903418    -3.817749831612160    -2.164748002761247
    N                3.270648399903418    -2.743749831612160    -1.580748002761247
    H               -0.429351600096582    -1.453749831612160     0.335251997238753
    H               -0.452351600096582    -3.163749831612160    -0.092748002761247
    H               -0.801351600096582    -2.564749831612160    -2.504748002761247
    H               -0.537351600096582    -0.872749831612159    -2.073748002761246
    H                1.808648399903418    -1.430749831612159    -0.102748002761247
    H                0.370648399903418    -3.994749831612160    -2.015748002761247
    H                1.873648399903418    -4.420749831612159    -2.778748002761247
    H                3.758648399903418    -2.132749831612160    -0.922748002761247
    H                3.801648399903418    -3.342749831612160    -2.190748002761247
    H               -2.007894600096582    -1.720153031612159    -1.512158002761246
    C               -2.599351600096582     3.869250168387840    -0.564748002761246
    C               -1.398351600096582     0.847250168387841     1.437251997238754
    C               -0.149351600096582     1.288250168387841     1.871251997238754
    C               -2.192351600096582     1.695250168387841     0.649251997238753
    C               -1.751351600096582     2.981250168387840     0.307251997238753
    C                0.307648399903418     2.568250168387840     1.532251997238754
    C               -0.496351600096582     3.411250168387840     0.754251997238753
    O                0.607648399903418     0.455250168387840     2.638251997238753
    H               -1.752351600096582    -0.133749831612160     1.718251997238754
    H               -3.162351600096582     1.354250168387841     0.312251997238753
    H                1.280648399903418     2.901250168387840     1.853251997238754
    H                1.437648399903418     0.874250168387841     2.880251997238753
    H               -2.462351600096582     4.901250168387841    -0.242748002761247
    H               -3.649351600096582     3.620250168387840    -0.406748002761247
    H               -0.135351600096582     4.396250168387841     0.485251997238753
    H               -2.367144600096582     3.792086168387840    -1.637188002761246

}
e, wfn = energy('scf', return_wfn=True)
gdma(wfn)
dmavals = variable('DMA DISTRIBUTED MULTIPOLES')
charges = np.array(dmavals)
print(charges)
np.save('SSI-072ARG-118TYR-2-dimer.npy', np.array(charges))--------------------------------------------------------------------------

*** tstart() called on ds3
*** at Tue Apr 28 12:20:22 2020

   => Loading Basis Set <=

    Name: CC-PVDZ
    Role: ORBITAL
    Keyword: BASIS
    atoms 1-3, 17-23  entry C          line   138 file /theoryfs2/ds/metcalf/miniconda2/envs/tf2gpu/share/psi4/basis/cc-pvdz.gbs
    atoms 4-6         entry N          line   168 file /theoryfs2/ds/metcalf/miniconda2/envs/tf2gpu/share/psi4/basis/cc-pvdz.gbs
    atoms 7-16, 25-32 entry H          line    22 file /theoryfs2/ds/metcalf/miniconda2/envs/tf2gpu/share/psi4/basis/cc-pvdz.gbs
    atoms 24          entry O          line   198 file /theoryfs2/ds/metcalf/miniconda2/envs/tf2gpu/share/psi4/basis/cc-pvdz.gbs

         ---------------------------------------------------------
                                   SCF
               by Justin Turney, Rob Parrish, Andy Simmonett
                          and Daniel G. A. Smith
                              RHF Reference
                        1 Threads,    500 MiB Core
         ---------------------------------------------------------

  ==> Geometry <==

    Molecular point group: c1
    Full point group: C1

    Geometry (in Angstrom), charge = 1, multiplicity = 1:

       Center              X                  Y                   Z               Mass
    ------------   -----------------  -----------------  -----------------  -----------------
         C           -0.165351600097    -2.169749831612    -0.443748002761    12.000000000000
         C           -0.932351600097    -1.824749831612    -1.717748002761    12.000000000000
         C            1.966648399903    -2.884749831612    -1.465748002761    12.000000000000
         N            1.283648399903    -2.096749831612    -0.649748002761    14.003074004430
         N            1.348648399903    -3.817749831612    -2.164748002761    14.003074004430
         N            3.270648399903    -2.743749831612    -1.580748002761    14.003074004430
         H           -0.429351600097    -1.453749831612     0.335251997239     1.007825032230
         H           -0.452351600097    -3.163749831612    -0.092748002761     1.007825032230
         H           -0.801351600097    -2.564749831612    -2.504748002761     1.007825032230
         H           -0.537351600097    -0.872749831612    -2.073748002761     1.007825032230
         H            1.808648399903    -1.430749831612    -0.102748002761     1.007825032230
         H            0.370648399903    -3.994749831612    -2.015748002761     1.007825032230
         H            1.873648399903    -4.420749831612    -2.778748002761     1.007825032230
         H            3.758648399903    -2.132749831612    -0.922748002761     1.007825032230
         H            3.801648399903    -3.342749831612    -2.190748002761     1.007825032230
         H           -2.007894600097    -1.720153031612    -1.512158002761     1.007825032230
         C           -2.599351600097     3.869250168388    -0.564748002761    12.000000000000
         C           -1.398351600097     0.847250168388     1.437251997239    12.000000000000
         C           -0.149351600097     1.288250168388     1.871251997239    12.000000000000
         C           -2.192351600097     1.695250168388     0.649251997239    12.000000000000
         C           -1.751351600097     2.981250168388     0.307251997239    12.000000000000
         C            0.307648399903     2.568250168388     1.532251997239    12.000000000000
         C           -0.496351600097     3.411250168388     0.754251997239    12.000000000000
         O            0.607648399903     0.455250168388     2.638251997239    15.994914619570
         H           -1.752351600097    -0.133749831612     1.718251997239     1.007825032230
         H           -3.162351600097     1.354250168388     0.312251997239     1.007825032230
         H            1.280648399903     2.901250168388     1.853251997239     1.007825032230
         H            1.437648399903     0.874250168388     2.880251997239     1.007825032230
         H           -2.462351600097     4.901250168388    -0.242748002761     1.007825032230
         H           -3.649351600097     3.620250168388    -0.406748002761     1.007825032230
         H           -0.135351600097     4.396250168388     0.485251997239     1.007825032230
         H           -2.367144600097     3.792086168388    -1.637188002761     1.007825032230

  Running in c1 symmetry.

  Rotational constants: A =      0.03446  B =      0.00865  C =      0.00789 [cm^-1]
  Rotational constants: A =   1033.23226  B =    259.37122  C =    236.41302 [MHz]
  Nuclear repulsion =  861.043803781400584

  Charge       = 1
  Multiplicity = 1
  Electrons    = 106
  Nalpha       = 53
  Nbeta        = 53

  ==> Algorithm <==

  SCF Algorithm Type is PK.
  DIIS enabled.
  MOM disabled.
  Fractional occupation disabled.
  Guess Type is SAD.
  Energy threshold   = 1.00e-06
  Density threshold  = 1.00e-10
  Integral threshold = 0.00e+00

  ==> Primary Basis <==

  Basis Set: CC-PVDZ
    Blend: CC-PVDZ
    Number of shells: 138
    Number of basis function: 286
    Number of Cartesian functions: 300
    Spherical Harmonics?: true
    Max angular momentum: 2

  ==> Pre-Iterations <==

   -------------------------------------------------------
    Irrep   Nso     Nmo     Nalpha   Nbeta   Ndocc  Nsocc
   -------------------------------------------------------
     A        286     286       0       0       0       0
   -------------------------------------------------------
    Total     286     286      53      53      53       0
   -------------------------------------------------------

  ==> Integral Setup <==

  Using integral reordering PK algorithm.
  Sizing the integral batches needed.
  Building batch lookup table.
   Calculation information:
      Number of atoms:                  32
      Number of AO shells:             138
      Number of primitives:            398
      Number of atomic orbitals:       300
      Number of basis functions:       286

      Integral cutoff                 1.00e-12
      Number of threads:                 1

	Batch   1 pq = [       0,    9405] index = [             0,44231715] size =     44231715
	Batch   2 pq = [    9405,   13301] index = [      44231715,88464951] size =     44233236
	Batch   3 pq = [   13301,   16290] index = [      88464951,132690195] size =     44225244
	Batch   4 pq = [   16290,   18810] index = [     132690195,176917455] size =     44227260
	Batch   5 pq = [   18810,   21030] index = [     176917455,221140965] size =     44223510
	Batch   6 pq = [   21030,   23037] index = [     221140965,265363203] size =     44222238
	Batch   7 pq = [   23037,   24883] index = [     265363203,309594286] size =     44231083
	Batch   8 pq = [   24883,   26601] index = [     309594286,353819901] size =     44225615
	Batch   9 pq = [   26601,   28214] index = [     353819901,398029005] size =     44209104
	Batch  10 pq = [   28214,   29740] index = [     398029005,442248670] size =     44219665
	Batch  11 pq = [   29740,   31191] index = [     442248670,486454836] size =     44206166
	Batch  12 pq = [   31191,   32578] index = [     486454836,530679331] size =     44224495
	Batch  13 pq = [   32578,   33908] index = [     530679331,574893186] size =     44213855
	Batch  14 pq = [   33908,   35188] index = [     574893186,619115266] size =     44222080
	Batch  15 pq = [   35188,   36423] index = [     619115266,663335676] size =     44220410
	Batch  16 pq = [   36423,   37617] index = [     663335676,707538153] size =     44202477
	Batch  17 pq = [   37617,   38775] index = [     707538153,751769700] size =     44231547
	Batch  18 pq = [   38775,   39899] index = [     751769700,795985050] size =     44215350
	Batch  19 pq = [   39899,   41041] index = [     795985050,842202361] size =     46217311
  Task number: 77
  Buffer size: 11059200
  Buffer per thread: 2
  We computed 38965491 shell quartets total.
  Whereas there are 45998436 unique shell quartets.

  ==> DiskJK: Disk-Based J/K Matrices <==

    J tasked:                  Yes
    K tasked:                  Yes
    wK tasked:                  No
    Memory [MiB]:              375
    Schwarz Cutoff:          1E-12

    OpenMP threads:              1

  Minimum eigenvalue in the overlap matrix is 3.3466384941E-04.
  Using Symmetric Orthogonalization.

  SCF Guess: Superposition of Atomic Densities via on-the-fly atomic UHF.

  ==> Iterations <==

                        Total Energy        Delta E     RMS |[F,P]|

   @RHF iter SAD:  -626.44244731803315   -6.26442e+02   0.00000e+00
   @RHF iter   1:  -626.92153623697857   -4.79089e-01   2.54680e-03 DIIS
   @RHF iter   2:  -627.20360961077904   -2.82073e-01   1.02721e-03 DIIS
   @RHF iter   3:  -627.24524574196198   -4.16361e-02   2.59538e-04 DIIS
   @RHF iter   4:  -627.24924504883597   -3.99931e-03   9.64666e-05 DIIS
   @RHF iter   5:  -627.24969354643827   -4.48498e-04   1.97681e-05 DIIS
   @RHF iter   6:  -627.24972367121177   -3.01248e-05   6.70670e-06 DIIS
   @RHF iter   7:  -627.24972671382363   -3.04261e-06   1.90199e-06 DIIS
   @RHF iter   8:  -627.24972710320537   -3.89382e-07   6.74548e-07 DIIS
   @RHF iter   9:  -627.24972714722333   -4.40180e-08   2.68780e-07 DIIS
   @RHF iter  10:  -627.24972715614649   -8.92317e-09   1.22273e-07 DIIS
   @RHF iter  11:  -627.24972715929266   -3.14617e-09   5.54037e-08 DIIS
   @RHF iter  12:  -627.24972716003231   -7.39647e-10   2.37624e-08 DIIS
   @RHF iter  13:  -627.24972716012871   -9.64064e-11   8.34774e-09 DIIS
   @RHF iter  14:  -627.24972716014304   -1.43245e-11   2.49084e-09 DIIS
   @RHF iter  15:  -627.24972716014258    4.54747e-13   8.18355e-10 DIIS
   @RHF iter  16:  -627.24972716014338   -7.95808e-13   3.05410e-10 DIIS
   @RHF iter  17:  -627.24972716014122    2.16005e-12   1.17531e-10 DIIS
   @RHF iter  18:  -627.24972716014281   -1.59162e-12   3.86952e-11 DIIS
  Energy and wave function converged.

  ==> Post-Iterations <==

    Orbital Energies [Eh]
    ---------------------

    Doubly Occupied:

       1A    -20.679668     2A    -15.782328     3A    -15.780261
       4A    -15.772612     5A    -11.580336     6A    -11.424048
       7A    -11.390640     8A    -11.362021     9A    -11.326936
      10A    -11.325582    11A    -11.322267    12A    -11.322040
      13A    -11.318433    14A    -11.300606    15A     -1.539094
      16A     -1.496949    17A     -1.394913    18A     -1.385590
      19A     -1.232979    20A     -1.177921    21A     -1.119881
      22A     -1.102644    23A     -1.055662    24A     -1.005782
      25A     -1.004018    26A     -0.968057    27A     -0.931913
      28A     -0.925348    29A     -0.887699    30A     -0.851671
      31A     -0.850560    32A     -0.820468    33A     -0.815993
      34A     -0.788957    35A     -0.756465    36A     -0.754056
      37A     -0.728109    38A     -0.691246    39A     -0.690630
      40A     -0.680217    41A     -0.673952    42A     -0.663646
      43A     -0.657231    44A     -0.646780    45A     -0.645826
      46A     -0.608733    47A     -0.604859    48A     -0.579105
      49A     -0.571326    50A     -0.570272    51A     -0.551673
      52A     -0.424453    53A     -0.388327

    Virtual:

      54A     -0.003937    55A      0.025831    56A      0.034654
      57A      0.039220    58A      0.047917    59A      0.064251
      60A      0.067592    61A      0.089764    62A      0.094629
      63A      0.106358    64A      0.113933    65A      0.124511
      66A      0.144239    67A      0.146805    68A      0.153656
      69A      0.171748    70A      0.179928    71A      0.186213
      72A      0.203335    73A      0.219519    74A      0.228069
      75A      0.233782    76A      0.235839    77A      0.287832
      78A      0.291223    79A      0.298630    80A      0.337641
      81A      0.350644    82A      0.362307    83A      0.372393
      84A      0.393023    85A      0.410139    86A      0.419543
      87A      0.443147    88A      0.466442    89A      0.480051
      90A      0.496442    91A      0.527886    92A      0.532395
      93A      0.539539    94A      0.550823    95A      0.553760
      96A      0.558274    97A      0.564384    98A      0.571316
      99A      0.589202   100A      0.596080   101A      0.608644
     102A      0.618338   103A      0.621320   104A      0.648060
     105A      0.650804   106A      0.676569   107A      0.678935
     108A      0.684370   109A      0.692598   110A      0.696597
     111A      0.701448   112A      0.725273   113A      0.732544
     114A      0.737595   115A      0.747159   116A      0.750971
     117A      0.761505   118A      0.766567   119A      0.776846
     120A      0.781563   121A      0.797931   122A      0.803475
     123A      0.809295   124A      0.813476   125A      0.815046
     126A      0.823603   127A      0.842893   128A      0.851156
     129A      0.855332   130A      0.857528   131A      0.866040
     132A      0.873225   133A      0.885827   134A      0.914721
     135A      0.923475   136A      0.926619   137A      0.939716
     138A      0.948765   139A      0.963915   140A      0.979474
     141A      0.999692   142A      1.034565   143A      1.054417
     144A      1.061541   145A      1.072902   146A      1.079393
     147A      1.111317   148A      1.116709   149A      1.135340
     150A      1.150308   151A      1.157298   152A      1.177391
     153A      1.182483   154A      1.188621   155A      1.204517
     156A      1.206556   157A      1.217394   158A      1.223356
     159A      1.229219   160A      1.235957   161A      1.271438
     162A      1.281700   163A      1.294077   164A      1.296098
     165A      1.319989   166A      1.359851   167A      1.395008
     168A      1.410924   169A      1.418013   170A      1.440346
     171A      1.467874   172A      1.475418   173A      1.490580
     174A      1.527305   175A      1.532299   176A      1.537273
     177A      1.546060   178A      1.579152   179A      1.604832
     180A      1.627242   181A      1.631856   182A      1.639350
     183A      1.651627   184A      1.660216   185A      1.677945
     186A      1.689105   187A      1.700392   188A      1.706815
     189A      1.717287   190A      1.721592   191A      1.730124
     192A      1.737518   193A      1.758599   194A      1.777117
     195A      1.788031   196A      1.800292   197A      1.803748
     198A      1.811953   199A      1.817943   200A      1.824927
     201A      1.832224   202A      1.839051   203A      1.841445
     204A      1.848084   205A      1.853516   206A      1.859131
     207A      1.876632   208A      1.890730   209A      1.892004
     210A      1.924251   211A      1.941986   212A      1.947396
     213A      1.959450   214A      1.962174   215A      1.966828
     216A      1.973970   217A      1.977759   218A      2.018162
     219A      2.041445   220A      2.056429   221A      2.061060
     222A      2.071650   223A      2.088475   224A      2.100342
     225A      2.116940   226A      2.139887   227A      2.152147
     228A      2.154971   229A      2.172509   230A      2.192917
     231A      2.216502   232A      2.219965   233A      2.234841
     234A      2.263150   235A      2.265018   236A      2.277849
     237A      2.286383   238A      2.334618   239A      2.343412
     240A      2.347903   241A      2.366274   242A      2.383115
     243A      2.388177   244A      2.396964   245A      2.406370
     246A      2.427878   247A      2.451186   248A      2.455778
     249A      2.472234   250A      2.491811   251A      2.518780
     252A      2.544711   253A      2.561549   254A      2.628982
     255A      2.651169   256A      2.662330   257A      2.663833
     258A      2.692272   259A      2.696384   260A      2.703749
     261A      2.715414   262A      2.765610   263A      2.769734
     264A      2.789485   265A      2.807957   266A      2.822623
     267A      2.828542   268A      2.849309   269A      2.868619
     270A      2.910873   271A      2.938127   272A      2.941193
     273A      2.991833   274A      3.016880   275A      3.076080
     276A      3.101094   277A      3.156452   278A      3.161630
     279A      3.180808   280A      3.248166   281A      3.481436
     282A      3.584492   283A      3.591081   284A      3.662552
     285A      3.852341   286A      4.101327

    Final Occupation by Irrep:
              A
    DOCC [    53 ]

  @RHF Final Energy:  -627.24972716014281

   => Energetics <=

    Nuclear Repulsion Energy =            861.0438037814005838
    One-Electron Energy =               -2546.7254930888634590
    Two-Electron Energy =                1058.4319621473200641
    Total Energy =                       -627.2497271601428110

Computation Completed

Properties will be evaluated at   0.000000,   0.000000,   0.000000 [a0]

Properties computed using the SCF density matrix

  Nuclear Dipole Moment: [e a0]
     X:    -3.2257      Y:    -3.1517      Z:    -8.3146

  Electronic Dipole Moment: [e a0]
     X:     6.6196      Y:    -1.1955      Z:     5.7375

  Dipole Moment: [e a0]
     X:     3.3939      Y:    -4.3472      Z:    -2.5771     Total:     6.0876

  Dipole Moment: [D]
     X:     8.6266      Y:   -11.0496      Z:    -6.5504     Total:    15.4731

*** tstop() called on ds3 at Tue Apr 28 12:38:00 2020
Module time:
	user time   =     324.00 seconds =       5.40 minutes
	system time =     146.93 seconds =       2.45 minutes
	total time  =       1058 seconds =      17.63 minutes
Total time:
	user time   =     324.00 seconds =       5.40 minutes
	system time =     146.93 seconds =       2.45 minutes
	total time  =       1058 seconds =      17.63 minutes
                                     G D M A

                                 by Anthony Stone

                           version 2.2.06, 22 June 2011

               Distributed Multipoles from Gaussian wavefunctions

Starting at 12:38:0 on 28 Apr 2020

Using SCF density matrix from file ./SSI/SSI-072ARG-118TYR-2-dimer.test.14715.fchk

                         Distributed Multipole Analysis

Standard DMA

Positions and radii in angstrom
Multipole moments in atomic units, ea_0^k for rank k

C          x = -0.165352  y = -2.169750  z = -0.443748 angstrom
           Maximum rank =  0   Radius =  0.650 angstrom
                   Q00  =   0.001430

C          x = -0.932352  y = -1.824750  z = -1.717748 angstrom
           Maximum rank =  0   Radius =  0.650 angstrom
                   Q00  =  -0.242338

C          x =  1.966648  y = -2.884750  z = -1.465748 angstrom
           Maximum rank =  0   Radius =  0.650 angstrom
                   Q00  =   1.080617

N          x =  1.283648  y = -2.096750  z = -0.649748 angstrom
           Maximum rank =  0   Radius =  0.650 angstrom
                   Q00  =  -0.503415

N          x =  1.348648  y = -3.817750  z = -2.164748 angstrom
           Maximum rank =  0   Radius =  0.650 angstrom
                   Q00  =  -0.579644

N          x =  3.270648  y = -2.743750  z = -1.580748 angstrom
           Maximum rank =  0   Radius =  0.650 angstrom
                   Q00  =  -0.598555

H          x = -0.429352  y = -1.453750  z =  0.335252 angstrom
           Maximum rank =  0   Radius =  0.325 angstrom
                   Q00  =   0.160283

H          x = -0.452352  y = -3.163750  z = -0.092748 angstrom
           Maximum rank =  0   Radius =  0.325 angstrom
                   Q00  =   0.069888

H          x = -0.801352  y = -2.564750  z = -2.504748 angstrom
           Maximum rank =  0   Radius =  0.325 angstrom
                   Q00  =   0.072445

H          x = -0.537352  y = -0.872750  z = -2.073748 angstrom
           Maximum rank =  0   Radius =  0.325 angstrom
                   Q00  =   0.110239

H          x =  1.808648  y = -1.430750  z = -0.102748 angstrom
           Maximum rank =  0   Radius =  0.325 angstrom
                   Q00  =   0.232882

H          x =  0.370648  y = -3.994750  z = -2.015748 angstrom
           Maximum rank =  0   Radius =  0.325 angstrom
                   Q00  =   0.274737

H          x =  1.873648  y = -4.420750  z = -2.778748 angstrom
           Maximum rank =  0   Radius =  0.325 angstrom
                   Q00  =   0.262612

H          x =  3.758648  y = -2.132750  z = -0.922748 angstrom
           Maximum rank =  0   Radius =  0.325 angstrom
                   Q00  =   0.266573

H          x =  3.801648  y = -3.342750  z = -2.190748 angstrom
           Maximum rank =  0   Radius =  0.325 angstrom
                   Q00  =   0.264769

H          x = -2.007895  y = -1.720153  z = -1.512158 angstrom
           Maximum rank =  0   Radius =  0.325 angstrom
                   Q00  =   0.129704

C          x = -2.599352  y =  3.869250  z = -0.564748 angstrom
           Maximum rank =  0   Radius =  0.650 angstrom
                   Q00  =  -0.189558

C          x = -1.398352  y =  0.847250  z =  1.437252 angstrom
           Maximum rank =  0   Radius =  0.650 angstrom
                   Q00  =  -0.154450

C          x = -0.149352  y =  1.288250  z =  1.871252 angstrom
           Maximum rank =  0   Radius =  0.650 angstrom
                   Q00  =   0.297695

C          x = -2.192352  y =  1.695250  z =  0.649252 angstrom
           Maximum rank =  0   Radius =  0.650 angstrom
                   Q00  =   0.039751

C          x = -1.751352  y =  2.981250  z =  0.307252 angstrom
           Maximum rank =  0   Radius =  0.650 angstrom
                   Q00  =  -0.130480

C          x =  0.307648  y =  2.568250  z =  1.532252 angstrom
           Maximum rank =  0   Radius =  0.650 angstrom
                   Q00  =  -0.177845

C          x = -0.496352  y =  3.411250  z =  0.754252 angstrom
           Maximum rank =  0   Radius =  0.650 angstrom
                   Q00  =  -0.056298

O          x =  0.607648  y =  0.455250  z =  2.638252 angstrom
           Maximum rank =  0   Radius =  0.650 angstrom
                   Q00  =  -0.674571

H          x = -1.752352  y = -0.133750  z =  1.718252 angstrom
           Maximum rank =  0   Radius =  0.325 angstrom
                   Q00  =   0.078209

H          x = -3.162352  y =  1.354250  z =  0.312252 angstrom
           Maximum rank =  0   Radius =  0.325 angstrom
                   Q00  =   0.074625

H          x =  1.280648  y =  2.901250  z =  1.853252 angstrom
           Maximum rank =  0   Radius =  0.325 angstrom
                   Q00  =   0.080505

H          x =  1.437648  y =  0.874250  z =  2.880252 angstrom
           Maximum rank =  0   Radius =  0.325 angstrom
                   Q00  =   0.410716

H          x = -2.462352  y =  4.901250  z = -0.242748 angstrom
           Maximum rank =  0   Radius =  0.325 angstrom
                   Q00  =   0.107659

H          x = -3.649352  y =  3.620250  z = -0.406748 angstrom
           Maximum rank =  0   Radius =  0.325 angstrom
                   Q00  =   0.103928

H          x = -0.135352  y =  4.396250  z =  0.485252 angstrom
           Maximum rank =  0   Radius =  0.325 angstrom
                   Q00  =   0.085403

H          x = -2.367145  y =  3.792086  z = -1.637188 angstrom
           Maximum rank =  0   Radius =  0.325 angstrom
                   Q00  =   0.102487

Total multipoles referred to origin at
           x =   0.000000,  y =    0.000000,  z =    0.000000 angstrom
                   Q00  =   1.000000

Finished at 12:38:0 on 28 Apr 2020

  DMA results are available in the Python driver through the
	  variable('DMA DISTRIBUTED MULTIPOLES')
  and
	  variable('DMA TOTAL MULTIPOLES')
  commands.

    Psi4 stopped on: Tuesday, 28 April 2020 12:38PM
    Psi4 wall time for execution: 0:17:38.46

*** Psi4 exiting successfully. Buy a developer a beer!
