                               Psi4 1.3.2 release

  ==> Input File <==

--------------------------------------------------------------------------
import numpy as np
set {scf_type pk
basis cc-pvdz
d_convergence 10
gdma_switch   0
gdma_limit    0
gdma_origin   [ 0.0,  0.0,  0.0 ]
}
molecule test {
    units Angstrom
    0 1
    --
    0 1
    C                0.459197859258557    -0.453785764869764    -3.044253213015935
    C               -1.181802140741443    -0.594785764869764     0.471746786984064
    C               -0.985802140741443    -0.341785764869764    -0.912253213015936
    C               -0.193802140741443    -1.288785764869764     1.198746786984064
    C                0.176197859258557    -0.774785764869764    -1.569253213015936
    C                0.965197859258557    -1.723785764869763     0.548746786984064
    C                1.138197859258557    -1.469785764869764    -0.825253213015936
    H               -2.080802140741443    -0.256785764869764     0.976746786984064
    H               -1.733802140741443     0.195214235130236    -1.480253213015936
    H               -0.323802140741443    -1.486785764869764     2.254746786984064
    H                1.727197859258557    -2.249785764869764     1.103746786984064
    H                1.276197859258557    -1.102785764869764    -3.366253213015936
    H                0.806197859258557     0.581214235130236    -3.084253213015936
    H                2.032197859258557    -1.813785764869764    -1.329253213015936
    H               -0.379272140741443    -0.623285764869764    -3.735793213015936
    C                0.300197859258557     2.304214235130237     2.076746786984065
    C               -0.693802140741443     3.458214235130237     1.803746786984064
    H                1.186197859258557     2.687214235130237     2.587746786984065
    H               -0.171802140741443     1.547214235130236     2.702746786984064
    H                0.604197859258557     1.848214235130236     1.131746786984064
    H               -0.967802140741443     3.927214235130236     2.748746786984064
    H               -0.181302140741443     4.201614235130235     1.175456786984064
    H               -1.600482140741443     3.083714235130237     1.306056786984064

}
e, wfn = energy('scf', return_wfn=True)
gdma(wfn)
dmavals = variable('DMA DISTRIBUTED MULTIPOLES')
charges = np.array(dmavals)
print(charges)
np.save('SSI-110PHE-226LEU-2-dimer.npy', np.array(charges))--------------------------------------------------------------------------

*** tstart() called on ds3
*** at Tue Apr 28 14:22:11 2020

   => Loading Basis Set <=

    Name: CC-PVDZ
    Role: ORBITAL
    Keyword: BASIS
    atoms 1-7, 16-17  entry C          line   138 file /theoryfs2/ds/metcalf/miniconda2/envs/tf2gpu/share/psi4/basis/cc-pvdz.gbs
    atoms 8-15, 18-23 entry H          line    22 file /theoryfs2/ds/metcalf/miniconda2/envs/tf2gpu/share/psi4/basis/cc-pvdz.gbs

         ---------------------------------------------------------
                                   SCF
               by Justin Turney, Rob Parrish, Andy Simmonett
                          and Daniel G. A. Smith
                              RHF Reference
                        1 Threads,    500 MiB Core
         ---------------------------------------------------------

  ==> Geometry <==

    Molecular point group: c1
    Full point group: C1

    Geometry (in Angstrom), charge = 0, multiplicity = 1:

       Center              X                  Y                   Z               Mass
    ------------   -----------------  -----------------  -----------------  -----------------
         C            0.459197859259    -0.453785764870    -3.044253213016    12.000000000000
         C           -1.181802140741    -0.594785764870     0.471746786984    12.000000000000
         C           -0.985802140741    -0.341785764870    -0.912253213016    12.000000000000
         C           -0.193802140741    -1.288785764870     1.198746786984    12.000000000000
         C            0.176197859259    -0.774785764870    -1.569253213016    12.000000000000
         C            0.965197859259    -1.723785764870     0.548746786984    12.000000000000
         C            1.138197859259    -1.469785764870    -0.825253213016    12.000000000000
         H           -2.080802140741    -0.256785764870     0.976746786984     1.007825032230
         H           -1.733802140741     0.195214235130    -1.480253213016     1.007825032230
         H           -0.323802140741    -1.486785764870     2.254746786984     1.007825032230
         H            1.727197859259    -2.249785764870     1.103746786984     1.007825032230
         H            1.276197859259    -1.102785764870    -3.366253213016     1.007825032230
         H            0.806197859259     0.581214235130    -3.084253213016     1.007825032230
         H            2.032197859259    -1.813785764870    -1.329253213016     1.007825032230
         H           -0.379272140741    -0.623285764870    -3.735793213016     1.007825032230
         C            0.300197859259     2.304214235130     2.076746786984    12.000000000000
         C           -0.693802140741     3.458214235130     1.803746786984    12.000000000000
         H            1.186197859259     2.687214235130     2.587746786984     1.007825032230
         H           -0.171802140741     1.547214235130     2.702746786984     1.007825032230
         H            0.604197859259     1.848214235130     1.131746786984     1.007825032230
         H           -0.967802140741     3.927214235130     2.748746786984     1.007825032230
         H           -0.181302140741     4.201614235130     1.175456786984     1.007825032230
         H           -1.600482140741     3.083714235130     1.306056786984     1.007825032230

  Running in c1 symmetry.

  Rotational constants: A =      0.06655  B =      0.02685  C =      0.02304 [cm^-1]
  Rotational constants: A =   1995.09942  B =    804.89618  C =    690.76859 [MHz]
  Nuclear repulsion =  407.778252179200592

  Charge       = 0
  Multiplicity = 1
  Electrons    = 68
  Nalpha       = 34
  Nbeta        = 34

  ==> Algorithm <==

  SCF Algorithm Type is PK.
  DIIS enabled.
  MOM disabled.
  Fractional occupation disabled.
  Guess Type is SAD.
  Energy threshold   = 1.00e-06
  Density threshold  = 1.00e-10
  Integral threshold = 0.00e+00

  ==> Primary Basis <==

  Basis Set: CC-PVDZ
    Blend: CC-PVDZ
    Number of shells: 96
    Number of basis function: 196
    Number of Cartesian functions: 205
    Spherical Harmonics?: true
    Max angular momentum: 2

  ==> Pre-Iterations <==

   -------------------------------------------------------
    Irrep   Nso     Nmo     Nalpha   Nbeta   Ndocc  Nsocc
   -------------------------------------------------------
     A        196     196       0       0       0       0
   -------------------------------------------------------
    Total     196     196      34      34      34       0
   -------------------------------------------------------

  ==> Integral Setup <==

  Using integral reordering PK algorithm.
  Sizing the integral batches needed.
  Building batch lookup table.
   Calculation information:
      Number of atoms:                  23
      Number of AO shells:              96
      Number of primitives:            268
      Number of atomic orbitals:       205
      Number of basis functions:       196

      Integral cutoff                 1.00e-12
      Number of threads:                 1

	Batch   1 pq = [       0,    9405] index = [             0,44231715] size =     44231715
	Batch   2 pq = [    9405,   13301] index = [      44231715,88464951] size =     44233236
	Batch   3 pq = [   13301,   16290] index = [      88464951,132690195] size =     44225244
	Batch   4 pq = [   16290,   18810] index = [     132690195,176917455] size =     44227260
	Batch   5 pq = [   18810,   19306] index = [     176917455,186370471] size =      9453016
  Task number: 17
  Buffer size: 11059200
  Buffer per thread: 2
  We computed 9830409 shell quartets total.
  Whereas there are 10841496 unique shell quartets.

  ==> DiskJK: Disk-Based J/K Matrices <==

    J tasked:                  Yes
    K tasked:                  Yes
    wK tasked:                  No
    Memory [MiB]:              375
    Schwarz Cutoff:          1E-12

    OpenMP threads:              1

  Minimum eigenvalue in the overlap matrix is 3.3636691122E-04.
  Using Symmetric Orthogonalization.

  SCF Guess: Superposition of Atomic Densities via on-the-fly atomic UHF.

  ==> Iterations <==

                        Total Energy        Delta E     RMS |[F,P]|

   @RHF iter SAD:  -347.62436783625589   -3.47624e+02   0.00000e+00
   @RHF iter   1:  -348.77275812812832   -1.14839e+00   2.82486e-03 DIIS
   @RHF iter   2:  -348.95881716030294   -1.86059e-01   1.15473e-03 DIIS
   @RHF iter   3:  -348.98696023810464   -2.81431e-02   2.52903e-04 DIIS
   @RHF iter   4:  -348.98936058128766   -2.40034e-03   4.83706e-05 DIIS
   @RHF iter   5:  -348.98942380024687   -6.32190e-05   1.71327e-05 DIIS
   @RHF iter   6:  -348.98943098702671   -7.18678e-06   4.63750e-06 DIIS
   @RHF iter   7:  -348.98943159690964   -6.09883e-07   1.25017e-06 DIIS
   @RHF iter   8:  -348.98943165240269   -5.54930e-08   3.25167e-07 DIIS
   @RHF iter   9:  -348.98943166069319   -8.29050e-09   1.46465e-07 DIIS
   @RHF iter  10:  -348.98943166273187   -2.03869e-09   7.01221e-08 DIIS
   @RHF iter  11:  -348.98943166343372   -7.01846e-10   2.54839e-08 DIIS
   @RHF iter  12:  -348.98943166351671   -8.29914e-11   9.93439e-09 DIIS
   @RHF iter  13:  -348.98943166352262   -5.91172e-12   3.80838e-09 DIIS
   @RHF iter  14:  -348.98943166352404   -1.42109e-12   1.08471e-09 DIIS
   @RHF iter  15:  -348.98943166352331    7.38964e-13   5.05951e-10 DIIS
   @RHF iter  16:  -348.98943166352427   -9.66338e-13   2.32726e-10 DIIS
   @RHF iter  17:  -348.98943166352456   -2.84217e-13   8.83778e-11 DIIS
  Energy and wave function converged.

  ==> Post-Iterations <==

    Orbital Energies [Eh]
    ---------------------

    Doubly Occupied:

       1A    -11.246029     2A    -11.242629     3A    -11.238733
       4A    -11.236667     5A    -11.235504     6A    -11.234541
       7A    -11.234035     8A    -11.215558     9A    -11.209448
      10A     -1.143962    11A     -1.039103    12A     -1.006996
      13A     -1.003987    14A     -0.930073    15A     -0.830121
      16A     -0.824165    17A     -0.792053    18A     -0.687551
      19A     -0.632080    20A     -0.624379    21A     -0.590799
      22A     -0.588905    23A     -0.579216    24A     -0.577962
      25A     -0.561173    26A     -0.533742    27A     -0.490609
      28A     -0.486898    29A     -0.484531    30A     -0.480348
      31A     -0.479447    32A     -0.474067    33A     -0.327653
      34A     -0.322228

    Virtual:

      35A      0.131263    36A      0.138319    37A      0.172641
      38A      0.193425    39A      0.203745    40A      0.218971
      41A      0.229326    42A      0.245895    43A      0.254336
      44A      0.257067    45A      0.270100    46A      0.271192
      47A      0.285161    48A      0.290701    49A      0.307342
      50A      0.310047    51A      0.357469    52A      0.369648
      53A      0.394848    54A      0.445388    55A      0.457023
      56A      0.470471    57A      0.490982    58A      0.563351
      59A      0.577521    60A      0.601990    61A      0.604796
      62A      0.609500    63A      0.633906    64A      0.654738
      65A      0.667521    66A      0.682129    67A      0.688733
      68A      0.707234    69A      0.730395    70A      0.733994
      71A      0.742373    72A      0.746464    73A      0.748651
      74A      0.772946    75A      0.782495    76A      0.821755
      77A      0.846096    78A      0.853428    79A      0.859822
      80A      0.863735    81A      0.878899    82A      0.886233
      83A      0.889547    84A      0.891205    85A      0.900406
      86A      0.903670    87A      0.915602    88A      0.918668
      89A      0.928417    90A      0.942166    91A      0.952766
      92A      0.958927    93A      0.983873    94A      0.991224
      95A      1.018111    96A      1.063351    97A      1.110618
      98A      1.122238    99A      1.130571   100A      1.139771
     101A      1.151784   102A      1.160399   103A      1.188485
     104A      1.219163   105A      1.228873   106A      1.244559
     107A      1.249321   108A      1.261099   109A      1.288480
     110A      1.297280   111A      1.309937   112A      1.318623
     113A      1.410842   114A      1.481811   115A      1.487234
     116A      1.494947   117A      1.520065   118A      1.546041
     119A      1.578584   120A      1.598903   121A      1.661523
     122A      1.681822   123A      1.692750   124A      1.702608
     125A      1.735191   126A      1.740592   127A      1.763100
     128A      1.785815   129A      1.811063   130A      1.852010
     131A      1.865311   132A      1.871700   133A      1.875153
     134A      1.884935   135A      1.895202   136A      1.900196
     137A      1.919699   138A      1.922506   139A      1.927077
     140A      1.941040   141A      1.950368   142A      1.951158
     143A      1.959999   144A      1.965593   145A      1.967360
     146A      1.967947   147A      1.990627   148A      1.992428
     149A      2.022052   150A      2.060556   151A      2.072783
     152A      2.098781   153A      2.104346   154A      2.119961
     155A      2.129830   156A      2.138847   157A      2.150711
     158A      2.160916   159A      2.171603   160A      2.251853
     161A      2.257368   162A      2.279458   163A      2.286893
     164A      2.291073   165A      2.311372   166A      2.325148
     167A      2.325996   168A      2.430738   169A      2.454169
     170A      2.464051   171A      2.472741   172A      2.481869
     173A      2.517257   174A      2.564051   175A      2.578254
     176A      2.615753   177A      2.718749   178A      2.736299
     179A      2.759041   180A      2.769554   181A      2.771446
     182A      2.797556   183A      2.800730   184A      2.828923
     185A      2.843628   186A      2.844865   187A      2.857497
     188A      2.943867   189A      2.960044   190A      2.966725
     191A      2.981630   192A      3.016874   193A      3.127877
     194A      3.158817   195A      3.269233   196A      3.905561

    Final Occupation by Irrep:
              A
    DOCC [    34 ]

  @RHF Final Energy:  -348.98943166352456

   => Energetics <=

    Nuclear Repulsion Energy =            407.7782521792005923
    One-Electron Energy =               -1278.3649865973234228
    Two-Electron Energy =                 521.5973027545983314
    Total Energy =                       -348.9894316635245559

Computation Completed

Properties will be evaluated at   0.000000,   0.000000,   0.000000 [a0]

Properties computed using the SCF density matrix

  Nuclear Dipole Moment: [e a0]
     X:     0.1810      Y:     9.8794      Z:     2.8048

  Electronic Dipole Moment: [e a0]
     X:    -0.1157      Y:    -9.8946      Z:    -2.9579

  Dipole Moment: [e a0]
     X:     0.0654      Y:    -0.0152      Z:    -0.1530     Total:     0.1671

  Dipole Moment: [D]
     X:     0.1662      Y:    -0.0386      Z:    -0.3889     Total:     0.4247

*** tstop() called on ds3 at Tue Apr 28 14:23:48 2020
Module time:
	user time   =      70.88 seconds =       1.18 minutes
	system time =      30.24 seconds =       0.50 minutes
	total time  =         97 seconds =       1.62 minutes
Total time:
	user time   =      70.88 seconds =       1.18 minutes
	system time =      30.24 seconds =       0.50 minutes
	total time  =         97 seconds =       1.62 minutes
                                     G D M A

                                 by Anthony Stone

                           version 2.2.06, 22 June 2011

               Distributed Multipoles from Gaussian wavefunctions

Starting at 14:23:48 on 28 Apr 2020

Using SCF density matrix from file ./SSI/SSI-110PHE-226LEU-2-dimer.test.16312.fchk

                         Distributed Multipole Analysis

Standard DMA

Positions and radii in angstrom
Multipole moments in atomic units, ea_0^k for rank k

C          x =  0.459198  y = -0.453786  z = -3.044253 angstrom
           Maximum rank =  0   Radius =  0.650 angstrom
                   Q00  =  -0.208120

C          x = -1.181802  y = -0.594786  z =  0.471747 angstrom
           Maximum rank =  0   Radius =  0.650 angstrom
                   Q00  =  -0.081713

C          x = -0.985802  y = -0.341786  z = -0.912253 angstrom
           Maximum rank =  0   Radius =  0.650 angstrom
                   Q00  =  -0.059697

C          x = -0.193802  y = -1.288786  z =  1.198747 angstrom
           Maximum rank =  0   Radius =  0.650 angstrom
                   Q00  =  -0.084906

C          x =  0.176198  y = -0.774786  z = -1.569253 angstrom
           Maximum rank =  0   Radius =  0.650 angstrom
                   Q00  =  -0.109243

C          x =  0.965198  y = -1.723786  z =  0.548747 angstrom
           Maximum rank =  0   Radius =  0.650 angstrom
                   Q00  =  -0.069362

C          x =  1.138198  y = -1.469786  z = -0.825253 angstrom
           Maximum rank =  0   Radius =  0.650 angstrom
                   Q00  =  -0.018483

H          x = -2.080802  y = -0.256786  z =  0.976747 angstrom
           Maximum rank =  0   Radius =  0.325 angstrom
                   Q00  =   0.070018

H          x = -1.733802  y =  0.195214  z = -1.480253 angstrom
           Maximum rank =  0   Radius =  0.325 angstrom
                   Q00  =   0.060377

H          x = -0.323802  y = -1.486786  z =  2.254747 angstrom
           Maximum rank =  0   Radius =  0.325 angstrom
                   Q00  =   0.065577

H          x =  1.727198  y = -2.249786  z =  1.103747 angstrom
           Maximum rank =  0   Radius =  0.325 angstrom
                   Q00  =   0.067982

H          x =  1.276198  y = -1.102786  z = -3.366253 angstrom
           Maximum rank =  0   Radius =  0.325 angstrom
                   Q00  =   0.096951

H          x =  0.806198  y =  0.581214  z = -3.084253 angstrom
           Maximum rank =  0   Radius =  0.325 angstrom
                   Q00  =   0.106943

H          x =  2.032198  y = -1.813786  z = -1.329253 angstrom
           Maximum rank =  0   Radius =  0.325 angstrom
                   Q00  =   0.059593

H          x = -0.379272  y = -0.623286  z = -3.735793 angstrom
           Maximum rank =  0   Radius =  0.325 angstrom
                   Q00  =   0.105647

C          x =  0.300198  y =  2.304214  z =  2.076747 angstrom
           Maximum rank =  0   Radius =  0.650 angstrom
                   Q00  =  -0.233457

C          x = -0.693802  y =  3.458214  z =  1.803747 angstrom
           Maximum rank =  0   Radius =  0.650 angstrom
                   Q00  =  -0.240907

H          x =  1.186198  y =  2.687214  z =  2.587747 angstrom
           Maximum rank =  0   Radius =  0.325 angstrom
                   Q00  =   0.075093

H          x = -0.171802  y =  1.547214  z =  2.702747 angstrom
           Maximum rank =  0   Radius =  0.325 angstrom
                   Q00  =   0.074841

H          x =  0.604198  y =  1.848214  z =  1.131747 angstrom
           Maximum rank =  0   Radius =  0.325 angstrom
                   Q00  =   0.090512

H          x = -0.967802  y =  3.927214  z =  2.748747 angstrom
           Maximum rank =  0   Radius =  0.325 angstrom
                   Q00  =   0.077185

H          x = -0.181302  y =  4.201614  z =  1.175457 angstrom
           Maximum rank =  0   Radius =  0.325 angstrom
                   Q00  =   0.077009

H          x = -1.600482  y =  3.083714  z =  1.306057 angstrom
           Maximum rank =  0   Radius =  0.325 angstrom
                   Q00  =   0.078164

Total multipoles referred to origin at
           x =   0.000000,  y =    0.000000,  z =    0.000000 angstrom
                   Q00  =  -0.000000

Finished at 14:23:48 on 28 Apr 2020

  DMA results are available in the Python driver through the
	  variable('DMA DISTRIBUTED MULTIPOLES')
  and
	  variable('DMA TOTAL MULTIPOLES')
  commands.

    Psi4 stopped on: Tuesday, 28 April 2020 02:23PM
    Psi4 wall time for execution: 0:01:37.42

*** Psi4 exiting successfully. Buy a developer a beer!
