                               Psi4 1.3.2 release

  ==> Input File <==

--------------------------------------------------------------------------
import numpy as np
set {scf_type pk
basis cc-pvdz
d_convergence 10
gdma_switch   0
gdma_limit    0
gdma_origin   [ 0.0,  0.0,  0.0 ]
}
molecule test {
    units Angstrom
    0 1
    --
    0 1
    C                1.393423053384961     0.469527085363862    -1.293708006457192
    C                0.488423053384961    -0.068472914636138    -2.343708006457192
    C                2.767423053384961     0.530527085363862    -1.963708006457192
    H                1.396423053384961    -0.168472914636138    -0.408708006457192
    H                1.082423053384961     1.475527085363862    -1.011708006457192
    H                0.610423053384961    -1.150472914636138    -2.426708006457192
    H               -0.554576946615039     0.186527085363862    -2.151708006457192
    H                3.320423053384961     1.377527085363862    -1.550708006457192
    H                0.866923053384961     0.423285085363862    -3.251958006457192
    H                2.536763053384961     0.706732085363862    -3.024718006457192
    H                3.345803053384961    -0.385063914636138    -1.770918006457192
    C               -1.221576946615039    -0.223472914636138     1.400291993542808
    C               -1.712576946615039     0.861527085363862     2.366291993542808
    C               -1.705576946615039    -1.561472914636138     1.843291993542808
    H               -1.588576946615039    -0.009472914636138     0.395291993542808
    H               -0.131576946615039    -0.238472914636138     1.388291993542808
    H               -1.485576946615039     0.576527085363862     3.395291993542808
    H               -2.794576946615039     0.947527085363862     2.276291993542808
    H               -1.315576946615039    -1.743472914636138     2.848291993542808
    H               -2.796576946615039    -1.569472914636138     1.883291993542808
    H               -1.244486946615039     1.830943085363862     2.140191993542808
    H               -1.361226946615039    -2.356883914636138     1.165981993542808

}
e, wfn = energy('scf', return_wfn=True)
gdma(wfn)
dmavals = variable('DMA DISTRIBUTED MULTIPOLES')
charges = np.array(dmavals)
print(charges)
np.save('SSI-020PRO-178LYS-1-dimer.npy', np.array(charges))--------------------------------------------------------------------------

*** tstart() called on ds3
*** at Tue Apr 28 08:30:23 2020

   => Loading Basis Set <=

    Name: CC-PVDZ
    Role: ORBITAL
    Keyword: BASIS
    atoms 1-3, 12-14  entry C          line   138 file /theoryfs2/ds/metcalf/miniconda2/envs/tf2gpu/share/psi4/basis/cc-pvdz.gbs
    atoms 4-11, 15-22 entry H          line    22 file /theoryfs2/ds/metcalf/miniconda2/envs/tf2gpu/share/psi4/basis/cc-pvdz.gbs

         ---------------------------------------------------------
                                   SCF
               by Justin Turney, Rob Parrish, Andy Simmonett
                          and Daniel G. A. Smith
                              RHF Reference
                        1 Threads,    500 MiB Core
         ---------------------------------------------------------

  ==> Geometry <==

    Molecular point group: c1
    Full point group: C1

    Geometry (in Angstrom), charge = 0, multiplicity = 1:

       Center              X                  Y                   Z               Mass
    ------------   -----------------  -----------------  -----------------  -----------------
         C            1.393423053385     0.469527085364    -1.293708006457    12.000000000000
         C            0.488423053385    -0.068472914636    -2.343708006457    12.000000000000
         C            2.767423053385     0.530527085364    -1.963708006457    12.000000000000
         H            1.396423053385    -0.168472914636    -0.408708006457     1.007825032230
         H            1.082423053385     1.475527085364    -1.011708006457     1.007825032230
         H            0.610423053385    -1.150472914636    -2.426708006457     1.007825032230
         H           -0.554576946615     0.186527085364    -2.151708006457     1.007825032230
         H            3.320423053385     1.377527085364    -1.550708006457     1.007825032230
         H            0.866923053385     0.423285085364    -3.251958006457     1.007825032230
         H            2.536763053385     0.706732085364    -3.024718006457     1.007825032230
         H            3.345803053385    -0.385063914636    -1.770918006457     1.007825032230
         C           -1.221576946615    -0.223472914636     1.400291993543    12.000000000000
         C           -1.712576946615     0.861527085364     2.366291993543    12.000000000000
         C           -1.705576946615    -1.561472914636     1.843291993543    12.000000000000
         H           -1.588576946615    -0.009472914636     0.395291993543     1.007825032230
         H           -0.131576946615    -0.238472914636     1.388291993543     1.007825032230
         H           -1.485576946615     0.576527085364     3.395291993543     1.007825032230
         H           -2.794576946615     0.947527085364     2.276291993543     1.007825032230
         H           -1.315576946615    -1.743472914636     2.848291993543     1.007825032230
         H           -2.796576946615    -1.569472914636     1.883291993543     1.007825032230
         H           -1.244486946615     1.830943085364     2.140191993543     1.007825032230
         H           -1.361226946615    -2.356883914636     1.165981993543     1.007825032230

  Running in c1 symmetry.

  Rotational constants: A =      0.16698  B =      0.02796  C =      0.02650 [cm^-1]
  Rotational constants: A =   5005.91542  B =    838.32152  C =    794.46256 [MHz]
  Nuclear repulsion =  239.267423513896489

  Charge       = 0
  Multiplicity = 1
  Electrons    = 52
  Nalpha       = 26
  Nbeta        = 26

  ==> Algorithm <==

  SCF Algorithm Type is PK.
  DIIS enabled.
  MOM disabled.
  Fractional occupation disabled.
  Guess Type is SAD.
  Energy threshold   = 1.00e-06
  Density threshold  = 1.00e-10
  Integral threshold = 0.00e+00

  ==> Primary Basis <==

  Basis Set: CC-PVDZ
    Blend: CC-PVDZ
    Number of shells: 84
    Number of basis function: 164
    Number of Cartesian functions: 170
    Spherical Harmonics?: true
    Max angular momentum: 2

  ==> Pre-Iterations <==

   -------------------------------------------------------
    Irrep   Nso     Nmo     Nalpha   Nbeta   Ndocc  Nsocc
   -------------------------------------------------------
     A        164     164       0       0       0       0
   -------------------------------------------------------
    Total     164     164      26      26      26       0
   -------------------------------------------------------

  ==> Integral Setup <==

  Using integral reordering PK algorithm.
  Sizing the integral batches needed.
  Building batch lookup table.
   Calculation information:
      Number of atoms:                  22
      Number of AO shells:              84
      Number of primitives:            212
      Number of atomic orbitals:       170
      Number of basis functions:       164

      Integral cutoff                 1.00e-12
      Number of threads:                 1

	Batch   1 pq = [       0,    9405] index = [             0,44231715] size =     44231715
	Batch   2 pq = [    9405,   13530] index = [      44231715,91537215] size =     47305500
  Task number: 9
  Buffer size: 11059200
  Buffer per thread: 2
  We computed 5272578 shell quartets total.
  Whereas there are 6374235 unique shell quartets.

  ==> DiskJK: Disk-Based J/K Matrices <==

    J tasked:                  Yes
    K tasked:                  Yes
    wK tasked:                  No
    Memory [MiB]:              375
    Schwarz Cutoff:          1E-12

    OpenMP threads:              1

  Minimum eigenvalue in the overlap matrix is 4.7287053267E-03.
  Using Symmetric Orthogonalization.

  SCF Guess: Superposition of Atomic Densities via on-the-fly atomic UHF.

  ==> Iterations <==

                        Total Energy        Delta E     RMS |[F,P]|

   @RHF iter SAD:  -235.60311296484977   -2.35603e+02   0.00000e+00
   @RHF iter   1:  -236.28840410499740   -6.85291e-01   3.59540e-03 DIIS
   @RHF iter   2:  -236.48097522377552   -1.92571e-01   1.60254e-03 DIIS
   @RHF iter   3:  -236.51775688435407   -3.67817e-02   3.11545e-04 DIIS
   @RHF iter   4:  -236.52041991008937   -2.66303e-03   4.90898e-05 DIIS
   @RHF iter   5:  -236.52047193072593   -5.20206e-05   1.37188e-05 DIIS
   @RHF iter   6:  -236.52047615824526   -4.22752e-06   2.41872e-06 DIIS
   @RHF iter   7:  -236.52047630077493   -1.42530e-07   4.68453e-07 DIIS
   @RHF iter   8:  -236.52047630759898   -6.82405e-09   9.84534e-08 DIIS
   @RHF iter   9:  -236.52047630791012   -3.11132e-10   3.43802e-08 DIIS
   @RHF iter  10:  -236.52047630794090   -3.07807e-11   8.04244e-09 DIIS
   @RHF iter  11:  -236.52047630794306   -2.16005e-12   1.48231e-09 DIIS
   @RHF iter  12:  -236.52047630794283    2.27374e-13   4.20605e-10 DIIS
   @RHF iter  13:  -236.52047630794362   -7.95808e-13   1.00988e-10 DIIS
   @RHF iter  14:  -236.52047630794323    3.97904e-13   2.64857e-11 DIIS
  Energy and wave function converged.

  ==> Post-Iterations <==

    Orbital Energies [Eh]
    ---------------------

    Doubly Occupied:

       1A    -11.216512     2A    -11.215855     3A    -11.214550
       4A    -11.213525     5A    -11.212926     6A    -11.210831
       7A     -1.069821     8A     -1.061725     9A     -0.922599
      10A     -0.915059    11A     -0.798993    12A     -0.793164
      13A     -0.639330    14A     -0.631730    15A     -0.613025
      16A     -0.599370    17A     -0.548116    18A     -0.540124
      19A     -0.528686    20A     -0.515945    21A     -0.485867
      22A     -0.475193    23A     -0.468970    24A     -0.467148
      25A     -0.463596    26A     -0.458299

    Virtual:

      27A      0.169690    28A      0.194474    29A      0.206435
      30A      0.215970    31A      0.219660    32A      0.242295
      33A      0.245342    34A      0.255540    35A      0.262895
      36A      0.275804    37A      0.287876    38A      0.302138
      39A      0.310058    40A      0.329005    41A      0.338917
      42A      0.355120    43A      0.371754    44A      0.381324
      45A      0.430001    46A      0.439242    47A      0.568378
      48A      0.573687    49A      0.588535    50A      0.593772
      51A      0.605624    52A      0.617379    53A      0.628134
      54A      0.636941    55A      0.669372    56A      0.738930
      57A      0.781216    58A      0.797577    59A      0.810440
      60A      0.818963    61A      0.841291    62A      0.865031
      63A      0.875442    64A      0.880064    65A      0.889312
      66A      0.893740    67A      0.899681    68A      0.901928
      69A      0.906565    70A      0.909308    71A      0.910371
      72A      0.917142    73A      0.921885    74A      0.938155
      75A      0.948545    76A      0.952489    77A      0.970156
      78A      0.975235    79A      1.000296    80A      1.007222
      81A      1.087395    82A      1.125464    83A      1.132796
      84A      1.150413    85A      1.185382    86A      1.227442
      87A      1.378245    88A      1.411310    89A      1.467013
      90A      1.478136    91A      1.487071    92A      1.500002
      93A      1.550945    94A      1.604718    95A      1.621525
      96A      1.623581    97A      1.643467    98A      1.679907
      99A      1.688995   100A      1.710014   101A      1.726603
     102A      1.739105   103A      1.802057   104A      1.841192
     105A      1.864226   106A      1.868712   107A      1.876483
     108A      1.904413   109A      1.906617   110A      1.909596
     111A      1.913017   112A      1.935999   113A      1.940855
     114A      1.955969   115A      1.966618   116A      1.973793
     117A      1.976296   118A      1.983618   119A      1.994677
     120A      2.009414   121A      2.025302   122A      2.033459
     123A      2.039167   124A      2.049876   125A      2.076970
     126A      2.119122   127A      2.144660   128A      2.150485
     129A      2.153833   130A      2.201350   131A      2.240554
     132A      2.300625   133A      2.309067   134A      2.316515
     135A      2.319771   136A      2.340699   137A      2.350166
     138A      2.428679   139A      2.461932   140A      2.509068
     141A      2.516097   142A      2.534893   143A      2.549900
     144A      2.583394   145A      2.622654   146A      2.630922
     147A      2.638194   148A      2.694811   149A      2.758064
     150A      2.761455   151A      2.768541   152A      2.778321
     153A      2.788835   154A      2.792402   155A      2.827830
     156A      2.841984   157A      2.862652   158A      2.913346
     159A      2.925506   160A      2.943023   161A      2.967518
     162A      2.974490   163A      3.058603   164A      3.099272

    Final Occupation by Irrep:
              A
    DOCC [    26 ]

  @RHF Final Energy:  -236.52047630794323

   => Energetics <=

    Nuclear Repulsion Energy =            239.2674235138964889
    One-Electron Energy =                -791.0138841738340716
    Two-Electron Energy =                 315.2259843519943843
    Total Energy =                       -236.5204763079432269

Computation Completed

Properties will be evaluated at   0.000000,   0.000000,   0.000000 [a0]

Properties computed using the SCF density matrix

  Nuclear Dipole Moment: [e a0]
     X:    -0.1065      Y:    -0.0911      Z:    -0.0977

  Electronic Dipole Moment: [e a0]
     X:     0.1143      Y:     0.1046      Z:     0.1258

  Dipole Moment: [e a0]
     X:     0.0078      Y:     0.0135      Z:     0.0281     Total:     0.0321

  Dipole Moment: [D]
     X:     0.0198      Y:     0.0344      Z:     0.0714     Total:     0.0817

*** tstop() called on ds3 at Tue Apr 28 08:31:36 2020
Module time:
	user time   =      27.63 seconds =       0.46 minutes
	system time =      10.91 seconds =       0.18 minutes
	total time  =         73 seconds =       1.22 minutes
Total time:
	user time   =      27.63 seconds =       0.46 minutes
	system time =      10.91 seconds =       0.18 minutes
	total time  =         73 seconds =       1.22 minutes
                                     G D M A

                                 by Anthony Stone

                           version 2.2.06, 22 June 2011

               Distributed Multipoles from Gaussian wavefunctions

Starting at 8:31:36 on 28 Apr 2020

Using SCF density matrix from file ./SSI/SSI-020PRO-178LYS-1-dimer.test.13997.fchk

                         Distributed Multipole Analysis

Standard DMA

Positions and radii in angstrom
Multipole moments in atomic units, ea_0^k for rank k

C          x =  1.393423  y =  0.469527  z = -1.293708 angstrom
           Maximum rank =  0   Radius =  0.650 angstrom
                   Q00  =  -0.082441

C          x =  0.488423  y = -0.068473  z = -2.343708 angstrom
           Maximum rank =  0   Radius =  0.650 angstrom
                   Q00  =  -0.205863

C          x =  2.767423  y =  0.530527  z = -1.963708 angstrom
           Maximum rank =  0   Radius =  0.650 angstrom
                   Q00  =  -0.212714

H          x =  1.396423  y = -0.168473  z = -0.408708 angstrom
           Maximum rank =  0   Radius =  0.325 angstrom
                   Q00  =   0.053118

H          x =  1.082423  y =  1.475527  z = -1.011708 angstrom
           Maximum rank =  0   Radius =  0.325 angstrom
                   Q00  =   0.051319

H          x =  0.610423  y = -1.150473  z = -2.426708 angstrom
           Maximum rank =  0   Radius =  0.325 angstrom
                   Q00  =   0.074493

H          x = -0.554577  y =  0.186527  z = -2.151708 angstrom
           Maximum rank =  0   Radius =  0.325 angstrom
                   Q00  =   0.079543

H          x =  3.320423  y =  1.377527  z = -1.550708 angstrom
           Maximum rank =  0   Radius =  0.325 angstrom
                   Q00  =   0.084475

H          x =  0.866923  y =  0.423285  z = -3.251958 angstrom
           Maximum rank =  0   Radius =  0.325 angstrom
                   Q00  =   0.044765

H          x =  2.536763  y =  0.706732  z = -3.024718 angstrom
           Maximum rank =  0   Radius =  0.325 angstrom
                   Q00  =   0.042687

H          x =  3.345803  y = -0.385064  z = -1.770918 angstrom
           Maximum rank =  0   Radius =  0.325 angstrom
                   Q00  =   0.070367

C          x = -1.221577  y = -0.223473  z =  1.400292 angstrom
           Maximum rank =  0   Radius =  0.650 angstrom
                   Q00  =  -0.081830

C          x = -1.712577  y =  0.861527  z =  2.366292 angstrom
           Maximum rank =  0   Radius =  0.650 angstrom
                   Q00  =  -0.240472

C          x = -1.705577  y = -1.561473  z =  1.843292 angstrom
           Maximum rank =  0   Radius =  0.650 angstrom
                   Q00  =  -0.226880

H          x = -1.588577  y = -0.009473  z =  0.395292 angstrom
           Maximum rank =  0   Radius =  0.325 angstrom
                   Q00  =   0.047404

H          x = -0.131577  y = -0.238473  z =  1.388292 angstrom
           Maximum rank =  0   Radius =  0.325 angstrom
                   Q00  =   0.045542

H          x = -1.485577  y =  0.576527  z =  3.395292 angstrom
           Maximum rank =  0   Radius =  0.325 angstrom
                   Q00  =   0.075071

H          x = -2.794577  y =  0.947527  z =  2.276292 angstrom
           Maximum rank =  0   Radius =  0.325 angstrom
                   Q00  =   0.076280

H          x = -1.315577  y = -1.743473  z =  2.848292 angstrom
           Maximum rank =  0   Radius =  0.325 angstrom
                   Q00  =   0.070506

H          x = -2.796577  y = -1.569473  z =  1.883292 angstrom
           Maximum rank =  0   Radius =  0.325 angstrom
                   Q00  =   0.071918

H          x = -1.244487  y =  1.830943  z =  2.140192 angstrom
           Maximum rank =  0   Radius =  0.325 angstrom
                   Q00  =   0.083519

H          x = -1.361227  y = -2.356884  z =  1.165982 angstrom
           Maximum rank =  0   Radius =  0.325 angstrom
                   Q00  =   0.079195

Total multipoles referred to origin at
           x =   0.000000,  y =    0.000000,  z =    0.000000 angstrom
                   Q00  =  -0.000000

Finished at 8:31:36 on 28 Apr 2020

  DMA results are available in the Python driver through the
	  variable('DMA DISTRIBUTED MULTIPOLES')
  and
	  variable('DMA TOTAL MULTIPOLES')
  commands.

    Psi4 stopped on: Tuesday, 28 April 2020 08:31AM
    Psi4 wall time for execution: 0:01:12.59

*** Psi4 exiting successfully. Buy a developer a beer!
