                               Psi4 1.3.2 release

  ==> Input File <==

--------------------------------------------------------------------------
import numpy as np
set {scf_type pk
basis cc-pvdz
d_convergence 10
gdma_switch   0
gdma_limit    0
gdma_origin   [ 0.0,  0.0,  0.0 ]
}
molecule test {
    units Angstrom
    -1 1
    --
    -1 1
    C               -1.398557219921072     0.454352826642995    -0.669820060908701
    C               -2.647557219921072     0.054352826642995    -1.425820060908701
    C               -1.688557219921072     0.711352826642995     0.790179939091299
    O               -2.807557219921072     1.049352826642995     1.180179939091299
    N               -0.674557219921072     0.543352826642995     1.615179939091299
    H               -0.668557219921072    -0.352647173357005    -0.727820060908701
    H               -0.953557219921072     1.348352826642995    -1.104820060908701
    H               -3.374557219921072     0.865352826642995    -1.373820060908701
    H               -3.082557219921072    -0.828647173357005    -0.957820060908701
    H               -0.808557219921072     0.703352826642995     2.601179939091300
    H                0.253442780078928     0.357352826642995     1.226179939091299
    H               -2.427417219921072    -0.154917173357005    -2.483050060908701
    C                2.725442780078928    -0.596647173357005    -1.750820060908701
    C                2.254442780078928    -0.706647173357005    -0.307820060908701
    O                2.225442780078928    -1.833647173357005     0.236179939091299
    O                1.897442780078928     0.349352826642995     0.270179939091299
    H                3.548442780078928     0.121352826642995    -1.790820060908701
    H                1.915442780078928    -0.177647173357005    -2.346820060908701
    H                3.082302780078928    -1.537527173357005    -2.195110060908701

}
e, wfn = energy('scf', return_wfn=True)
gdma(wfn)
dmavals = variable('DMA DISTRIBUTED MULTIPOLES')
charges = np.array(dmavals)
print(charges)
np.save('SSI-143GLN-147GLU-1-dimer.npy', np.array(charges))--------------------------------------------------------------------------

*** tstart() called on ds3
*** at Tue Apr 28 12:28:33 2020

   => Loading Basis Set <=

    Name: CC-PVDZ
    Role: ORBITAL
    Keyword: BASIS
    atoms 1-3, 13-14  entry C          line   138 file /theoryfs2/ds/metcalf/miniconda2/envs/tf2gpu/share/psi4/basis/cc-pvdz.gbs
    atoms 4, 15-16    entry O          line   198 file /theoryfs2/ds/metcalf/miniconda2/envs/tf2gpu/share/psi4/basis/cc-pvdz.gbs
    atoms 5           entry N          line   168 file /theoryfs2/ds/metcalf/miniconda2/envs/tf2gpu/share/psi4/basis/cc-pvdz.gbs
    atoms 6-12, 17-19 entry H          line    22 file /theoryfs2/ds/metcalf/miniconda2/envs/tf2gpu/share/psi4/basis/cc-pvdz.gbs

         ---------------------------------------------------------
                                   SCF
               by Justin Turney, Rob Parrish, Andy Simmonett
                          and Daniel G. A. Smith
                              RHF Reference
                        1 Threads,    500 MiB Core
         ---------------------------------------------------------

  ==> Geometry <==

    Molecular point group: c1
    Full point group: C1

    Geometry (in Angstrom), charge = -1, multiplicity = 1:

       Center              X                  Y                   Z               Mass
    ------------   -----------------  -----------------  -----------------  -----------------
         C           -1.398557219921     0.454352826643    -0.669820060909    12.000000000000
         C           -2.647557219921     0.054352826643    -1.425820060909    12.000000000000
         C           -1.688557219921     0.711352826643     0.790179939091    12.000000000000
         O           -2.807557219921     1.049352826643     1.180179939091    15.994914619570
         N           -0.674557219921     0.543352826643     1.615179939091    14.003074004430
         H           -0.668557219921    -0.352647173357    -0.727820060909     1.007825032230
         H           -0.953557219921     1.348352826643    -1.104820060909     1.007825032230
         H           -3.374557219921     0.865352826643    -1.373820060909     1.007825032230
         H           -3.082557219921    -0.828647173357    -0.957820060909     1.007825032230
         H           -0.808557219921     0.703352826643     2.601179939091     1.007825032230
         H            0.253442780079     0.357352826643     1.226179939091     1.007825032230
         H           -2.427417219921    -0.154917173357    -2.483050060909     1.007825032230
         C            2.725442780079    -0.596647173357    -1.750820060909    12.000000000000
         C            2.254442780079    -0.706647173357    -0.307820060909    12.000000000000
         O            2.225442780079    -1.833647173357     0.236179939091    15.994914619570
         O            1.897442780079     0.349352826643     0.270179939091    15.994914619570
         H            3.548442780079     0.121352826643    -1.790820060909     1.007825032230
         H            1.915442780079    -0.177647173357    -2.346820060909     1.007825032230
         H            3.082302780079    -1.537527173357    -2.195110060909     1.007825032230

  Running in c1 symmetry.

  Rotational constants: A =      0.08383  B =      0.02307  C =      0.01998 [cm^-1]
  Rotational constants: A =   2513.06330  B =    691.58273  C =    598.86342 [MHz]
  Nuclear repulsion =  439.366567710554989

  Charge       = -1
  Multiplicity = 1
  Electrons    = 72
  Nalpha       = 36
  Nbeta        = 36

  ==> Algorithm <==

  SCF Algorithm Type is PK.
  DIIS enabled.
  MOM disabled.
  Fractional occupation disabled.
  Guess Type is SAD.
  Energy threshold   = 1.00e-06
  Density threshold  = 1.00e-10
  Integral threshold = 0.00e+00

  ==> Primary Basis <==

  Basis Set: CC-PVDZ
    Blend: CC-PVDZ
    Number of shells: 84
    Number of basis function: 176
    Number of Cartesian functions: 185
    Spherical Harmonics?: true
    Max angular momentum: 2

  ==> Pre-Iterations <==

   -------------------------------------------------------
    Irrep   Nso     Nmo     Nalpha   Nbeta   Ndocc  Nsocc
   -------------------------------------------------------
     A        176     176       0       0       0       0
   -------------------------------------------------------
    Total     176     176      36      36      36       0
   -------------------------------------------------------

  ==> Integral Setup <==

  Using integral reordering PK algorithm.
  Sizing the integral batches needed.
  Building batch lookup table.
   Calculation information:
      Number of atoms:                  19
      Number of AO shells:              84
      Number of primitives:            248
      Number of atomic orbitals:       185
      Number of basis functions:       176

      Integral cutoff                 1.00e-12
      Number of threads:                 1

	Batch   1 pq = [       0,    9405] index = [             0,44231715] size =     44231715
	Batch   2 pq = [    9405,   13301] index = [      44231715,88464951] size =     44233236
	Batch   3 pq = [   13301,   15576] index = [      88464951,121313676] size =     32848725
  Task number: 11
  Buffer size: 11059200
  Buffer per thread: 2
  We computed 5421126 shell quartets total.
  Whereas there are 6374235 unique shell quartets.

  ==> DiskJK: Disk-Based J/K Matrices <==

    J tasked:                  Yes
    K tasked:                  Yes
    wK tasked:                  No
    Memory [MiB]:              375
    Schwarz Cutoff:          1E-12

    OpenMP threads:              1

  Minimum eigenvalue in the overlap matrix is 3.1212695293E-03.
  Using Symmetric Orthogonalization.

  SCF Guess: Superposition of Atomic Densities via on-the-fly atomic UHF.

  ==> Iterations <==

                        Total Energy        Delta E     RMS |[F,P]|

   @RHF iter SAD:  -472.53355466314207   -4.72534e+02   0.00000e+00
   @RHF iter   1:  -473.96773834705743   -1.43418e+00   4.78445e-03 DIIS
   @RHF iter   2:  -474.21953287806338   -2.51795e-01   2.75159e-03 DIIS
   @RHF iter   3:  -474.30305814753376   -8.35253e-02   4.38566e-04 DIIS
   @RHF iter   4:  -474.30676157504081   -3.70343e-03   1.75649e-04 DIIS
   @RHF iter   5:  -474.30739045350003   -6.28878e-04   3.35385e-05 DIIS
   @RHF iter   6:  -474.30741971315740   -2.92597e-05   1.73780e-05 DIIS
   @RHF iter   7:  -474.30742626418800   -6.55103e-06   4.64050e-06 DIIS
   @RHF iter   8:  -474.30742727955072   -1.01536e-06   2.07261e-06 DIIS
   @RHF iter   9:  -474.30742745978540   -1.80235e-07   7.81525e-07 DIIS
   @RHF iter  10:  -474.30742748244961   -2.26642e-08   2.38190e-07 DIIS
   @RHF iter  11:  -474.30742748402031   -1.57070e-09   8.59454e-08 DIIS
   @RHF iter  12:  -474.30742748417873   -1.58423e-10   2.45061e-08 DIIS
   @RHF iter  13:  -474.30742748419715   -1.84173e-11   7.60205e-09 DIIS
   @RHF iter  14:  -474.30742748419937   -2.21689e-12   2.56636e-09 DIIS
   @RHF iter  15:  -474.30742748420198   -2.61480e-12   1.04752e-09 DIIS
   @RHF iter  16:  -474.30742748420056    1.42109e-12   4.64057e-10 DIIS
   @RHF iter  17:  -474.30742748420028    2.84217e-13   1.95805e-10 DIIS
   @RHF iter  18:  -474.30742748420136   -1.08002e-12   6.26200e-11 DIIS
  Energy and wave function converged.

  ==> Post-Iterations <==

    Orbital Energies [Eh]
    ---------------------

    Doubly Occupied:

       1A    -20.368108     2A    -20.296147     3A    -20.289015
       4A    -15.425892     5A    -11.204027     6A    -11.147262
       7A    -11.108783     8A    -11.104265     9A    -11.071612
      10A     -1.231259    11A     -1.180549    12A     -1.069888
      13A     -1.062356    14A     -0.924557    15A     -0.818652
      16A     -0.761846    17A     -0.635465    18A     -0.571790
      19A     -0.532500    20A     -0.527302    21A     -0.507495
      22A     -0.457893    23A     -0.434651    24A     -0.433423
      25A     -0.428761    26A     -0.421603    27A     -0.397713
      28A     -0.383032    29A     -0.368659    30A     -0.363726
      31A     -0.329972    32A     -0.276403    33A     -0.257832
      34A     -0.216265    35A     -0.202905    36A     -0.194942

    Virtual:

      37A      0.296402    38A      0.330777    39A      0.337824
      40A      0.342874    41A      0.361990    42A      0.369219
      43A      0.381805    44A      0.388537    45A      0.404386
      46A      0.431866    47A      0.456361    48A      0.513008
      49A      0.520351    50A      0.556366    51A      0.562543
      52A      0.600081    53A      0.660928    54A      0.693175
      55A      0.718299    56A      0.739949    57A      0.764960
      58A      0.790950    59A      0.804444    60A      0.830826
      61A      0.854922    62A      0.871405    63A      0.898924
      64A      0.934741    65A      0.949158    66A      0.953079
      67A      0.971625    68A      0.985671    69A      1.001508
      70A      1.006778    71A      1.010731    72A      1.019024
      73A      1.021605    74A      1.036675    75A      1.040261
      76A      1.059320    77A      1.066727    78A      1.093223
      79A      1.109624    80A      1.123490    81A      1.165835
      82A      1.179925    83A      1.212976    84A      1.240147
      85A      1.253618    86A      1.282071    87A      1.320164
      88A      1.343454    89A      1.411608    90A      1.430405
      91A      1.448770    92A      1.493568    93A      1.519429
      94A      1.527732    95A      1.528792    96A      1.558755
      97A      1.570996    98A      1.582476    99A      1.597636
     100A      1.612383   101A      1.630397   102A      1.669569
     103A      1.696709   104A      1.711915   105A      1.756369
     106A      1.796115   107A      1.823320   108A      1.826420
     109A      1.841169   110A      1.881747   111A      1.895423
     112A      1.974216   113A      1.999613   114A      2.007458
     115A      2.013753   116A      2.037006   117A      2.054877
     118A      2.061972   119A      2.080154   120A      2.081959
     121A      2.094232   122A      2.111162   123A      2.126916
     124A      2.129103   125A      2.173307   126A      2.185731
     127A      2.198062   128A      2.208245   129A      2.254615
     130A      2.292524   131A      2.314895   132A      2.332125
     133A      2.361478   134A      2.408000   135A      2.430504
     136A      2.441659   137A      2.458286   138A      2.509873
     139A      2.563796   140A      2.571866   141A      2.618523
     142A      2.623924   143A      2.663393   144A      2.702128
     145A      2.714014   146A      2.737014   147A      2.753524
     148A      2.799606   149A      2.821822   150A      2.878708
     151A      2.890646   152A      2.900554   153A      2.948724
     154A      2.968254   155A      2.973762   156A      3.025644
     157A      3.034644   158A      3.094736   159A      3.150166
     160A      3.221267   161A      3.238895   162A      3.244055
     163A      3.276359   164A      3.293004   165A      3.329405
     166A      3.500469   167A      3.602090   168A      3.648169
     169A      3.684849   170A      3.765917   171A      3.797178
     172A      3.998744   173A      4.039244   174A      4.047033
     175A      4.060376   176A      4.172781

    Final Occupation by Irrep:
              A
    DOCC [    36 ]

  @RHF Final Energy:  -474.30742748420136

   => Energetics <=

    Nuclear Repulsion Energy =            439.3665677105549889
    One-Electron Energy =               -1533.3348879233763000
    Two-Electron Energy =                 619.6608927286198423
    Total Energy =                       -474.3074274842014120

Computation Completed

Properties will be evaluated at   0.000000,   0.000000,   0.000000 [a0]

Properties computed using the SCF density matrix

  Nuclear Dipole Moment: [e a0]
     X:    -2.3500      Y:     0.3192      Z:    -8.5770

  Electronic Dipole Moment: [e a0]
     X:     1.1413      Y:     0.4354      Z:     7.5437

  Dipole Moment: [e a0]
     X:    -1.2087      Y:     0.7546      Z:    -1.0333     Total:     1.7601

  Dipole Moment: [D]
     X:    -3.0722      Y:     1.9179      Z:    -2.6263     Total:     4.4737

*** tstop() called on ds3 at Tue Apr 28 12:30:33 2020
Module time:
	user time   =      42.82 seconds =       0.71 minutes
	system time =      18.22 seconds =       0.30 minutes
	total time  =        120 seconds =       2.00 minutes
Total time:
	user time   =      42.82 seconds =       0.71 minutes
	system time =      18.22 seconds =       0.30 minutes
	total time  =        120 seconds =       2.00 minutes
                                     G D M A

                                 by Anthony Stone

                           version 2.2.06, 22 June 2011

               Distributed Multipoles from Gaussian wavefunctions

Starting at 12:30:33 on 28 Apr 2020

Using SCF density matrix from file ./SSI/SSI-143GLN-147GLU-1-dimer.test.14959.fchk

                         Distributed Multipole Analysis

Standard DMA

Positions and radii in angstrom
Multipole moments in atomic units, ea_0^k for rank k

C          x = -1.398557  y =  0.454353  z = -0.669820 angstrom
           Maximum rank =  0   Radius =  0.650 angstrom
                   Q00  =  -0.153133

C          x = -2.647557  y =  0.054353  z = -1.425820 angstrom
           Maximum rank =  0   Radius =  0.650 angstrom
                   Q00  =  -0.215331

C          x = -1.688557  y =  0.711353  z =  0.790180 angstrom
           Maximum rank =  0   Radius =  0.650 angstrom
                   Q00  =   0.901615

O          x = -2.807557  y =  1.049353  z =  1.180180 angstrom
           Maximum rank =  0   Radius =  0.650 angstrom
                   Q00  =  -0.885335

N          x = -0.674557  y =  0.543353  z =  1.615180 angstrom
           Maximum rank =  0   Radius =  0.650 angstrom
                   Q00  =  -0.570937

H          x = -0.668557  y = -0.352647  z = -0.727820 angstrom
           Maximum rank =  0   Radius =  0.325 angstrom
                   Q00  =   0.094340

H          x = -0.953557  y =  1.348353  z = -1.104820 angstrom
           Maximum rank =  0   Radius =  0.325 angstrom
                   Q00  =   0.095701

H          x = -3.374557  y =  0.865353  z = -1.373820 angstrom
           Maximum rank =  0   Radius =  0.325 angstrom
                   Q00  =   0.088635

H          x = -3.082557  y = -0.828647  z = -0.957820 angstrom
           Maximum rank =  0   Radius =  0.325 angstrom
                   Q00  =   0.083814

H          x = -0.808557  y =  0.703353  z =  2.601180 angstrom
           Maximum rank =  0   Radius =  0.325 angstrom
                   Q00  =   0.181738

H          x =  0.253443  y =  0.357353  z =  1.226180 angstrom
           Maximum rank =  0   Radius =  0.325 angstrom
                   Q00  =   0.298947

H          x = -2.427417  y = -0.154917  z = -2.483050 angstrom
           Maximum rank =  0   Radius =  0.325 angstrom
                   Q00  =   0.056993

C          x =  2.725443  y = -0.596647  z = -1.750820 angstrom
           Maximum rank =  0   Radius =  0.650 angstrom
                   Q00  =  -0.270678

C          x =  2.254443  y = -0.706647  z = -0.307820 angstrom
           Maximum rank =  0   Radius =  0.650 angstrom
                   Q00  =   0.933762

O          x =  2.225443  y = -1.833647  z =  0.236180 angstrom
           Maximum rank =  0   Radius =  0.650 angstrom
                   Q00  =  -0.899210

O          x =  1.897443  y =  0.349353  z =  0.270180 angstrom
           Maximum rank =  0   Radius =  0.650 angstrom
                   Q00  =  -0.947077

H          x =  3.548443  y =  0.121353  z = -1.790820 angstrom
           Maximum rank =  0   Radius =  0.325 angstrom
                   Q00  =   0.072352

H          x =  1.915443  y = -0.177647  z = -2.346820 angstrom
           Maximum rank =  0   Radius =  0.325 angstrom
                   Q00  =   0.074897

H          x =  3.082303  y = -1.537527  z = -2.195110 angstrom
           Maximum rank =  0   Radius =  0.325 angstrom
                   Q00  =   0.058906

Total multipoles referred to origin at
           x =   0.000000,  y =    0.000000,  z =    0.000000 angstrom
                   Q00  =  -1.000000

Finished at 12:30:33 on 28 Apr 2020

  DMA results are available in the Python driver through the
	  variable('DMA DISTRIBUTED MULTIPOLES')
  and
	  variable('DMA TOTAL MULTIPOLES')
  commands.

    Psi4 stopped on: Tuesday, 28 April 2020 12:30PM
    Psi4 wall time for execution: 0:02:00.17

*** Psi4 exiting successfully. Buy a developer a beer!
