                               Psi4 1.3.2 release

  ==> Input File <==

--------------------------------------------------------------------------
import numpy as np
set {scf_type pk
basis cc-pvdz
d_convergence 10
gdma_switch   0
gdma_limit    0
gdma_origin   [ 0.0,  0.0,  0.0 ]
}
molecule test {
    units Angstrom
    0 1
    --
    0 1
    C               -1.841734872232579     0.200053130389046    -2.361181152837064
    N               -0.938734872232579    -0.936946869610954    -2.029181152837065
    H               -1.449734872232579    -1.684946869610955    -1.576181152837064
    H               -0.497734872232579    -1.326946869610954    -2.853181152837064
    H               -0.205734872232579    -0.659946869610955    -1.369181152837065
    H               -2.715734872232578    -0.166946869610954    -2.911181152837064
    H               -1.317734872232579     0.913053130389046    -3.004181152837064
    H               -2.181874872232579     0.734253130389045    -1.461771152837064
    C                1.748265127767421     1.226053130389046     1.424818847162935
    C                0.687265127767421     0.150053130389046     1.181818847162936
    O                0.724265127767421    -0.468946869610954     0.087818847162936
    O               -0.200734872232579    -0.035946869610954     2.054818847162936
    H                2.459265127767421     1.224053130389046     0.596818847162936
    H                2.301265127767421     1.017053130389046     2.342818847162936
    H                1.272105127767421     2.214613130389045     1.502368847162936

}
e, wfn = energy('scf', return_wfn=True)
gdma(wfn)
dmavals = variable('DMA DISTRIBUTED MULTIPOLES')
charges = np.array(dmavals)
print(charges)
np.save('SSI-141LYS-144GLU-1-dimer.npy', np.array(charges))--------------------------------------------------------------------------

*** tstart() called on ds3
*** at Sun Apr 26 20:50:15 2020

   => Loading Basis Set <=

    Name: CC-PVDZ
    Role: ORBITAL
    Keyword: BASIS
    atoms 1, 9-10    entry C          line   138 file /theoryfs2/ds/metcalf/miniconda2/envs/tf2gpu/share/psi4/basis/cc-pvdz.gbs
    atoms 2          entry N          line   168 file /theoryfs2/ds/metcalf/miniconda2/envs/tf2gpu/share/psi4/basis/cc-pvdz.gbs
    atoms 3-8, 13-15 entry H          line    22 file /theoryfs2/ds/metcalf/miniconda2/envs/tf2gpu/share/psi4/basis/cc-pvdz.gbs
    atoms 11-12      entry O          line   198 file /theoryfs2/ds/metcalf/miniconda2/envs/tf2gpu/share/psi4/basis/cc-pvdz.gbs

         ---------------------------------------------------------
                                   SCF
               by Justin Turney, Rob Parrish, Andy Simmonett
                          and Daniel G. A. Smith
                              RHF Reference
                        1 Threads,    500 MiB Core
         ---------------------------------------------------------

  ==> Geometry <==

    Molecular point group: c1
    Full point group: C1

    Geometry (in Angstrom), charge = 0, multiplicity = 1:

       Center              X                  Y                   Z               Mass
    ------------   -----------------  -----------------  -----------------  -----------------
         C           -1.841734872233     0.200053130389    -2.361181152837    12.000000000000
         N           -0.938734872233    -0.936946869611    -2.029181152837    14.003074004430
         H           -1.449734872233    -1.684946869611    -1.576181152837     1.007825032230
         H           -0.497734872233    -1.326946869611    -2.853181152837     1.007825032230
         H           -0.205734872233    -0.659946869611    -1.369181152837     1.007825032230
         H           -2.715734872233    -0.166946869611    -2.911181152837     1.007825032230
         H           -1.317734872233     0.913053130389    -3.004181152837     1.007825032230
         H           -2.181874872233     0.734253130389    -1.461771152837     1.007825032230
         C            1.748265127767     1.226053130389     1.424818847163    12.000000000000
         C            0.687265127767     0.150053130389     1.181818847163    12.000000000000
         O            0.724265127767    -0.468946869611     0.087818847163    15.994914619570
         O           -0.200734872233    -0.035946869611     2.054818847163    15.994914619570
         H            2.459265127767     1.224053130389     0.596818847163     1.007825032230
         H            2.301265127767     1.017053130389     2.342818847163     1.007825032230
         H            1.272105127767     2.214613130389     1.502368847163     1.007825032230

  Running in c1 symmetry.

  Rotational constants: A =      0.20543  B =      0.04132  C =      0.03988 [cm^-1]
  Rotational constants: A =   6158.66593  B =   1238.84582  C =   1195.46805 [MHz]
  Nuclear repulsion =  236.757953209485663

  Charge       = 0
  Multiplicity = 1
  Electrons    = 50
  Nalpha       = 25
  Nbeta        = 25

  ==> Algorithm <==

  SCF Algorithm Type is PK.
  DIIS enabled.
  MOM disabled.
  Fractional occupation disabled.
  Guess Type is SAD.
  Energy threshold   = 1.00e-06
  Density threshold  = 1.00e-10
  Integral threshold = 0.00e+00

  ==> Primary Basis <==

  Basis Set: CC-PVDZ
    Blend: CC-PVDZ
    Number of shells: 63
    Number of basis function: 129
    Number of Cartesian functions: 135
    Spherical Harmonics?: true
    Max angular momentum: 2

  ==> Pre-Iterations <==

   -------------------------------------------------------
    Irrep   Nso     Nmo     Nalpha   Nbeta   Ndocc  Nsocc
   -------------------------------------------------------
     A        129     129       0       0       0       0
   -------------------------------------------------------
    Total     129     129      25      25      25       0
   -------------------------------------------------------

  ==> Integral Setup <==

  Using integral reordering PK algorithm.
  Sizing the integral batches needed.
  Building batch lookup table.
   Calculation information:
      Number of atoms:                  15
      Number of AO shells:              63
      Number of primitives:            177
      Number of atomic orbitals:       135
      Number of basis functions:       129

      Integral cutoff                 1.00e-12
      Number of threads:                 1

	Batch   1 pq = [       0,    8385] index = [             0,35158305] size =     35158305
  Task number: 4
  Buffer size: 11059200
  Buffer per thread: 2
  We computed 1686683 shell quartets total.
  Whereas there are 2033136 unique shell quartets.

  ==> DiskJK: Disk-Based J/K Matrices <==

    J tasked:                  Yes
    K tasked:                  Yes
    wK tasked:                  No
    Memory [MiB]:              375
    Schwarz Cutoff:          1E-12

    OpenMP threads:              1

  Minimum eigenvalue in the overlap matrix is 5.5513302522E-03.
  Using Symmetric Orthogonalization.

  SCF Guess: Superposition of Atomic Densities via on-the-fly atomic UHF.

  ==> Iterations <==

                        Total Energy        Delta E     RMS |[F,P]|

   @RHF iter SAD:  -321.68402356697612   -3.21684e+02   0.00000e+00
   @RHF iter   1:  -322.78318923948757   -1.09917e+00   5.20687e-03 DIIS
   @RHF iter   2:  -322.95072090606379   -1.67532e-01   2.91712e-03 DIIS
   @RHF iter   3:  -323.00076984784141   -5.00489e-02   4.92836e-04 DIIS
   @RHF iter   4:  -323.00338103628275   -2.61119e-03   1.78267e-04 DIIS
   @RHF iter   5:  -323.00371466465810   -3.33628e-04   3.99189e-05 DIIS
   @RHF iter   6:  -323.00373335482686   -1.86902e-05   1.99572e-05 DIIS
   @RHF iter   7:  -323.00373737208457   -4.01726e-06   4.37307e-06 DIIS
   @RHF iter   8:  -323.00373794128870   -5.69204e-07   1.93591e-06 DIIS
   @RHF iter   9:  -323.00373804784192   -1.06553e-07   5.39393e-07 DIIS
   @RHF iter  10:  -323.00373805524640   -7.40448e-09   1.71774e-07 DIIS
   @RHF iter  11:  -323.00373805573406   -4.87660e-10   4.01872e-08 DIIS
   @RHF iter  12:  -323.00373805576442   -3.03544e-11   1.02080e-08 DIIS
   @RHF iter  13:  -323.00373805576669   -2.27374e-12   3.58566e-09 DIIS
   @RHF iter  14:  -323.00373805576658    1.13687e-13   1.41520e-09 DIIS
   @RHF iter  15:  -323.00373805576612    4.54747e-13   6.43270e-10 DIIS
   @RHF iter  16:  -323.00373805576777   -1.64846e-12   3.00249e-10 DIIS
   @RHF iter  17:  -323.00373805576805   -2.84217e-13   1.05991e-10 DIIS
   @RHF iter  18:  -323.00373805576788    1.70530e-13   4.31748e-11 DIIS
  Energy and wave function converged.

  ==> Post-Iterations <==

    Orbital Energies [Eh]
    ---------------------

    Doubly Occupied:

       1A    -20.428003     2A    -20.402006     3A    -15.732042
       4A    -11.351408     5A    -11.266898     6A    -11.169939
       7A     -1.357042     8A     -1.299444     9A     -1.185926
      10A     -1.020635    11A     -0.917804    12A     -0.817620
      13A     -0.808897    14A     -0.713072    15A     -0.647891
      16A     -0.624612    17A     -0.619407    18A     -0.549056
      19A     -0.540545    20A     -0.535270    21A     -0.476507
      22A     -0.448934    23A     -0.341934    24A     -0.317272
      25A     -0.315973

    Virtual:

      26A      0.097982    27A      0.154077    28A      0.161912
      29A      0.201661    30A      0.215841    31A      0.246369
      32A      0.271102    33A      0.277981    34A      0.308815
      35A      0.336822    36A      0.362197    37A      0.451428
      38A      0.504258    39A      0.518720    40A      0.565939
      41A      0.571844    42A      0.602680    43A      0.656998
      44A      0.697937    45A      0.710213    46A      0.749626
      47A      0.780216    48A      0.789396    49A      0.792520
      50A      0.814857    51A      0.833988    52A      0.856703
      53A      0.893633    54A      0.912626    55A      0.916331
      56A      0.923193    57A      0.934348    58A      0.960166
      59A      0.967280    60A      1.006970    61A      1.063269
      62A      1.079273    63A      1.085555    64A      1.190918
      65A      1.213775    66A      1.233713    67A      1.300434
      68A      1.401920    69A      1.421819    70A      1.434915
      71A      1.442230    72A      1.470291    73A      1.477086
      74A      1.539374    75A      1.577353    76A      1.595044
      77A      1.600987    78A      1.707533    79A      1.714396
      80A      1.727662    81A      1.772294    82A      1.813288
      83A      1.822952    84A      1.857897    85A      1.864643
      86A      1.886537    87A      1.934356    88A      1.960450
      89A      1.969839    90A      1.984280    91A      2.066091
      92A      2.084531    93A      2.086125    94A      2.106558
      95A      2.112329    96A      2.165177    97A      2.191116
      98A      2.195055    99A      2.275945   100A      2.299397
     101A      2.307315   102A      2.397242   103A      2.423292
     104A      2.442289   105A      2.516311   106A      2.575616
     107A      2.595016   108A      2.618762   109A      2.630793
     110A      2.638043   111A      2.675278   112A      2.802296
     113A      2.832429   114A      2.867048   115A      2.875743
     116A      2.889043   117A      2.913768   118A      3.088754
     119A      3.119860   120A      3.146330   121A      3.201426
     122A      3.251043   123A      3.300885   124A      3.488716
     125A      3.629102   126A      3.698383   127A      3.909798
     128A      3.934787   129A      4.038743

    Final Occupation by Irrep:
              A
    DOCC [    25 ]

  @RHF Final Energy:  -323.00373805576788

   => Energetics <=

    Nuclear Repulsion Energy =            236.7579532094856631
    One-Electron Energy =                -911.7471087560224987
    Two-Electron Energy =                 351.9854174907689526
    Total Energy =                       -323.0037380557678830

Computation Completed

Properties will be evaluated at   0.000000,   0.000000,   0.000000 [a0]

Properties computed using the SCF density matrix

  Nuclear Dipole Moment: [e a0]
     X:    -2.1846      Y:     2.1229      Z:    -8.1714

  Electronic Dipole Moment: [e a0]
     X:     0.3861      Y:    -2.6460      Z:     3.3717

  Dipole Moment: [e a0]
     X:    -1.7985      Y:    -0.5231      Z:    -4.7997     Total:     5.1522

  Dipole Moment: [D]
     X:    -4.5713      Y:    -1.3295      Z:   -12.1995     Total:    13.0955

*** tstop() called on ds3 at Sun Apr 26 20:50:34 2020
Module time:
	user time   =      13.40 seconds =       0.22 minutes
	system time =       6.38 seconds =       0.11 minutes
	total time  =         19 seconds =       0.32 minutes
Total time:
	user time   =      13.40 seconds =       0.22 minutes
	system time =       6.38 seconds =       0.11 minutes
	total time  =         19 seconds =       0.32 minutes
                                     G D M A

                                 by Anthony Stone

                           version 2.2.06, 22 June 2011

               Distributed Multipoles from Gaussian wavefunctions

Starting at 20:50:34 on 26 Apr 2020

Using SCF density matrix from file ./SSI/SSI-141LYS-144GLU-1-dimer.test.10406.fchk

                         Distributed Multipole Analysis

Standard DMA

Positions and radii in angstrom
Multipole moments in atomic units, ea_0^k for rank k

C          x = -1.841735  y =  0.200053  z = -2.361181 angstrom
           Maximum rank =  0   Radius =  0.650 angstrom
                   Q00  =  -0.141806

N          x = -0.938735  y = -0.936947  z = -2.029181 angstrom
           Maximum rank =  0   Radius =  0.650 angstrom
                   Q00  =  -0.129296

H          x = -1.449735  y = -1.684947  z = -1.576181 angstrom
           Maximum rank =  0   Radius =  0.325 angstrom
                   Q00  =   0.239425

H          x = -0.497735  y = -1.326947  z = -2.853181 angstrom
           Maximum rank =  0   Radius =  0.325 angstrom
                   Q00  =   0.219026

H          x = -0.205735  y = -0.659947  z = -1.369181 angstrom
           Maximum rank =  0   Radius =  0.325 angstrom
                   Q00  =   0.354362

H          x = -2.715735  y = -0.166947  z = -2.911181 angstrom
           Maximum rank =  0   Radius =  0.325 angstrom
                   Q00  =   0.123432

H          x = -1.317735  y =  0.913053  z = -3.004181 angstrom
           Maximum rank =  0   Radius =  0.325 angstrom
                   Q00  =   0.139935

H          x = -2.181875  y =  0.734253  z = -1.461771 angstrom
           Maximum rank =  0   Radius =  0.325 angstrom
                   Q00  =   0.168053

C          x =  1.748265  y =  1.226053  z =  1.424819 angstrom
           Maximum rank =  0   Radius =  0.650 angstrom
                   Q00  =  -0.287216

C          x =  0.687265  y =  0.150053  z =  1.181819 angstrom
           Maximum rank =  0   Radius =  0.650 angstrom
                   Q00  =   0.936604

O          x =  0.724265  y = -0.468947  z =  0.087819 angstrom
           Maximum rank =  0   Radius =  0.650 angstrom
                   Q00  =  -1.007573

O          x = -0.200735  y = -0.035947  z =  2.054819 angstrom
           Maximum rank =  0   Radius =  0.650 angstrom
                   Q00  =  -0.875641

H          x =  2.459265  y =  1.224053  z =  0.596819 angstrom
           Maximum rank =  0   Radius =  0.325 angstrom
                   Q00  =   0.062765

H          x =  2.301265  y =  1.017053  z =  2.342819 angstrom
           Maximum rank =  0   Radius =  0.325 angstrom
                   Q00  =   0.104040

H          x =  1.272105  y =  2.214613  z =  1.502369 angstrom
           Maximum rank =  0   Radius =  0.325 angstrom
                   Q00  =   0.093888

Total multipoles referred to origin at
           x =   0.000000,  y =    0.000000,  z =    0.000000 angstrom
                   Q00  =  -0.000000

Finished at 20:50:34 on 26 Apr 2020

  DMA results are available in the Python driver through the
	  variable('DMA DISTRIBUTED MULTIPOLES')
  and
	  variable('DMA TOTAL MULTIPOLES')
  commands.

    Psi4 stopped on: Sunday, 26 April 2020 08:50PM
    Psi4 wall time for execution: 0:00:19.44

*** Psi4 exiting successfully. Buy a developer a beer!
