                               Psi4 1.3.2 release

  ==> Input File <==

--------------------------------------------------------------------------
import numpy as np
set {scf_type pk
basis cc-pvdz
d_convergence 10
gdma_switch   0
gdma_limit    0
gdma_origin   [ 0.0,  0.0,  0.0 ]
}
molecule test {
    units Angstrom
    0 1
    --
    0 1
    C                4.835207343344475    -1.115604041671560     0.966924466882106
    C                0.896207343344475    -1.791604041671560    -0.643075533117894
    C                1.821207343344475    -1.022604041671560    -1.356075533117894
    C                1.254207343344475    -2.330604041671560     0.593924466882106
    C                3.100207343344475    -0.798604041671560    -0.828075533117894
    C                2.529207343344475    -2.102604041671560     1.113924466882106
    C                3.460207343344475    -1.340604041671560     0.407924466882106
    H               -0.087792656655525    -1.973604041671560    -1.053075533117894
    H                1.548207343344475    -0.599604041671560    -2.313075533117893
    H                0.576207343344475    -2.931604041671560     1.170924466882106
    H                3.812207343344475    -0.203604041671560    -1.380075533117894
    H                2.784207343344475    -2.502604041671560     2.081924466882107
    H                4.812207343344475    -1.226604041671560     2.052924466882106
    H                5.119207343344474    -0.088604041671560     0.743924466882106
    H                5.605987343344474    -1.774936041671560     0.541270546882106
    C               -4.629792656655526     0.116395958328440    -0.017075533117894
    C               -2.133792656655525     0.382395958328440    -0.315075533117894
    C               -3.369792656655525     0.950395958328440    -0.005075533117894
    C               -0.985792656655525     1.177395958328440    -0.371075533117894
    C               -1.064792656655525     2.550395958328440    -0.114075533117894
    C               -3.437792656655525     2.320395958328440     0.258924466882106
    C               -2.296792656655526     3.120395958328439     0.201924466882106
    H               -2.063792656655525    -0.674604041671560    -0.526075533117894
    H               -0.030792656655525     0.741395958328440    -0.617075533117894
    H               -4.523792656655526    -0.672604041671560    -0.762075533117894
    H               -5.454792656655526     0.754395958328440    -0.339075533117894
    H               -0.176792656655525     3.167395958328440    -0.165075533117894
    H               -4.387792656655526     2.770395958328440     0.510924466882106
    H               -2.378792656655526     4.184395958328440     0.369924466882106
    H               -4.890782656655525    -0.345363041671560     0.946594966882106

}
e, wfn = energy('scf', return_wfn=True)
gdma(wfn)
dmavals = variable('DMA DISTRIBUTED MULTIPOLES')
charges = np.array(dmavals)
print(charges)
np.save('SSI-051PHE-175PHE-1-dimer.npy', np.array(charges))--------------------------------------------------------------------------

*** tstart() called on ds3
*** at Sun Apr 26 21:29:37 2020

   => Loading Basis Set <=

    Name: CC-PVDZ
    Role: ORBITAL
    Keyword: BASIS
    atoms 1-7, 16-22  entry C          line   138 file /theoryfs2/ds/metcalf/miniconda2/envs/tf2gpu/share/psi4/basis/cc-pvdz.gbs
    atoms 8-15, 23-30 entry H          line    22 file /theoryfs2/ds/metcalf/miniconda2/envs/tf2gpu/share/psi4/basis/cc-pvdz.gbs

         ---------------------------------------------------------
                                   SCF
               by Justin Turney, Rob Parrish, Andy Simmonett
                          and Daniel G. A. Smith
                              RHF Reference
                        1 Threads,    500 MiB Core
         ---------------------------------------------------------

  ==> Geometry <==

    Molecular point group: c1
    Full point group: C1

    Geometry (in Angstrom), charge = 0, multiplicity = 1:

       Center              X                  Y                   Z               Mass
    ------------   -----------------  -----------------  -----------------  -----------------
         C            4.835207343344    -1.115604041672     0.966924466882    12.000000000000
         C            0.896207343344    -1.791604041672    -0.643075533118    12.000000000000
         C            1.821207343344    -1.022604041672    -1.356075533118    12.000000000000
         C            1.254207343344    -2.330604041672     0.593924466882    12.000000000000
         C            3.100207343344    -0.798604041672    -0.828075533118    12.000000000000
         C            2.529207343344    -2.102604041672     1.113924466882    12.000000000000
         C            3.460207343344    -1.340604041672     0.407924466882    12.000000000000
         H           -0.087792656656    -1.973604041672    -1.053075533118     1.007825032230
         H            1.548207343344    -0.599604041672    -2.313075533118     1.007825032230
         H            0.576207343344    -2.931604041672     1.170924466882     1.007825032230
         H            3.812207343344    -0.203604041672    -1.380075533118     1.007825032230
         H            2.784207343344    -2.502604041672     2.081924466882     1.007825032230
         H            4.812207343344    -1.226604041672     2.052924466882     1.007825032230
         H            5.119207343344    -0.088604041672     0.743924466882     1.007825032230
         H            5.605987343344    -1.774936041672     0.541270546882     1.007825032230
         C           -4.629792656656     0.116395958328    -0.017075533118    12.000000000000
         C           -2.133792656656     0.382395958328    -0.315075533118    12.000000000000
         C           -3.369792656656     0.950395958328    -0.005075533118    12.000000000000
         C           -0.985792656656     1.177395958328    -0.371075533118    12.000000000000
         C           -1.064792656656     2.550395958328    -0.114075533118    12.000000000000
         C           -3.437792656656     2.320395958328     0.258924466882    12.000000000000
         C           -2.296792656656     3.120395958328     0.201924466882    12.000000000000
         H           -2.063792656656    -0.674604041672    -0.526075533118     1.007825032230
         H           -0.030792656656     0.741395958328    -0.617075533118     1.007825032230
         H           -4.523792656656    -0.672604041672    -0.762075533118     1.007825032230
         H           -5.454792656656     0.754395958328    -0.339075533118     1.007825032230
         H           -0.176792656656     3.167395958328    -0.165075533118     1.007825032230
         H           -4.387792656656     2.770395958328     0.510924466882     1.007825032230
         H           -2.378792656656     4.184395958328     0.369924466882     1.007825032230
         H           -4.890782656656    -0.345363041672     0.946594966882     1.007825032230

  Running in c1 symmetry.

  Rotational constants: A =      0.04684  B =      0.00859  C =      0.00788 [cm^-1]
  Rotational constants: A =   1404.23472  B =    257.41178  C =    236.10930 [MHz]
  Nuclear repulsion =  759.370629103099191

  Charge       = 0
  Multiplicity = 1
  Electrons    = 100
  Nalpha       = 50
  Nbeta        = 50

  ==> Algorithm <==

  SCF Algorithm Type is PK.
  DIIS enabled.
  MOM disabled.
  Fractional occupation disabled.
  Guess Type is SAD.
  Energy threshold   = 1.00e-06
  Density threshold  = 1.00e-10
  Integral threshold = 0.00e+00

  ==> Primary Basis <==

  Basis Set: CC-PVDZ
    Blend: CC-PVDZ
    Number of shells: 132
    Number of basis function: 276
    Number of Cartesian functions: 290
    Spherical Harmonics?: true
    Max angular momentum: 2

  ==> Pre-Iterations <==

   -------------------------------------------------------
    Irrep   Nso     Nmo     Nalpha   Nbeta   Ndocc  Nsocc
   -------------------------------------------------------
     A        276     276       0       0       0       0
   -------------------------------------------------------
    Total     276     276      50      50      50       0
   -------------------------------------------------------

  ==> Integral Setup <==

  Using integral reordering PK algorithm.
  Sizing the integral batches needed.
  Building batch lookup table.
   Calculation information:
      Number of atoms:                  30
      Number of AO shells:             132
      Number of primitives:            388
      Number of atomic orbitals:       290
      Number of basis functions:       276

      Integral cutoff                 1.00e-12
      Number of threads:                 1

	Batch   1 pq = [       0,    9405] index = [             0,44231715] size =     44231715
	Batch   2 pq = [    9405,   13301] index = [      44231715,88464951] size =     44233236
	Batch   3 pq = [   13301,   16290] index = [      88464951,132690195] size =     44225244
	Batch   4 pq = [   16290,   18810] index = [     132690195,176917455] size =     44227260
	Batch   5 pq = [   18810,   21030] index = [     176917455,221140965] size =     44223510
	Batch   6 pq = [   21030,   23037] index = [     221140965,265363203] size =     44222238
	Batch   7 pq = [   23037,   24883] index = [     265363203,309594286] size =     44231083
	Batch   8 pq = [   24883,   26601] index = [     309594286,353819901] size =     44225615
	Batch   9 pq = [   26601,   28214] index = [     353819901,398029005] size =     44209104
	Batch  10 pq = [   28214,   29740] index = [     398029005,442248670] size =     44219665
	Batch  11 pq = [   29740,   31191] index = [     442248670,486454836] size =     44206166
	Batch  12 pq = [   31191,   32578] index = [     486454836,530679331] size =     44224495
	Batch  13 pq = [   32578,   33908] index = [     530679331,574893186] size =     44213855
	Batch  14 pq = [   33908,   35188] index = [     574893186,619115266] size =     44222080
	Batch  15 pq = [   35188,   36423] index = [     619115266,663335676] size =     44220410
	Batch  16 pq = [   36423,   37617] index = [     663335676,707538153] size =     44202477
	Batch  17 pq = [   37617,   38226] index = [     707538153,730632651] size =     23094498
  Task number: 67
  Buffer size: 11059200
  Buffer per thread: 2
  We computed 33111391 shell quartets total.
  Whereas there are 38531031 unique shell quartets.

  ==> DiskJK: Disk-Based J/K Matrices <==

    J tasked:                  Yes
    K tasked:                  Yes
    wK tasked:                  No
    Memory [MiB]:              375
    Schwarz Cutoff:          1E-12

    OpenMP threads:              1

  Minimum eigenvalue in the overlap matrix is 2.9450307820E-04.
  Using Symmetric Orthogonalization.

  SCF Guess: Superposition of Atomic Densities via on-the-fly atomic UHF.

  ==> Iterations <==

                        Total Energy        Delta E     RMS |[F,P]|

   @RHF iter SAD:  -538.32459878983150   -5.38325e+02   0.00000e+00
   @RHF iter   1:  -539.22858184620588   -9.03983e-01   2.28611e-03 DIIS
   @RHF iter   2:  -539.47801773224444   -2.49436e-01   9.23255e-04 DIIS
   @RHF iter   3:  -539.51380165292539   -3.57839e-02   2.15196e-04 DIIS
   @RHF iter   4:  -539.51692222907047   -3.12058e-03   5.20567e-05 DIIS
   @RHF iter   5:  -539.51705342839978   -1.31199e-04   1.60768e-05 DIIS
   @RHF iter   6:  -539.51706573004219   -1.23016e-05   4.40828e-06 DIIS
   @RHF iter   7:  -539.51706685436409   -1.12432e-06   1.07729e-06 DIIS
   @RHF iter   8:  -539.51706694940231   -9.50382e-08   3.36509e-07 DIIS
   @RHF iter   9:  -539.51706696515259   -1.57503e-08   1.62285e-07 DIIS
   @RHF iter  10:  -539.51706696904751   -3.89491e-09   7.75884e-08 DIIS
   @RHF iter  11:  -539.51706697053646   -1.48896e-09   2.87504e-08 DIIS
   @RHF iter  12:  -539.51706697073325   -1.96792e-10   1.15232e-08 DIIS
   @RHF iter  13:  -539.51706697075656   -2.33058e-11   4.14660e-09 DIIS
   @RHF iter  14:  -539.51706697075838   -1.81899e-12   1.29676e-09 DIIS
   @RHF iter  15:  -539.51706697075633    2.04636e-12   5.27241e-10 DIIS
   @RHF iter  16:  -539.51706697075883   -2.50111e-12   2.13988e-10 DIIS
   @RHF iter  17:  -539.51706697075690    1.93268e-12   1.14411e-10 DIIS
   @RHF iter  18:  -539.51706697075861   -1.70530e-12   4.03113e-11 DIIS
  Energy and wave function converged.

  ==> Post-Iterations <==

    Orbital Energies [Eh]
    ---------------------

    Doubly Occupied:

       1A    -11.242843     2A    -11.240499     3A    -11.237980
       4A    -11.237690     5A    -11.235885     6A    -11.234600
       7A    -11.232099     8A    -11.231646     9A    -11.230295
      10A    -11.228766    11A    -11.227475    12A    -11.227035
      13A    -11.226567    14A    -11.226389    15A     -1.152706
      16A     -1.145432    17A     -1.046344    18A     -1.038160
      19A     -1.012616    20A     -1.005069    21A     -0.932650
      22A     -0.926774    23A     -0.827266    24A     -0.819282
      25A     -0.798230    26A     -0.790214    27A     -0.693962
      28A     -0.684354    29A     -0.635530    30A     -0.631358
      31A     -0.625786    32A     -0.624910    33A     -0.584894
      34A     -0.578694    35A     -0.577676    36A     -0.573053
      37A     -0.563298    38A     -0.557378    39A     -0.537512
      40A     -0.531415    41A     -0.490910    42A     -0.487724
      43A     -0.483346    44A     -0.480703    45A     -0.477968
      46A     -0.475226    47A     -0.333368    48A     -0.327160
      49A     -0.322325    50A     -0.316986

    Virtual:

      51A      0.131115    52A      0.135275    53A      0.140957
      54A      0.144980    55A      0.176388    56A      0.191731
      57A      0.202459    58A      0.207093    59A      0.216911
      60A      0.230878    61A      0.240133    62A      0.253084
      63A      0.255339    64A      0.260920    65A      0.270520
      66A      0.280485    67A      0.285522    68A      0.291552
      69A      0.314618    70A      0.334396    71A      0.359476
      72A      0.370035    73A      0.375916    74A      0.397705
      75A      0.439201    76A      0.452846    77A      0.464636
      78A      0.473172    79A      0.479232    80A      0.484539
      81A      0.491315    82A      0.499269    83A      0.562862
      84A      0.567754    85A      0.595776    86A      0.603525
      87A      0.630912    88A      0.641864    89A      0.672269
      90A      0.677249    91A      0.681904    92A      0.684028
      93A      0.698861    94A      0.706506    95A      0.716340
      96A      0.723640    97A      0.732566    98A      0.735716
      99A      0.739184   100A      0.742219   101A      0.745988
     102A      0.748662   103A      0.753820   104A      0.760761
     105A      0.762881   106A      0.769490   107A      0.778689
     108A      0.784817   109A      0.795115   110A      0.833357
     111A      0.837319   112A      0.848068   113A      0.858042
     114A      0.860906   115A      0.871518   116A      0.871773
     117A      0.879008   118A      0.884320   119A      0.887578
     120A      0.894412   121A      0.897971   122A      0.907560
     123A      0.916758   124A      0.926168   125A      0.928496
     126A      0.931959   127A      0.938950   128A      0.943254
     129A      0.954710   130A      0.977391   131A      0.990703
     132A      1.002268   133A      1.020750   134A      1.042023
     135A      1.046933   136A      1.073516   137A      1.117292
     138A      1.131320   139A      1.133754   140A      1.142545
     141A      1.149977   142A      1.156977   143A      1.162780
     144A      1.179523   145A      1.186993   146A      1.213984
     147A      1.232129   148A      1.237802   149A      1.244592
     150A      1.249629   151A      1.255598   152A      1.264541
     153A      1.275527   154A      1.295382   155A      1.296396
     156A      1.307731   157A      1.314873   158A      1.321290
     159A      1.321843   160A      1.332518   161A      1.346731
     162A      1.366586   163A      1.413097   164A      1.435938
     165A      1.505520   166A      1.508972   167A      1.531613
     168A      1.537618   169A      1.557513   170A      1.566534
     171A      1.599269   172A      1.615386   173A      1.680918
     174A      1.682160   175A      1.698127   176A      1.706159
     177A      1.727628   178A      1.737545   179A      1.748222
     180A      1.757070   181A      1.761039   182A      1.771590
     183A      1.786844   184A      1.792944   185A      1.807767
     186A      1.813291   187A      1.850892   188A      1.860625
     189A      1.881912   190A      1.891487   191A      1.895584
     192A      1.899852   193A      1.908969   194A      1.910853
     195A      1.911357   196A      1.921807   197A      1.925578
     198A      1.930738   199A      1.941029   200A      1.944927
     201A      1.951452   202A      1.960628   203A      1.970884
     204A      1.973726   205A      1.985908   206A      1.994511
     207A      2.000176   208A      2.007476   209A      2.029633
     210A      2.048281   211A      2.059277   212A      2.066089
     213A      2.070926   214A      2.075846   215A      2.106506
     216A      2.115618   217A      2.139126   218A      2.145540
     219A      2.153138   220A      2.156557   221A      2.160192
     222A      2.166361   223A      2.171870   224A      2.179238
     225A      2.184104   226A      2.213695   227A      2.248246
     228A      2.264528   229A      2.271731   230A      2.282484
     231A      2.292174   232A      2.298782   233A      2.300510
     234A      2.312531   235A      2.314247   236A      2.328169
     237A      2.344969   238A      2.352286   239A      2.466259
     240A      2.471897   241A      2.474104   242A      2.484289
     243A      2.493911   244A      2.502390   245A      2.534887
     246A      2.551015   247A      2.617700   248A      2.621773
     249A      2.735763   250A      2.738638   251A      2.749100
     252A      2.762621   253A      2.766566   254A      2.774906
     255A      2.786570   256A      2.792596   257A      2.807570
     258A      2.840162   259A      2.849234   260A      2.858557
     261A      2.868799   262A      2.874004   263A      2.978521
     264A      2.982915   265A      3.002862   266A      3.009805
     267A      3.020758   268A      3.034452   269A      3.150212
     270A      3.154502   271A      3.197902   272A      3.203876
     273A      3.286305   274A      3.305554   275A      3.956478
     276A      3.961046

    Final Occupation by Irrep:
              A
    DOCC [    50 ]

  @RHF Final Energy:  -539.51706697075861

   => Energetics <=

    Nuclear Repulsion Energy =            759.3706291030991906
    One-Electron Energy =               -2235.0752988204098983
    Two-Electron Energy =                 936.1876027465521020
    Total Energy =                       -539.5170669707586057

Computation Completed

Properties will be evaluated at   0.000000,   0.000000,   0.000000 [a0]

Properties computed using the SCF density matrix

  Nuclear Dipole Moment: [e a0]
     X:     0.2467      Y:    -1.2897      Z:     1.1838

  Electronic Dipole Moment: [e a0]
     X:    -0.0930      Y:     1.1930      Z:    -1.1308

  Dipole Moment: [e a0]
     X:     0.1536      Y:    -0.0967      Z:     0.0530     Total:     0.1891

  Dipole Moment: [D]
     X:     0.3905      Y:    -0.2458      Z:     0.1347     Total:     0.4807

*** tstop() called on ds3 at Sun Apr 26 21:37:31 2020
Module time:
	user time   =     278.39 seconds =       4.64 minutes
	system time =     113.11 seconds =       1.89 minutes
	total time  =        474 seconds =       7.90 minutes
Total time:
	user time   =     278.39 seconds =       4.64 minutes
	system time =     113.11 seconds =       1.89 minutes
	total time  =        474 seconds =       7.90 minutes
                                     G D M A

                                 by Anthony Stone

                           version 2.2.06, 22 June 2011

               Distributed Multipoles from Gaussian wavefunctions

Starting at 21:37:31 on 26 Apr 2020

Using SCF density matrix from file ./SSI/SSI-051PHE-175PHE-1-dimer.test.18169.fchk

                         Distributed Multipole Analysis

Standard DMA

Positions and radii in angstrom
Multipole moments in atomic units, ea_0^k for rank k

C          x =  4.835207  y = -1.115604  z =  0.966924 angstrom
           Maximum rank =  0   Radius =  0.650 angstrom
                   Q00  =  -0.197604

C          x =  0.896207  y = -1.791604  z = -0.643076 angstrom
           Maximum rank =  0   Radius =  0.650 angstrom
                   Q00  =  -0.091047

C          x =  1.821207  y = -1.022604  z = -1.356076 angstrom
           Maximum rank =  0   Radius =  0.650 angstrom
                   Q00  =  -0.093139

C          x =  1.254207  y = -2.330604  z =  0.593924 angstrom
           Maximum rank =  0   Radius =  0.650 angstrom
                   Q00  =  -0.075457

C          x =  3.100207  y = -0.798604  z = -0.828076 angstrom
           Maximum rank =  0   Radius =  0.650 angstrom
                   Q00  =  -0.061012

C          x =  2.529207  y = -2.102604  z =  1.113924 angstrom
           Maximum rank =  0   Radius =  0.650 angstrom
                   Q00  =  -0.005336

C          x =  3.460207  y = -1.340604  z =  0.407924 angstrom
           Maximum rank =  0   Radius =  0.650 angstrom
                   Q00  =  -0.097573

H          x = -0.087793  y = -1.973604  z = -1.053076 angstrom
           Maximum rank =  0   Radius =  0.325 angstrom
                   Q00  =   0.061748

H          x =  1.548207  y = -0.599604  z = -2.313076 angstrom
           Maximum rank =  0   Radius =  0.325 angstrom
                   Q00  =   0.069660

H          x =  0.576207  y = -2.931604  z =  1.170924 angstrom
           Maximum rank =  0   Radius =  0.325 angstrom
                   Q00  =   0.066970

H          x =  3.812207  y = -0.203604  z = -1.380076 angstrom
           Maximum rank =  0   Radius =  0.325 angstrom
                   Q00  =   0.058707

H          x =  2.784207  y = -2.502604  z =  2.081924 angstrom
           Maximum rank =  0   Radius =  0.325 angstrom
                   Q00  =   0.059212

H          x =  4.812207  y = -1.226604  z =  2.052924 angstrom
           Maximum rank =  0   Radius =  0.325 angstrom
                   Q00  =   0.098608

H          x =  5.119207  y = -0.088604  z =  0.743924 angstrom
           Maximum rank =  0   Radius =  0.325 angstrom
                   Q00  =   0.096840

H          x =  5.605987  y = -1.774936  z =  0.541271 angstrom
           Maximum rank =  0   Radius =  0.325 angstrom
                   Q00  =   0.105919

C          x = -4.629793  y =  0.116396  z = -0.017076 angstrom
           Maximum rank =  0   Radius =  0.650 angstrom
                   Q00  =  -0.205763

C          x = -2.133793  y =  0.382396  z = -0.315076 angstrom
           Maximum rank =  0   Radius =  0.650 angstrom
                   Q00  =  -0.089625

C          x = -3.369793  y =  0.950396  z = -0.005076 angstrom
           Maximum rank =  0   Radius =  0.650 angstrom
                   Q00  =  -0.105409

C          x = -0.985793  y =  1.177396  z = -0.371076 angstrom
           Maximum rank =  0   Radius =  0.650 angstrom
                   Q00  =  -0.055869

C          x = -1.064793  y =  2.550396  z = -0.114076 angstrom
           Maximum rank =  0   Radius =  0.650 angstrom
                   Q00  =  -0.086615

C          x = -3.437793  y =  2.320396  z =  0.258924 angstrom
           Maximum rank =  0   Radius =  0.650 angstrom
                   Q00  =   0.007670

C          x = -2.296793  y =  3.120396  z =  0.201924 angstrom
           Maximum rank =  0   Radius =  0.650 angstrom
                   Q00  =  -0.069443

H          x = -2.063793  y = -0.674604  z = -0.526076 angstrom
           Maximum rank =  0   Radius =  0.325 angstrom
                   Q00  =   0.047450

H          x = -0.030793  y =  0.741396  z = -0.617076 angstrom
           Maximum rank =  0   Radius =  0.325 angstrom
                   Q00  =   0.084282

H          x = -4.523793  y = -0.672604  z = -0.762076 angstrom
           Maximum rank =  0   Radius =  0.325 angstrom
                   Q00  =   0.096819

H          x = -5.454793  y =  0.754396  z = -0.339076 angstrom
           Maximum rank =  0   Radius =  0.325 angstrom
                   Q00  =   0.096929

H          x = -0.176793  y =  3.167396  z = -0.165076 angstrom
           Maximum rank =  0   Radius =  0.325 angstrom
                   Q00  =   0.059107

H          x = -4.387793  y =  2.770396  z =  0.510924 angstrom
           Maximum rank =  0   Radius =  0.325 angstrom
                   Q00  =   0.055528

H          x = -2.378793  y =  4.184396  z =  0.369924 angstrom
           Maximum rank =  0   Radius =  0.325 angstrom
                   Q00  =   0.063816

H          x = -4.890783  y = -0.345363  z =  0.946595 angstrom
           Maximum rank =  0   Radius =  0.325 angstrom
                   Q00  =   0.104627

Total multipoles referred to origin at
           x =   0.000000,  y =    0.000000,  z =    0.000000 angstrom
                   Q00  =  -0.000000

Finished at 21:37:31 on 26 Apr 2020

  DMA results are available in the Python driver through the
	  variable('DMA DISTRIBUTED MULTIPOLES')
  and
	  variable('DMA TOTAL MULTIPOLES')
  commands.

    Psi4 stopped on: Sunday, 26 April 2020 09:37PM
    Psi4 wall time for execution: 0:07:55.00

*** Psi4 exiting successfully. Buy a developer a beer!
