                               Psi4 1.3.2 release

  ==> Input File <==

--------------------------------------------------------------------------
import numpy as np
set {scf_type pk
basis cc-pvdz
d_convergence 10
gdma_switch   0
gdma_limit    0
gdma_origin   [ 0.0,  0.0,  0.0 ]
}
molecule test {
    units Angstrom
    -1 1
    --
    -1 1
    C                1.031976932330282    -4.109657625835333    -1.723105104147168
    C               -0.596023067669718    -0.228657625835333    -0.786105104147168
    C               -1.233023067669718    -1.058657625835333    -1.697105104147168
    C                0.564976932330282    -0.656657625835333    -0.145105104147168
    C               -0.693023067669718    -2.298657625835333    -1.994105104147168
    C                1.096976932330281    -1.910657625835333    -0.446105104147168
    C                0.461976932330282    -2.752657625835333    -1.365105104147168
    O               -1.132023067669718     0.995342374164667    -0.551105104147168
    H               -2.045023067669718     1.056342374164667    -0.832105104147168
    H               -2.182023067669718    -0.828657625835333    -2.134105104147168
    H                1.034976932330282    -0.016657625835333     0.585894895852832
    H               -1.197023067669718    -2.928657625835333    -2.698105104147168
    H                1.980976932330282    -2.249657625835333     0.072894895852832
    H                0.228976932330282    -4.844657625835333    -1.678105104147168
    H                1.785976932330282    -4.392657625835333    -0.988105104147168
    H                1.478564932330282    -4.139527625835333    -2.727925104147168
    C                0.774976932330282     2.464342374164668     3.252894895852832
    C                0.120976932330282     2.700342374164667     1.918894895852832
    O               -1.092023067669719     2.985342374164667     1.858894895852832
    O                0.830976932330282     2.615342374164667     0.910894895852832
    H                1.838976932330282     2.340342374164667     3.106894895852832
    H                0.410976932330282     1.524342374164667     3.657894895852832
    H                0.558685932330282     3.275252374164667     3.963974895852832

}
e, wfn = energy('scf', return_wfn=True)
gdma(wfn)
dmavals = variable('DMA DISTRIBUTED MULTIPOLES')
charges = np.array(dmavals)
print(charges)
np.save('SSI-047TYR-053ASP-1-dimer.npy', np.array(charges))--------------------------------------------------------------------------

*** tstart() called on ds3
*** at Mon Apr 27 16:32:16 2020

   => Loading Basis Set <=

    Name: CC-PVDZ
    Role: ORBITAL
    Keyword: BASIS
    atoms 1-7, 17-18  entry C          line   138 file /theoryfs2/ds/metcalf/miniconda2/envs/tf2gpu/share/psi4/basis/cc-pvdz.gbs
    atoms 8, 19-20    entry O          line   198 file /theoryfs2/ds/metcalf/miniconda2/envs/tf2gpu/share/psi4/basis/cc-pvdz.gbs
    atoms 9-16, 21-23 entry H          line    22 file /theoryfs2/ds/metcalf/miniconda2/envs/tf2gpu/share/psi4/basis/cc-pvdz.gbs

         ---------------------------------------------------------
                                   SCF
               by Justin Turney, Rob Parrish, Andy Simmonett
                          and Daniel G. A. Smith
                              RHF Reference
                        1 Threads,    500 MiB Core
         ---------------------------------------------------------

  ==> Geometry <==

    Molecular point group: c1
    Full point group: C1

    Geometry (in Angstrom), charge = -1, multiplicity = 1:

       Center              X                  Y                   Z               Mass
    ------------   -----------------  -----------------  -----------------  -----------------
         C            1.031976932330    -4.109657625835    -1.723105104147    12.000000000000
         C           -0.596023067670    -0.228657625835    -0.786105104147    12.000000000000
         C           -1.233023067670    -1.058657625835    -1.697105104147    12.000000000000
         C            0.564976932330    -0.656657625835    -0.145105104147    12.000000000000
         C           -0.693023067670    -2.298657625835    -1.994105104147    12.000000000000
         C            1.096976932330    -1.910657625835    -0.446105104147    12.000000000000
         C            0.461976932330    -2.752657625835    -1.365105104147    12.000000000000
         O           -1.132023067670     0.995342374165    -0.551105104147    15.994914619570
         H           -2.045023067670     1.056342374165    -0.832105104147     1.007825032230
         H           -2.182023067670    -0.828657625835    -2.134105104147     1.007825032230
         H            1.034976932330    -0.016657625835     0.585894895853     1.007825032230
         H           -1.197023067670    -2.928657625835    -2.698105104147     1.007825032230
         H            1.980976932330    -2.249657625835     0.072894895853     1.007825032230
         H            0.228976932330    -4.844657625835    -1.678105104147     1.007825032230
         H            1.785976932330    -4.392657625835    -0.988105104147     1.007825032230
         H            1.478564932330    -4.139527625835    -2.727925104147     1.007825032230
         C            0.774976932330     2.464342374165     3.252894895853    12.000000000000
         C            0.120976932330     2.700342374165     1.918894895853    12.000000000000
         O           -1.092023067670     2.985342374165     1.858894895853    15.994914619570
         O            0.830976932330     2.615342374165     0.910894895853    15.994914619570
         H            1.838976932330     2.340342374165     3.106894895853     1.007825032230
         H            0.410976932330     1.524342374165     3.657894895853     1.007825032230
         H            0.558685932330     3.275252374165     3.963974895853     1.007825032230

  Running in c1 symmetry.

  Rotational constants: A =      0.07079  B =      0.01257  C =      0.01114 [cm^-1]
  Rotational constants: A =   2122.33787  B =    376.95612  C =    334.06188 [MHz]
  Nuclear repulsion =  644.384530699039260

  Charge       = -1
  Multiplicity = 1
  Electrons    = 90
  Nalpha       = 45
  Nbeta        = 45

  ==> Algorithm <==

  SCF Algorithm Type is PK.
  DIIS enabled.
  MOM disabled.
  Fractional occupation disabled.
  Guess Type is SAD.
  Energy threshold   = 1.00e-06
  Density threshold  = 1.00e-10
  Integral threshold = 0.00e+00

  ==> Primary Basis <==

  Basis Set: CC-PVDZ
    Blend: CC-PVDZ
    Number of shells: 105
    Number of basis function: 223
    Number of Cartesian functions: 235
    Spherical Harmonics?: true
    Max angular momentum: 2

  ==> Pre-Iterations <==

   -------------------------------------------------------
    Irrep   Nso     Nmo     Nalpha   Nbeta   Ndocc  Nsocc
   -------------------------------------------------------
     A        223     223       0       0       0       0
   -------------------------------------------------------
    Total     223     223      45      45      45       0
   -------------------------------------------------------

  ==> Integral Setup <==

  Using integral reordering PK algorithm.
  Sizing the integral batches needed.
  Building batch lookup table.
   Calculation information:
      Number of atoms:                  23
      Number of AO shells:             105
      Number of primitives:            319
      Number of atomic orbitals:       235
      Number of basis functions:       223

      Integral cutoff                 1.00e-12
      Number of threads:                 1

	Batch   1 pq = [       0,    9405] index = [             0,44231715] size =     44231715
	Batch   2 pq = [    9405,   13301] index = [      44231715,88464951] size =     44233236
	Batch   3 pq = [   13301,   16290] index = [      88464951,132690195] size =     44225244
	Batch   4 pq = [   16290,   18810] index = [     132690195,176917455] size =     44227260
	Batch   5 pq = [   18810,   21030] index = [     176917455,221140965] size =     44223510
	Batch   6 pq = [   21030,   23037] index = [     221140965,265363203] size =     44222238
	Batch   7 pq = [   23037,   24976] index = [     265363203,311912776] size =     46549573
  Task number: 29
  Buffer size: 11059200
  Buffer per thread: 2
  We computed 12460332 shell quartets total.
  Whereas there are 15487395 unique shell quartets.

  ==> DiskJK: Disk-Based J/K Matrices <==

    J tasked:                  Yes
    K tasked:                  Yes
    wK tasked:                  No
    Memory [MiB]:              375
    Schwarz Cutoff:          1E-12

    OpenMP threads:              1

  Minimum eigenvalue in the overlap matrix is 3.2162743438E-04.
  Using Symmetric Orthogonalization.

  SCF Guess: Superposition of Atomic Densities via on-the-fly atomic UHF.

  ==> Iterations <==

                        Total Energy        Delta E     RMS |[F,P]|

   @RHF iter SAD:  -570.28280474385826   -5.70283e+02   0.00000e+00
   @RHF iter   1:  -571.48438063013828   -1.20158e+00   3.74556e-03 DIIS
   @RHF iter   2:  -571.77757698677010   -2.93196e-01   1.96924e-03 DIIS
   @RHF iter   3:  -571.84914838210739   -7.15714e-02   3.40560e-04 DIIS
   @RHF iter   4:  -571.85295538742901   -3.80701e-03   1.24480e-04 DIIS
   @RHF iter   5:  -571.85346965082601   -5.14263e-04   2.03441e-05 DIIS
   @RHF iter   6:  -571.85349065514868   -2.10043e-05   6.71186e-06 DIIS
   @RHF iter   7:  -571.85349291427246   -2.25912e-06   2.98415e-06 DIIS
   @RHF iter   8:  -571.85349335071226   -4.36440e-07   1.00466e-06 DIIS
   @RHF iter   9:  -571.85349343511120   -8.43989e-08   4.12434e-07 DIIS
   @RHF iter  10:  -571.85349345200473   -1.68935e-08   1.79019e-07 DIIS
   @RHF iter  11:  -571.85349345697841   -4.97369e-09   6.71053e-08 DIIS
   @RHF iter  12:  -571.85349345769760   -7.19183e-10   3.21185e-08 DIIS
   @RHF iter  13:  -571.85349345778809   -9.04947e-11   9.96226e-09 DIIS
   @RHF iter  14:  -571.85349345779343   -5.34328e-12   3.62343e-09 DIIS
   @RHF iter  15:  -571.85349345779366   -2.27374e-13   1.39538e-09 DIIS
   @RHF iter  16:  -571.85349345779332    3.41061e-13   6.27921e-10 DIIS
   @RHF iter  17:  -571.85349345779480   -1.47793e-12   2.81695e-10 DIIS
   @RHF iter  18:  -571.85349345779559   -7.95808e-13   1.09753e-10 DIIS
   @RHF iter  19:  -571.85349345779355    2.04636e-12   4.31811e-11 DIIS
  Energy and wave function converged.

  ==> Post-Iterations <==

    Orbital Energies [Eh]
    ---------------------

    Doubly Occupied:

       1A    -20.440853     2A    -20.249818     3A    -20.243481
       4A    -11.182198     5A    -11.144899     6A    -11.132872
       7A    -11.132458     8A    -11.130736     9A    -11.121668
      10A    -11.111709    11A    -11.102135    12A    -11.042975
      13A     -1.264482    14A     -1.145973    15A     -1.044381
      16A     -1.027818    17A     -0.933666    18A     -0.910688
      19A     -0.826798    20A     -0.796142    21A     -0.732949
      22A     -0.693528    23A     -0.614557    24A     -0.555441
      25A     -0.534863    26A     -0.503013    27A     -0.493883
      28A     -0.488083    29A     -0.478618    30A     -0.457765
      31A     -0.451853    32A     -0.414054    33A     -0.410426
      34A     -0.404718    35A     -0.396080    36A     -0.394534
      37A     -0.368969    38A     -0.354707    39A     -0.335166
      40A     -0.295438    41A     -0.232198    42A     -0.188990
      43A     -0.174542    44A     -0.160035    45A     -0.150273

    Virtual:

      46A      0.238050    47A      0.260370    48A      0.269729
      49A      0.291599    50A      0.313261    51A      0.322483
      52A      0.346661    53A      0.353078    54A      0.368960
      55A      0.374461    56A      0.398861    57A      0.420530
      58A      0.444723    59A      0.460610    60A      0.478767
      61A      0.498954    62A      0.547990    63A      0.563267
      64A      0.579554    65A      0.592642    66A      0.598787
      67A      0.617724    68A      0.709109    69A      0.711911
      70A      0.720385    71A      0.739740    72A      0.762320
      73A      0.771684    74A      0.795707    75A      0.801997
      76A      0.816829    77A      0.832433    78A      0.833807
      79A      0.840561    80A      0.845801    81A      0.861946
      82A      0.874244    83A      0.889477    84A      0.892372
      85A      0.902855    86A      0.926107    87A      0.952387
      88A      0.957820    89A      0.973046    90A      0.979727
      91A      0.982539    92A      0.996760    93A      1.005541
      94A      1.018726    95A      1.025774    96A      1.029723
      97A      1.039537    98A      1.042503    99A      1.049059
     100A      1.060079   101A      1.065688   102A      1.090957
     103A      1.134894   104A      1.153895   105A      1.157478
     106A      1.176694   107A      1.222466   108A      1.251405
     109A      1.255429   110A      1.268296   111A      1.289146
     112A      1.303319   113A      1.337176   114A      1.344919
     115A      1.347023   116A      1.359306   117A      1.387374
     118A      1.397904   119A      1.408705   120A      1.417589
     121A      1.423861   122A      1.447961   123A      1.472740
     124A      1.489832   125A      1.514621   126A      1.544434
     127A      1.579274   128A      1.583216   129A      1.600435
     130A      1.623272   131A      1.635523   132A      1.640271
     133A      1.650174   134A      1.705596   135A      1.737245
     136A      1.754626   137A      1.765623   138A      1.778892
     139A      1.788800   140A      1.810142   141A      1.845294
     142A      1.846489   143A      1.852703   144A      1.868759
     145A      1.881161   146A      1.907629   147A      1.914480
     148A      1.969946   149A      1.988364   150A      2.001786
     151A      2.021306   152A      2.023444   153A      2.043095
     154A      2.049234   155A      2.060892   156A      2.069913
     157A      2.078723   158A      2.100235   159A      2.103571
     160A      2.122203   161A      2.128432   162A      2.139652
     163A      2.163506   164A      2.172039   165A      2.178434
     166A      2.187842   167A      2.224513   168A      2.234030
     169A      2.277385   170A      2.291966   171A      2.299751
     172A      2.313820   173A      2.327995   174A      2.356448
     175A      2.367209   176A      2.384738   177A      2.412129
     178A      2.446690   179A      2.453581   180A      2.471012
     181A      2.500337   182A      2.510289   183A      2.578266
     184A      2.584717   185A      2.597538   186A      2.617485
     187A      2.643465   188A      2.666959   189A      2.685811
     190A      2.703312   191A      2.746117   192A      2.766656
     193A      2.810140   194A      2.844145   195A      2.857818
     196A      2.900702   197A      2.928899   198A      2.930760
     199A      2.946355   200A      2.969716   201A      3.005133
     202A      3.016053   203A      3.088006   204A      3.101938
     205A      3.198660   206A      3.225849   207A      3.254965
     208A      3.293694   209A      3.309874   210A      3.380794
     211A      3.394523   212A      3.411321   213A      3.507393
     214A      3.662505   215A      3.736877   216A      3.801030
     217A      3.817816   218A      3.853231   219A      4.093529
     220A      4.106860   221A      4.123025   222A      4.228184
     223A      4.327712

    Final Occupation by Irrep:
              A
    DOCC [    45 ]

  @RHF Final Energy:  -571.85349345779355

   => Energetics <=

    Nuclear Repulsion Energy =            644.3845306990392601
    One-Electron Energy =               -2073.9351812653094385
    Two-Electron Energy =                 857.6971571084766310
    Total Energy =                       -571.8534934577935473

Computation Completed

Properties will be evaluated at   0.000000,   0.000000,   0.000000 [a0]

Properties computed using the SCF density matrix

  Nuclear Dipole Moment: [e a0]
     X:     3.6439      Y:   -10.4719      Z:     0.3192

  Electronic Dipole Moment: [e a0]
     X:    -3.7644      Y:     5.7341      Z:    -2.5114

  Dipole Moment: [e a0]
     X:    -0.1205      Y:    -4.7378      Z:    -2.1922     Total:     5.2218

  Dipole Moment: [D]
     X:    -0.3064      Y:   -12.0424      Z:    -5.5719     Total:    13.2725

*** tstop() called on ds3 at Mon Apr 27 16:34:58 2020
Module time:
	user time   =     116.59 seconds =       1.94 minutes
	system time =      53.59 seconds =       0.89 minutes
	total time  =        162 seconds =       2.70 minutes
Total time:
	user time   =     116.59 seconds =       1.94 minutes
	system time =      53.59 seconds =       0.89 minutes
	total time  =        162 seconds =       2.70 minutes
                                     G D M A

                                 by Anthony Stone

                           version 2.2.06, 22 June 2011

               Distributed Multipoles from Gaussian wavefunctions

Starting at 16:34:58 on 27 Apr 2020

Using SCF density matrix from file ./SSI/SSI-047TYR-053ASP-1-dimer.test.27128.fchk

                         Distributed Multipole Analysis

Standard DMA

Positions and radii in angstrom
Multipole moments in atomic units, ea_0^k for rank k

C          x =  1.031977  y = -4.109658  z = -1.723105 angstrom
           Maximum rank =  0   Radius =  0.650 angstrom
                   Q00  =  -0.200513

C          x = -0.596023  y = -0.228658  z = -0.786105 angstrom
           Maximum rank =  0   Radius =  0.650 angstrom
                   Q00  =   0.374761

C          x = -1.233023  y = -1.058658  z = -1.697105 angstrom
           Maximum rank =  0   Radius =  0.650 angstrom
                   Q00  =  -0.186593

C          x =  0.564977  y = -0.656658  z = -0.145105 angstrom
           Maximum rank =  0   Radius =  0.650 angstrom
                   Q00  =  -0.087546

C          x = -0.693023  y = -2.298658  z = -1.994105 angstrom
           Maximum rank =  0   Radius =  0.650 angstrom
                   Q00  =   0.028457

C          x =  1.096977  y = -1.910658  z = -0.446105 angstrom
           Maximum rank =  0   Radius =  0.650 angstrom
                   Q00  =  -0.055675

C          x =  0.461977  y = -2.752658  z = -1.365105 angstrom
           Maximum rank =  0   Radius =  0.650 angstrom
                   Q00  =  -0.151130

O          x = -1.132023  y =  0.995342  z = -0.551105 angstrom
           Maximum rank =  0   Radius =  0.650 angstrom
                   Q00  =  -0.592702

H          x = -2.045023  y =  1.056342  z = -0.832105 angstrom
           Maximum rank =  0   Radius =  0.325 angstrom
                   Q00  =   0.380592

H          x = -2.182023  y = -0.828658  z = -2.134105 angstrom
           Maximum rank =  0   Radius =  0.325 angstrom
                   Q00  =   0.052767

H          x =  1.034977  y = -0.016658  z =  0.585895 angstrom
           Maximum rank =  0   Radius =  0.325 angstrom
                   Q00  =   0.092018

H          x = -1.197023  y = -2.928658  z = -2.698105 angstrom
           Maximum rank =  0   Radius =  0.325 angstrom
                   Q00  =   0.036738

H          x =  1.980977  y = -2.249658  z =  0.072895 angstrom
           Maximum rank =  0   Radius =  0.325 angstrom
                   Q00  =   0.044316

H          x =  0.228977  y = -4.844658  z = -1.678105 angstrom
           Maximum rank =  0   Radius =  0.325 angstrom
                   Q00  =   0.079241

H          x =  1.785977  y = -4.392658  z = -0.988105 angstrom
           Maximum rank =  0   Radius =  0.325 angstrom
                   Q00  =   0.087944

H          x =  1.478565  y = -4.139528  z = -2.727925 angstrom
           Maximum rank =  0   Radius =  0.325 angstrom
                   Q00  =   0.084160

C          x =  0.774977  y =  2.464342  z =  3.252895 angstrom
           Maximum rank =  0   Radius =  0.650 angstrom
                   Q00  =  -0.273436

C          x =  0.120977  y =  2.700342  z =  1.918895 angstrom
           Maximum rank =  0   Radius =  0.650 angstrom
                   Q00  =   0.975277

O          x = -1.092023  y =  2.985342  z =  1.858895 angstrom
           Maximum rank =  0   Radius =  0.650 angstrom
                   Q00  =  -0.941076

O          x =  0.830977  y =  2.615342  z =  0.910895 angstrom
           Maximum rank =  0   Radius =  0.650 angstrom
                   Q00  =  -0.920554

H          x =  1.838977  y =  2.340342  z =  3.106895 angstrom
           Maximum rank =  0   Radius =  0.325 angstrom
                   Q00  =   0.048631

H          x =  0.410977  y =  1.524342  z =  3.657895 angstrom
           Maximum rank =  0   Radius =  0.325 angstrom
                   Q00  =   0.063736

H          x =  0.558686  y =  3.275252  z =  3.963975 angstrom
           Maximum rank =  0   Radius =  0.325 angstrom
                   Q00  =   0.060586

Total multipoles referred to origin at
           x =   0.000000,  y =    0.000000,  z =    0.000000 angstrom
                   Q00  =  -1.000000

Finished at 16:34:58 on 27 Apr 2020

  DMA results are available in the Python driver through the
	  variable('DMA DISTRIBUTED MULTIPOLES')
  and
	  variable('DMA TOTAL MULTIPOLES')
  commands.

    Psi4 stopped on: Monday, 27 April 2020 04:34PM
    Psi4 wall time for execution: 0:02:42.15

*** Psi4 exiting successfully. Buy a developer a beer!
