                               Psi4 1.3.2 release

  ==> Input File <==

--------------------------------------------------------------------------
import numpy as np
set {scf_type pk
basis cc-pvdz
d_convergence 10
gdma_switch   0
gdma_limit    0
gdma_origin   [ 0.0,  0.0,  0.0 ]
}
molecule test {
    units Angstrom
    0 1
    --
    0 1
    C               -0.352685534700166     1.131138170682368    -1.461804787249851
    C               -0.850685534700166     2.012138170682368    -2.628804787249850
    H                0.359314465299834     1.683138170682368    -0.848804787249851
    H               -1.196685534700166     0.842138170682368    -0.835804787249851
    H                0.124314465299834     0.239138170682368    -1.865804787249851
    H               -1.208685534700166     2.957138170682368    -2.224804787249850
    H               -0.040955534700166     2.191359170682369    -3.351446787249850
    H               -1.685675534700166     1.514188170682368    -3.143425787249850
    C                0.828314465299834    -0.719861829317632     1.621195212750149
    C                1.026314465299834    -1.641861829317632     0.410195212750149
    C               -0.591685534700166    -0.831861829317632     2.168195212750149
    H                1.533314465299834    -0.977861829317632     2.411195212750150
    H                1.007314465299834     0.313138170682368     1.319195212750149
    H                0.302314465299834    -1.370861829317632    -0.355804787249851
    H                0.823314465299834    -2.674861829317631     0.696195212750149
    H               -0.714685534700166    -0.109861829317632     2.978195212750149
    H               -1.295685534700166    -0.580861829317632     1.374195212750149
    H                2.039784465299834    -1.581484829317632    -0.013162787249851
    H               -0.756615534700166    -1.845421829317632     2.562523912750149

}
e, wfn = energy('scf', return_wfn=True)
gdma(wfn)
dmavals = variable('DMA DISTRIBUTED MULTIPOLES')
charges = np.array(dmavals)
print(charges)
np.save('SSI-007LEU-017ARG-1-dimer.npy', np.array(charges))--------------------------------------------------------------------------

*** tstart() called on ds3
*** at Mon Apr 27 23:44:16 2020

   => Loading Basis Set <=

    Name: CC-PVDZ
    Role: ORBITAL
    Keyword: BASIS
    atoms 1-2, 9-11  entry C          line   138 file /theoryfs2/ds/metcalf/miniconda2/envs/tf2gpu/share/psi4/basis/cc-pvdz.gbs
    atoms 3-8, 12-19 entry H          line    22 file /theoryfs2/ds/metcalf/miniconda2/envs/tf2gpu/share/psi4/basis/cc-pvdz.gbs

         ---------------------------------------------------------
                                   SCF
               by Justin Turney, Rob Parrish, Andy Simmonett
                          and Daniel G. A. Smith
                              RHF Reference
                        1 Threads,    500 MiB Core
         ---------------------------------------------------------

  ==> Geometry <==

    Molecular point group: c1
    Full point group: C1

    Geometry (in Angstrom), charge = 0, multiplicity = 1:

       Center              X                  Y                   Z               Mass
    ------------   -----------------  -----------------  -----------------  -----------------
         C           -0.352685534700     1.131138170682    -1.461804787250    12.000000000000
         C           -0.850685534700     2.012138170682    -2.628804787250    12.000000000000
         H            0.359314465300     1.683138170682    -0.848804787250     1.007825032230
         H           -1.196685534700     0.842138170682    -0.835804787250     1.007825032230
         H            0.124314465300     0.239138170682    -1.865804787250     1.007825032230
         H           -1.208685534700     2.957138170682    -2.224804787250     1.007825032230
         H           -0.040955534700     2.191359170682    -3.351446787250     1.007825032230
         H           -1.685675534700     1.514188170682    -3.143425787250     1.007825032230
         C            0.828314465300    -0.719861829318     1.621195212750    12.000000000000
         C            1.026314465300    -1.641861829318     0.410195212750    12.000000000000
         C           -0.591685534700    -0.831861829318     2.168195212750    12.000000000000
         H            1.533314465300    -0.977861829318     2.411195212750     1.007825032230
         H            1.007314465300     0.313138170682     1.319195212750     1.007825032230
         H            0.302314465300    -1.370861829318    -0.355804787250     1.007825032230
         H            0.823314465300    -2.674861829318     0.696195212750     1.007825032230
         H           -0.714685534700    -0.109861829318     2.978195212750     1.007825032230
         H           -1.295685534700    -0.580861829318     1.374195212750     1.007825032230
         H            2.039784465300    -1.581484829318    -0.013162787250     1.007825032230
         H           -0.756615534700    -1.845421829318     2.562523912750     1.007825032230

  Running in c1 symmetry.

  Rotational constants: A =      0.23767  B =      0.04220  C =      0.03841 [cm^-1]
  Rotational constants: A =   7125.04841  B =   1265.07588  C =   1151.60868 [MHz]
  Nuclear repulsion =  180.299398544941454

  Charge       = 0
  Multiplicity = 1
  Electrons    = 44
  Nalpha       = 22
  Nbeta        = 22

  ==> Algorithm <==

  SCF Algorithm Type is PK.
  DIIS enabled.
  MOM disabled.
  Fractional occupation disabled.
  Guess Type is SAD.
  Energy threshold   = 1.00e-06
  Density threshold  = 1.00e-10
  Integral threshold = 0.00e+00

  ==> Primary Basis <==

  Basis Set: CC-PVDZ
    Blend: CC-PVDZ
    Number of shells: 72
    Number of basis function: 140
    Number of Cartesian functions: 145
    Spherical Harmonics?: true
    Max angular momentum: 2

  ==> Pre-Iterations <==

   -------------------------------------------------------
    Irrep   Nso     Nmo     Nalpha   Nbeta   Ndocc  Nsocc
   -------------------------------------------------------
     A        140     140       0       0       0       0
   -------------------------------------------------------
    Total     140     140      22      22      22       0
   -------------------------------------------------------

  ==> Integral Setup <==

  Using integral reordering PK algorithm.
  Sizing the integral batches needed.
  Building batch lookup table.
   Calculation information:
      Number of atoms:                  19
      Number of AO shells:              72
      Number of primitives:            180
      Number of atomic orbitals:       145
      Number of basis functions:       140

      Integral cutoff                 1.00e-12
      Number of threads:                 1

	Batch   1 pq = [       0,    9405] index = [             0,44231715] size =     44231715
	Batch   2 pq = [    9405,    9870] index = [      44231715,48713385] size =      4481670
  Task number: 5
  Buffer size: 11059200
  Buffer per thread: 2
  We computed 2970970 shell quartets total.
  Whereas there are 3454506 unique shell quartets.

  ==> DiskJK: Disk-Based J/K Matrices <==

    J tasked:                  Yes
    K tasked:                  Yes
    wK tasked:                  No
    Memory [MiB]:              375
    Schwarz Cutoff:          1E-12

    OpenMP threads:              1

  Minimum eigenvalue in the overlap matrix is 5.5423886460E-03.
  Using Symmetric Orthogonalization.

  SCF Guess: Superposition of Atomic Densities via on-the-fly atomic UHF.

  ==> Iterations <==

                        Total Energy        Delta E     RMS |[F,P]|

   @RHF iter SAD:  -196.36056289177839   -1.96361e+02   0.00000e+00
   @RHF iter   1:  -197.31255663630066   -9.51994e-01   3.78497e-03 DIIS
   @RHF iter   2:  -197.47171257488478   -1.59156e-01   1.62481e-03 DIIS
   @RHF iter   3:  -197.49967135506273   -2.79588e-02   3.25875e-04 DIIS
   @RHF iter   4:  -197.50188494153491   -2.21359e-03   4.96151e-05 DIIS
   @RHF iter   5:  -197.50192469094310   -3.97494e-05   1.53160e-05 DIIS
   @RHF iter   6:  -197.50192825210530   -3.56116e-06   2.36253e-06 DIIS
   @RHF iter   7:  -197.50192835698687   -1.04882e-07   4.42767e-07 DIIS
   @RHF iter   8:  -197.50192836097813   -3.99126e-09   1.11355e-07 DIIS
   @RHF iter   9:  -197.50192836122091   -2.42778e-10   3.52552e-08 DIIS
   @RHF iter  10:  -197.50192836124882   -2.79101e-11   7.88784e-09 DIIS
   @RHF iter  11:  -197.50192836125032   -1.50635e-12   1.49025e-09 DIIS
   @RHF iter  12:  -197.50192836125026    5.68434e-14   2.88907e-10 DIIS
   @RHF iter  13:  -197.50192836125072   -4.54747e-13   5.79104e-11 DIIS
  Energy and wave function converged.

  ==> Post-Iterations <==

    Orbital Energies [Eh]
    ---------------------

    Doubly Occupied:

       1A    -11.220859     2A    -11.219031     3A    -11.218267
       4A    -11.215462     5A    -11.213421     6A     -1.052778
       7A     -1.015788     8A     -0.921363     9A     -0.839393
      10A     -0.795363    11A     -0.627344    12A     -0.600669
      13A     -0.597051    14A     -0.593369    15A     -0.543748
      16A     -0.532264    17A     -0.497307    18A     -0.490211
      19A     -0.488211    20A     -0.468499    21A     -0.467137
      22A     -0.466792

    Virtual:

      23A      0.173741    24A      0.193538    25A      0.219417
      26A      0.224044    27A      0.229888    28A      0.253915
      29A      0.259359    30A      0.268276    31A      0.276463
      32A      0.286870    33A      0.297066    34A      0.322971
      35A      0.327361    36A      0.353322    37A      0.375762
      38A      0.393467    39A      0.432753    40A      0.566095
      41A      0.586009    42A      0.593461    43A      0.598219
      44A      0.614509    45A      0.618389    46A      0.627792
      47A      0.701138    48A      0.704637    49A      0.741631
      50A      0.801223    51A      0.812753    52A      0.845761
      53A      0.857111    54A      0.874748    55A      0.889149
      56A      0.893313    57A      0.895013    58A      0.904741
      59A      0.910244    60A      0.912800    61A      0.916841
      62A      0.935149    63A      0.945794    64A      0.952156
      65A      0.964715    66A      0.978616    67A      0.994122
      68A      1.019855    69A      1.123352    70A      1.125632
      71A      1.132359    72A      1.157164    73A      1.208043
      74A      1.254971    75A      1.372307    76A      1.468333
      77A      1.473535    78A      1.489056    79A      1.492748
      80A      1.539152    81A      1.589852    82A      1.612602
      83A      1.679166    84A      1.683393    85A      1.689143
      86A      1.690896    87A      1.707899    88A      1.841221
      89A      1.854938    90A      1.876903    91A      1.877292
      92A      1.883137    93A      1.906834    94A      1.922387
      95A      1.932734    96A      1.941040    97A      1.944214
      98A      1.946343    99A      1.949538   100A      1.960807
     101A      1.970648   102A      1.980824   103A      1.989185
     104A      1.999902   105A      2.015933   106A      2.046938
     107A      2.095031   108A      2.105299   109A      2.120633
     110A      2.135888   111A      2.152609   112A      2.291224
     113A      2.297830   114A      2.307931   115A      2.322450
     116A      2.328492   117A      2.355977   118A      2.455707
     119A      2.459457   120A      2.499736   121A      2.535444
     122A      2.559297   123A      2.575430   124A      2.576530
     125A      2.622247   126A      2.627682   127A      2.757933
     128A      2.764356   129A      2.786095   130A      2.789114
     131A      2.805970   132A      2.825550   133A      2.838617
     134A      2.855454   135A      2.911214   136A      2.949662
     137A      2.956534   138A      2.972775   139A      2.987754
     140A      3.069547

    Final Occupation by Irrep:
              A
    DOCC [    22 ]

  @RHF Final Energy:  -197.50192836125072

   => Energetics <=

    Nuclear Repulsion Energy =            180.2993985449414538
    One-Electron Energy =                -621.4339985464177971
    Two-Electron Energy =                 243.6326716402255954
    Total Energy =                       -197.5019283612507195

Computation Completed

Properties will be evaluated at   0.000000,   0.000000,   0.000000 [a0]

Properties computed using the SCF density matrix

  Nuclear Dipole Moment: [e a0]
     X:    -0.6650      Y:     0.5616      Z:    -1.2164

  Electronic Dipole Moment: [e a0]
     X:     0.6731      Y:    -0.5234      Z:     1.2130

  Dipole Moment: [e a0]
     X:     0.0081      Y:     0.0382      Z:    -0.0034     Total:     0.0392

  Dipole Moment: [D]
     X:     0.0206      Y:     0.0970      Z:    -0.0086     Total:     0.0995

*** tstop() called on ds3 at Mon Apr 27 23:44:41 2020
Module time:
	user time   =      17.68 seconds =       0.29 minutes
	system time =       7.81 seconds =       0.13 minutes
	total time  =         25 seconds =       0.42 minutes
Total time:
	user time   =      17.68 seconds =       0.29 minutes
	system time =       7.81 seconds =       0.13 minutes
	total time  =         25 seconds =       0.42 minutes
                                     G D M A

                                 by Anthony Stone

                           version 2.2.06, 22 June 2011

               Distributed Multipoles from Gaussian wavefunctions

Starting at 23:44:41 on 27 Apr 2020

Using SCF density matrix from file ./SSI/SSI-007LEU-017ARG-1-dimer.test.3884.fchk

                         Distributed Multipole Analysis

Standard DMA

Positions and radii in angstrom
Multipole moments in atomic units, ea_0^k for rank k

C          x = -0.352686  y =  1.131138  z = -1.461805 angstrom
           Maximum rank =  0   Radius =  0.650 angstrom
                   Q00  =  -0.257697

C          x = -0.850686  y =  2.012138  z = -2.628805 angstrom
           Maximum rank =  0   Radius =  0.650 angstrom
                   Q00  =  -0.227417

H          x =  0.359314  y =  1.683138  z = -0.848805 angstrom
           Maximum rank =  0   Radius =  0.325 angstrom
                   Q00  =   0.082675

H          x = -1.196686  y =  0.842138  z = -0.835805 angstrom
           Maximum rank =  0   Radius =  0.325 angstrom
                   Q00  =   0.079441

H          x =  0.124314  y =  0.239138  z = -1.865805 angstrom
           Maximum rank =  0   Radius =  0.325 angstrom
                   Q00  =   0.081447

H          x = -1.208686  y =  2.957138  z = -2.224805 angstrom
           Maximum rank =  0   Radius =  0.325 angstrom
                   Q00  =   0.081198

H          x = -0.040956  y =  2.191359  z = -3.351447 angstrom
           Maximum rank =  0   Radius =  0.325 angstrom
                   Q00  =   0.081777

H          x = -1.685676  y =  1.514188  z = -3.143426 angstrom
           Maximum rank =  0   Radius =  0.325 angstrom
                   Q00  =   0.079596

C          x =  0.828314  y = -0.719862  z =  1.621195 angstrom
           Maximum rank =  0   Radius =  0.650 angstrom
                   Q00  =  -0.088246

C          x =  1.026314  y = -1.641862  z =  0.410195 angstrom
           Maximum rank =  0   Radius =  0.650 angstrom
                   Q00  =  -0.251958

C          x = -0.591686  y = -0.831862  z =  2.168195 angstrom
           Maximum rank =  0   Radius =  0.650 angstrom
                   Q00  =  -0.229268

H          x =  1.533314  y = -0.977862  z =  2.411195 angstrom
           Maximum rank =  0   Radius =  0.325 angstrom
                   Q00  =   0.049107

H          x =  1.007314  y =  0.313138  z =  1.319195 angstrom
           Maximum rank =  0   Radius =  0.325 angstrom
                   Q00  =   0.048590

H          x =  0.302314  y = -1.370862  z = -0.355805 angstrom
           Maximum rank =  0   Radius =  0.325 angstrom
                   Q00  =   0.078039

H          x =  0.823314  y = -2.674862  z =  0.696195 angstrom
           Maximum rank =  0   Radius =  0.325 angstrom
                   Q00  =   0.074098

H          x = -0.714686  y = -0.109862  z =  2.978195 angstrom
           Maximum rank =  0   Radius =  0.325 angstrom
                   Q00  =   0.081590

H          x = -1.295686  y = -0.580862  z =  1.374195 angstrom
           Maximum rank =  0   Radius =  0.325 angstrom
                   Q00  =   0.076919

H          x =  2.039784  y = -1.581485  z = -0.013163 angstrom
           Maximum rank =  0   Radius =  0.325 angstrom
                   Q00  =   0.083592

H          x = -0.756616  y = -1.845422  z =  2.562524 angstrom
           Maximum rank =  0   Radius =  0.325 angstrom
                   Q00  =   0.076515

Total multipoles referred to origin at
           x =   0.000000,  y =    0.000000,  z =    0.000000 angstrom
                   Q00  =  -0.000000

Finished at 23:44:41 on 27 Apr 2020

  DMA results are available in the Python driver through the
	  variable('DMA DISTRIBUTED MULTIPOLES')
  and
	  variable('DMA TOTAL MULTIPOLES')
  commands.

    Psi4 stopped on: Monday, 27 April 2020 11:44PM
    Psi4 wall time for execution: 0:00:24.88

*** Psi4 exiting successfully. Buy a developer a beer!
