                               Psi4 1.3.2 release

  ==> Input File <==

--------------------------------------------------------------------------
import numpy as np
set {scf_type pk
basis cc-pvdz
d_convergence 10
gdma_switch   0
gdma_limit    0
gdma_origin   [ 0.0,  0.0,  0.0 ]
}
molecule test {
    units Angstrom
    -1 1
    --
    -1 1
    C               -3.983949054428170     2.787517849239872    -0.014825206521088
    C               -2.824949054428171     2.046517849239872    -0.667825206521088
    O               -2.795949054428171     1.952517849239872    -1.913825206521089
    O               -1.946949054428171     1.547517849239872     0.066174793478912
    H               -3.622949054428170     3.274517849239872     0.894174793478911
    H               -4.754949054428171     2.073517849239872     0.273174793478912
    H               -4.409239054428171     3.559527849239872    -0.672945206521089
    C                3.819050945571830    -2.193482150760128     1.932174793478912
    C                0.519050945571829    -0.666482150760128    -0.401825206521088
    C                0.748050945571829    -0.169482150760128     0.883174793478912
    C                1.375050945571829    -1.626482150760128    -0.936825206521088
    C                1.835050945571829    -0.643482150760128     1.630174793478912
    C                2.455050945571830    -2.092482150760128    -0.185825206521088
    C                2.695050945571829    -1.611482150760128     1.105174793478912
    O               -0.544949054428171    -0.236482150760128    -1.138825206521089
    H               -1.057949054428171     0.453517849239872    -0.650825206521088
    H                0.087050945571829     0.577517849239872     1.294174793478912
    H                1.196050945571829    -2.010482150760128    -1.929825206521088
    H                2.014050945571829    -0.246482150760128     2.617174793478911
    H                3.110050945571829    -2.843482150760128    -0.607825206521088
    H                4.060050945571830    -1.534482150760128     2.767174793478911
    H                4.701050945571829    -2.257482150760128     1.297174793478912
    H                3.567670945571829    -3.197542150760128     2.304554793478911

}
e, wfn = energy('scf', return_wfn=True)
gdma(wfn)
dmavals = variable('DMA DISTRIBUTED MULTIPOLES')
charges = np.array(dmavals)
print(charges)
np.save('SSI-147ASP-171TYR-1-dimer.npy', np.array(charges))--------------------------------------------------------------------------

*** tstart() called on ds3
*** at Mon Apr 27 16:13:51 2020

   => Loading Basis Set <=

    Name: CC-PVDZ
    Role: ORBITAL
    Keyword: BASIS
    atoms 1-2, 8-14  entry C          line   138 file /theoryfs2/ds/metcalf/miniconda2/envs/tf2gpu/share/psi4/basis/cc-pvdz.gbs
    atoms 3-4, 15    entry O          line   198 file /theoryfs2/ds/metcalf/miniconda2/envs/tf2gpu/share/psi4/basis/cc-pvdz.gbs
    atoms 5-7, 16-23 entry H          line    22 file /theoryfs2/ds/metcalf/miniconda2/envs/tf2gpu/share/psi4/basis/cc-pvdz.gbs

         ---------------------------------------------------------
                                   SCF
               by Justin Turney, Rob Parrish, Andy Simmonett
                          and Daniel G. A. Smith
                              RHF Reference
                        1 Threads,    500 MiB Core
         ---------------------------------------------------------

  ==> Geometry <==

    Molecular point group: c1
    Full point group: C1

    Geometry (in Angstrom), charge = -1, multiplicity = 1:

       Center              X                  Y                   Z               Mass
    ------------   -----------------  -----------------  -----------------  -----------------
         C           -3.983949054428     2.787517849240    -0.014825206521    12.000000000000
         C           -2.824949054428     2.046517849240    -0.667825206521    12.000000000000
         O           -2.795949054428     1.952517849240    -1.913825206521    15.994914619570
         O           -1.946949054428     1.547517849240     0.066174793479    15.994914619570
         H           -3.622949054428     3.274517849240     0.894174793479     1.007825032230
         H           -4.754949054428     2.073517849240     0.273174793479     1.007825032230
         H           -4.409239054428     3.559527849240    -0.672945206521     1.007825032230
         C            3.819050945572    -2.193482150760     1.932174793479    12.000000000000
         C            0.519050945572    -0.666482150760    -0.401825206521    12.000000000000
         C            0.748050945572    -0.169482150760     0.883174793479    12.000000000000
         C            1.375050945572    -1.626482150760    -0.936825206521    12.000000000000
         C            1.835050945572    -0.643482150760     1.630174793479    12.000000000000
         C            2.455050945572    -2.092482150760    -0.185825206521    12.000000000000
         C            2.695050945572    -1.611482150760     1.105174793479    12.000000000000
         O           -0.544949054428    -0.236482150760    -1.138825206521    15.994914619570
         H           -1.057949054428     0.453517849240    -0.650825206521     1.007825032230
         H            0.087050945572     0.577517849240     1.294174793479     1.007825032230
         H            1.196050945572    -2.010482150760    -1.929825206521     1.007825032230
         H            2.014050945572    -0.246482150760     2.617174793479     1.007825032230
         H            3.110050945572    -2.843482150760    -0.607825206521     1.007825032230
         H            4.060050945572    -1.534482150760     2.767174793479     1.007825032230
         H            4.701050945572    -2.257482150760     1.297174793479     1.007825032230
         H            3.567670945572    -3.197542150760     2.304554793479     1.007825032230

  Running in c1 symmetry.

  Rotational constants: A =      0.09649  B =      0.01084  C =      0.00984 [cm^-1]
  Rotational constants: A =   2892.73733  B =    325.07113  C =    294.88999 [MHz]
  Nuclear repulsion =  637.731396859115989

  Charge       = -1
  Multiplicity = 1
  Electrons    = 90
  Nalpha       = 45
  Nbeta        = 45

  ==> Algorithm <==

  SCF Algorithm Type is PK.
  DIIS enabled.
  MOM disabled.
  Fractional occupation disabled.
  Guess Type is SAD.
  Energy threshold   = 1.00e-06
  Density threshold  = 1.00e-10
  Integral threshold = 0.00e+00

  ==> Primary Basis <==

  Basis Set: CC-PVDZ
    Blend: CC-PVDZ
    Number of shells: 105
    Number of basis function: 223
    Number of Cartesian functions: 235
    Spherical Harmonics?: true
    Max angular momentum: 2

  ==> Pre-Iterations <==

   -------------------------------------------------------
    Irrep   Nso     Nmo     Nalpha   Nbeta   Ndocc  Nsocc
   -------------------------------------------------------
     A        223     223       0       0       0       0
   -------------------------------------------------------
    Total     223     223      45      45      45       0
   -------------------------------------------------------

  ==> Integral Setup <==

  Using integral reordering PK algorithm.
  Sizing the integral batches needed.
  Building batch lookup table.
   Calculation information:
      Number of atoms:                  23
      Number of AO shells:             105
      Number of primitives:            319
      Number of atomic orbitals:       235
      Number of basis functions:       223

      Integral cutoff                 1.00e-12
      Number of threads:                 1

	Batch   1 pq = [       0,    9405] index = [             0,44231715] size =     44231715
	Batch   2 pq = [    9405,   13301] index = [      44231715,88464951] size =     44233236
	Batch   3 pq = [   13301,   16290] index = [      88464951,132690195] size =     44225244
	Batch   4 pq = [   16290,   18810] index = [     132690195,176917455] size =     44227260
	Batch   5 pq = [   18810,   21030] index = [     176917455,221140965] size =     44223510
	Batch   6 pq = [   21030,   23037] index = [     221140965,265363203] size =     44222238
	Batch   7 pq = [   23037,   24976] index = [     265363203,311912776] size =     46549573
  Task number: 29
  Buffer size: 11059200
  Buffer per thread: 2
  We computed 11498689 shell quartets total.
  Whereas there are 15487395 unique shell quartets.

  ==> DiskJK: Disk-Based J/K Matrices <==

    J tasked:                  Yes
    K tasked:                  Yes
    wK tasked:                  No
    Memory [MiB]:              375
    Schwarz Cutoff:          1E-12

    OpenMP threads:              1

  Minimum eigenvalue in the overlap matrix is 3.2458315696E-04.
  Using Symmetric Orthogonalization.

  SCF Guess: Superposition of Atomic Densities via on-the-fly atomic UHF.

  ==> Iterations <==

                        Total Energy        Delta E     RMS |[F,P]|

   @RHF iter SAD:  -570.26296591810978   -5.70263e+02   0.00000e+00
   @RHF iter   1:  -571.56650602485900   -1.30354e+00   3.56995e-03 DIIS
   @RHF iter   2:  -571.83465628431372   -2.68150e-01   1.86315e-03 DIIS
   @RHF iter   3:  -571.89900469978340   -6.43484e-02   3.44552e-04 DIIS
   @RHF iter   4:  -571.90272402107769   -3.71932e-03   1.35549e-04 DIIS
   @RHF iter   5:  -571.90327746793821   -5.53447e-04   2.64561e-05 DIIS
   @RHF iter   6:  -571.90330398861011   -2.65207e-05   1.30489e-05 DIIS
   @RHF iter   7:  -571.90331029000117   -6.30139e-06   3.74123e-06 DIIS
   @RHF iter   8:  -571.90331162073585   -1.33073e-06   1.62787e-06 DIIS
   @RHF iter   9:  -571.90331192239580   -3.01660e-07   7.27701e-07 DIIS
   @RHF iter  10:  -571.90331198510853   -6.27127e-08   3.09263e-07 DIIS
   @RHF iter  11:  -571.90331199703837   -1.19298e-08   1.16951e-07 DIIS
   @RHF iter  12:  -571.90331199839397   -1.35560e-09   4.98542e-08 DIIS
   @RHF iter  13:  -571.90331199860225   -2.08274e-10   1.49056e-08 DIIS
   @RHF iter  14:  -571.90331199861919   -1.69393e-11   6.49663e-09 DIIS
   @RHF iter  15:  -571.90331199861407    5.11591e-12   2.43397e-09 DIIS
   @RHF iter  16:  -571.90331199861646   -2.38742e-12   1.01955e-09 DIIS
   @RHF iter  17:  -571.90331199862601   -9.54969e-12   3.19563e-10 DIIS
   @RHF iter  18:  -571.90331199862271    3.29692e-12   1.00867e-10 DIIS
   @RHF iter  19:  -571.90331199862226    4.54747e-13   4.60184e-11 DIIS
  Energy and wave function converged.

  ==> Post-Iterations <==

    Orbital Energies [Eh]
    ---------------------

    Doubly Occupied:

       1A    -20.392883     2A    -20.309885     3A    -20.291660
       4A    -11.162708     5A    -11.153929     6A    -11.136279
       7A    -11.124124     8A    -11.121819     9A    -11.117875
      10A    -11.105920    11A    -11.098881    12A    -11.076315
      13A     -1.218462    14A     -1.193433    15A     -1.078316
      16A     -1.026797    17A     -0.918831    18A     -0.893081
      19A     -0.824191    20A     -0.811363    21A     -0.716910
      22A     -0.672755    23A     -0.586710    24A     -0.545630
      25A     -0.530815    26A     -0.515081    27A     -0.483098
      28A     -0.478712    29A     -0.464851    30A     -0.447484
      31A     -0.442887    32A     -0.440147    33A     -0.436942
      34A     -0.417063    35A     -0.401571    36A     -0.379357
      37A     -0.373018    38A     -0.348920    39A     -0.343026
      40A     -0.331639    41A     -0.228930    42A     -0.218224
      43A     -0.207849    44A     -0.203766    45A     -0.168114

    Virtual:

      46A      0.248699    47A      0.275958    48A      0.277247
      49A      0.315804    50A      0.321025    51A      0.334844
      52A      0.356698    53A      0.367635    54A      0.373422
      55A      0.374501    56A      0.396780    57A      0.420352
      58A      0.453172    59A      0.467536    60A      0.493039
      61A      0.504172    62A      0.545941    63A      0.563082
      64A      0.588707    65A      0.606158    66A      0.615512
      67A      0.651483    68A      0.681512    69A      0.719887
      70A      0.732166    71A      0.738020    72A      0.768535
      73A      0.794322    74A      0.798898    75A      0.806380
      76A      0.813602    77A      0.826150    78A      0.844262
      79A      0.849887    80A      0.856430    81A      0.858404
      82A      0.889103    83A      0.897367    84A      0.907333
      85A      0.910571    86A      0.915680    87A      0.943015
      88A      0.945204    89A      0.969418    90A      0.977643
      91A      0.986254    92A      0.998513    93A      1.007686
      94A      1.010015    95A      1.014278    96A      1.028997
      97A      1.033997    98A      1.044911    99A      1.048622
     100A      1.053870   101A      1.067467   102A      1.110699
     103A      1.129010   104A      1.149376   105A      1.167650
     106A      1.190223   107A      1.215248   108A      1.244451
     109A      1.261920   110A      1.267105   111A      1.291216
     112A      1.319247   113A      1.322813   114A      1.341489
     115A      1.355258   116A      1.365271   117A      1.381995
     118A      1.405383   119A      1.417150   120A      1.434859
     121A      1.445984   122A      1.473154   123A      1.488851
     124A      1.513728   125A      1.529082   126A      1.553861
     127A      1.555856   128A      1.587014   129A      1.612241
     130A      1.618432   131A      1.622184   132A      1.650704
     133A      1.667151   134A      1.710376   135A      1.716941
     136A      1.752151   137A      1.777936   138A      1.798300
     139A      1.804234   140A      1.811675   141A      1.844274
     142A      1.851902   143A      1.864698   144A      1.873119
     145A      1.890312   146A      1.932391   147A      1.935003
     148A      1.974901   149A      2.001069   150A      2.007196
     151A      2.029608   152A      2.031064   153A      2.033038
     154A      2.046403   155A      2.057430   156A      2.068767
     157A      2.071441   158A      2.081546   159A      2.087240
     160A      2.109891   161A      2.124016   162A      2.147969
     163A      2.169190   164A      2.175355   165A      2.184445
     166A      2.194785   167A      2.209338   168A      2.228354
     169A      2.253914   170A      2.274630   171A      2.287071
     172A      2.313186   173A      2.329086   174A      2.360693
     175A      2.367921   176A      2.380476   177A      2.391825
     178A      2.399893   179A      2.411041   180A      2.454362
     181A      2.489963   182A      2.517641   183A      2.533910
     184A      2.582451   185A      2.606411   186A      2.620204
     187A      2.629194   188A      2.681009   189A      2.684093
     190A      2.712481   191A      2.742299   192A      2.781260
     193A      2.854673   194A      2.860805   195A      2.872389
     196A      2.897742   197A      2.901079   198A      2.927416
     199A      2.932235   200A      2.952423   201A      2.955402
     202A      3.010351   203A      3.079538   204A      3.123687
     205A      3.202596   206A      3.205803   207A      3.216608
     208A      3.247062   209A      3.292726   210A      3.400165
     211A      3.439576   212A      3.516898   213A      3.533331
     214A      3.603991   215A      3.743928   216A      3.765227
     217A      3.792475   218A      3.864986   219A      4.033528
     220A      4.041248   221A      4.131696   222A      4.183533
     223A      4.472737

    Final Occupation by Irrep:
              A
    DOCC [    45 ]

  @RHF Final Energy:  -571.90331199862226

   => Energetics <=

    Nuclear Repulsion Energy =            637.7313968591159892
    One-Electron Energy =               -2060.3889224466197447
    Two-Electron Energy =                 850.7542135888813846
    Total Energy =                       -571.9033119986222573

Computation Completed

Properties will be evaluated at   0.000000,   0.000000,   0.000000 [a0]

Properties computed using the SCF density matrix

  Nuclear Dipole Moment: [e a0]
     X:     4.5597      Y:    -2.0011      Z:     7.0975

  Electronic Dipole Moment: [e a0]
     X:    -1.8871      Y:     0.2321      Z:    -5.1110

  Dipole Moment: [e a0]
     X:     2.6725      Y:    -1.7690      Z:     1.9865     Total:     3.7707

  Dipole Moment: [D]
     X:     6.7929      Y:    -4.4964      Z:     5.0491     Total:     9.5841

*** tstop() called on ds3 at Mon Apr 27 16:16:29 2020
Module time:
	user time   =     103.56 seconds =       1.73 minutes
	system time =      52.85 seconds =       0.88 minutes
	total time  =        158 seconds =       2.63 minutes
Total time:
	user time   =     103.56 seconds =       1.73 minutes
	system time =      52.85 seconds =       0.88 minutes
	total time  =        158 seconds =       2.63 minutes
                                     G D M A

                                 by Anthony Stone

                           version 2.2.06, 22 June 2011

               Distributed Multipoles from Gaussian wavefunctions

Starting at 16:16:29 on 27 Apr 2020

Using SCF density matrix from file ./SSI/SSI-147ASP-171TYR-1-dimer.test.24351.fchk

                         Distributed Multipole Analysis

Standard DMA

Positions and radii in angstrom
Multipole moments in atomic units, ea_0^k for rank k

C          x = -3.983949  y =  2.787518  z = -0.014825 angstrom
           Maximum rank =  0   Radius =  0.650 angstrom
                   Q00  =  -0.256396

C          x = -2.824949  y =  2.046518  z = -0.667825 angstrom
           Maximum rank =  0   Radius =  0.650 angstrom
                   Q00  =   0.888715

O          x = -2.795949  y =  1.952518  z = -1.913825 angstrom
           Maximum rank =  0   Radius =  0.650 angstrom
                   Q00  =  -0.878590

O          x = -1.946949  y =  1.547518  z =  0.066175 angstrom
           Maximum rank =  0   Radius =  0.650 angstrom
                   Q00  =  -0.928291

H          x = -3.622949  y =  3.274518  z =  0.894175 angstrom
           Maximum rank =  0   Radius =  0.325 angstrom
                   Q00  =   0.062298

H          x = -4.754949  y =  2.073518  z =  0.273175 angstrom
           Maximum rank =  0   Radius =  0.325 angstrom
                   Q00  =   0.089684

H          x = -4.409239  y =  3.559528  z = -0.672945 angstrom
           Maximum rank =  0   Radius =  0.325 angstrom
                   Q00  =   0.067402

C          x =  3.819051  y = -2.193482  z =  1.932175 angstrom
           Maximum rank =  0   Radius =  0.650 angstrom
                   Q00  =  -0.192006

C          x =  0.519051  y = -0.666482  z = -0.401825 angstrom
           Maximum rank =  0   Radius =  0.650 angstrom
                   Q00  =   0.409616

C          x =  0.748051  y = -0.169482  z =  0.883175 angstrom
           Maximum rank =  0   Radius =  0.650 angstrom
                   Q00  =  -0.193240

C          x =  1.375051  y = -1.626482  z = -0.936825 angstrom
           Maximum rank =  0   Radius =  0.650 angstrom
                   Q00  =  -0.125145

C          x =  1.835051  y = -0.643482  z =  1.630175 angstrom
           Maximum rank =  0   Radius =  0.650 angstrom
                   Q00  =  -0.027983

C          x =  2.455051  y = -2.092482  z = -0.185825 angstrom
           Maximum rank =  0   Radius =  0.650 angstrom
                   Q00  =   0.021897

C          x =  2.695051  y = -1.611482  z =  1.105175 angstrom
           Maximum rank =  0   Radius =  0.650 angstrom
                   Q00  =  -0.164159

O          x = -0.544949  y = -0.236482  z = -1.138825 angstrom
           Maximum rank =  0   Radius =  0.650 angstrom
                   Q00  =  -0.794113

H          x = -1.057949  y =  0.453518  z = -0.650825 angstrom
           Maximum rank =  0   Radius =  0.325 angstrom
                   Q00  =   0.558085

H          x =  0.087051  y =  0.577518  z =  1.294175 angstrom
           Maximum rank =  0   Radius =  0.325 angstrom
                   Q00  =   0.094572

H          x =  1.196051  y = -2.010482  z = -1.929825 angstrom
           Maximum rank =  0   Radius =  0.325 angstrom
                   Q00  =   0.056871

H          x =  2.014051  y = -0.246482  z =  2.617175 angstrom
           Maximum rank =  0   Radius =  0.325 angstrom
                   Q00  =   0.040528

H          x =  3.110051  y = -2.843482  z = -0.607825 angstrom
           Maximum rank =  0   Radius =  0.325 angstrom
                   Q00  =   0.030008

H          x =  4.060051  y = -1.534482  z =  2.767175 angstrom
           Maximum rank =  0   Radius =  0.325 angstrom
                   Q00  =   0.084267

H          x =  4.701051  y = -2.257482  z =  1.297175 angstrom
           Maximum rank =  0   Radius =  0.325 angstrom
                   Q00  =   0.076861

H          x =  3.567671  y = -3.197542  z =  2.304555 angstrom
           Maximum rank =  0   Radius =  0.325 angstrom
                   Q00  =   0.079121

Total multipoles referred to origin at
           x =   0.000000,  y =    0.000000,  z =    0.000000 angstrom
                   Q00  =  -1.000000

Finished at 16:16:29 on 27 Apr 2020

  DMA results are available in the Python driver through the
	  variable('DMA DISTRIBUTED MULTIPOLES')
  and
	  variable('DMA TOTAL MULTIPOLES')
  commands.

    Psi4 stopped on: Monday, 27 April 2020 04:16PM
    Psi4 wall time for execution: 0:02:38.40

*** Psi4 exiting successfully. Buy a developer a beer!
