                               Psi4 1.3.2 release

  ==> Input File <==

--------------------------------------------------------------------------
import numpy as np
set {scf_type pk
basis cc-pvdz
d_convergence 10
gdma_switch   0
gdma_limit    0
gdma_origin   [ 0.0,  0.0,  0.0 ]
}
molecule test {
    units Angstrom
    0 1
    --
    0 1
    C               -1.326037705667490     0.224936391818273     2.348745332224801
    C               -2.756037705667489     0.522936391818273     2.803745332224801
    C               -0.534037705667490     1.332936391818273     3.033745332224801
    H               -1.268037705667490     0.324936391818273     1.268745332224801
    H               -0.999037705667490    -0.766063608181727     2.665745332224801
    H               -3.473037705667489     0.135936391818273     2.077745332224801
    H               -2.935037705667490     0.089936391818273     3.788745332224801
    H                0.443962294332510     1.475936391818273     2.570745332224801
    H               -0.420037705667490     1.099936391818273     4.093745332224801
    H               -2.792617705667490     1.620406391818273     2.868695332224801
    H               -1.189987705667490     2.207776391818273     2.913825332224801
    C               -0.029037705667490    -0.108063608181727    -1.093254667775199
    C                1.303962294332510    -1.559063608181727    -2.965254667775199
    S                1.566962294332510    -0.167063608181727    -1.861254667775199
    H               -0.153037705667490    -0.969063608181727    -0.435254667775199
    H               -0.107037705667490     0.813936391818273    -0.516254667775199
    H               -0.804037705667490    -0.121063608181727    -1.855254667775199
    H                0.377962294332510    -1.428063608181727    -3.524254667775198
    H                1.230962294332510    -2.469063608181727    -2.370254667775199
    H                2.161932294332511    -1.641225608181727    -3.648724667775199

}
e, wfn = energy('scf', return_wfn=True)
gdma(wfn)
dmavals = variable('DMA DISTRIBUTED MULTIPOLES')
charges = np.array(dmavals)
print(charges)
np.save('SSI-030PRO-057MET-1-dimer.npy', np.array(charges))--------------------------------------------------------------------------

*** tstart() called on ds3
*** at Tue Apr 28 10:20:22 2020

   => Loading Basis Set <=

    Name: CC-PVDZ
    Role: ORBITAL
    Keyword: BASIS
    atoms 1-3, 12-13  entry C          line   138 file /theoryfs2/ds/metcalf/miniconda2/envs/tf2gpu/share/psi4/basis/cc-pvdz.gbs
    atoms 4-11, 15-20 entry H          line    22 file /theoryfs2/ds/metcalf/miniconda2/envs/tf2gpu/share/psi4/basis/cc-pvdz.gbs
    atoms 14          entry S          line   598 file /theoryfs2/ds/metcalf/miniconda2/envs/tf2gpu/share/psi4/basis/cc-pvdz.gbs

         ---------------------------------------------------------
                                   SCF
               by Justin Turney, Rob Parrish, Andy Simmonett
                          and Daniel G. A. Smith
                              RHF Reference
                        1 Threads,    500 MiB Core
         ---------------------------------------------------------

  ==> Geometry <==

    Molecular point group: c1
    Full point group: C1

    Geometry (in Angstrom), charge = 0, multiplicity = 1:

       Center              X                  Y                   Z               Mass
    ------------   -----------------  -----------------  -----------------  -----------------
         C           -1.326037705667     0.224936391818     2.348745332225    12.000000000000
         C           -2.756037705667     0.522936391818     2.803745332225    12.000000000000
         C           -0.534037705667     1.332936391818     3.033745332225    12.000000000000
         H           -1.268037705667     0.324936391818     1.268745332225     1.007825032230
         H           -0.999037705667    -0.766063608182     2.665745332225     1.007825032230
         H           -3.473037705667     0.135936391818     2.077745332225     1.007825032230
         H           -2.935037705667     0.089936391818     3.788745332225     1.007825032230
         H            0.443962294333     1.475936391818     2.570745332225     1.007825032230
         H           -0.420037705667     1.099936391818     4.093745332225     1.007825032230
         H           -2.792617705667     1.620406391818     2.868695332225     1.007825032230
         H           -1.189987705667     2.207776391818     2.913825332225     1.007825032230
         C           -0.029037705667    -0.108063608182    -1.093254667775    12.000000000000
         C            1.303962294333    -1.559063608182    -2.965254667775    12.000000000000
         S            1.566962294333    -0.167063608182    -1.861254667775    31.972071174400
         H           -0.153037705667    -0.969063608182    -0.435254667775     1.007825032230
         H           -0.107037705667     0.813936391818    -0.516254667775     1.007825032230
         H           -0.804037705667    -0.121063608182    -1.855254667775     1.007825032230
         H            0.377962294333    -1.428063608182    -3.524254667775     1.007825032230
         H            1.230962294333    -2.469063608182    -2.370254667775     1.007825032230
         H            2.161932294333    -1.641225608182    -3.648724667775     1.007825032230

  Running in c1 symmetry.

  Rotational constants: A =      0.19657  B =      0.01937  C =      0.01827 [cm^-1]
  Rotational constants: A =   5892.95671  B =    580.57491  C =    547.61790 [MHz]
  Nuclear repulsion =  282.424596754064396

  Charge       = 0
  Multiplicity = 1
  Electrons    = 60
  Nalpha       = 30
  Nbeta        = 30

  ==> Algorithm <==

  SCF Algorithm Type is PK.
  DIIS enabled.
  MOM disabled.
  Fractional occupation disabled.
  Guess Type is SAD.
  Energy threshold   = 1.00e-06
  Density threshold  = 1.00e-10
  Integral threshold = 0.00e+00

  ==> Primary Basis <==

  Basis Set: CC-PVDZ
    Blend: CC-PVDZ
    Number of shells: 80
    Number of basis function: 158
    Number of Cartesian functions: 164
    Spherical Harmonics?: true
    Max angular momentum: 2

  ==> Pre-Iterations <==

   -------------------------------------------------------
    Irrep   Nso     Nmo     Nalpha   Nbeta   Ndocc  Nsocc
   -------------------------------------------------------
     A        158     158       0       0       0       0
   -------------------------------------------------------
    Total     158     158      30      30      30       0
   -------------------------------------------------------

  ==> Integral Setup <==

  Using integral reordering PK algorithm.
  Sizing the integral batches needed.
  Building batch lookup table.
   Calculation information:
      Number of atoms:                  20
      Number of AO shells:              80
      Number of primitives:            230
      Number of atomic orbitals:       164
      Number of basis functions:       158

      Integral cutoff                 1.00e-12
      Number of threads:                 1

	Batch   1 pq = [       0,    9405] index = [             0,44231715] size =     44231715
	Batch   2 pq = [    9405,   12561] index = [      44231715,78895641] size =     34663926
  Task number: 8
  Buffer size: 11059200
  Buffer per thread: 2
  We computed 3985437 shell quartets total.
  Whereas there are 5250420 unique shell quartets.

  ==> DiskJK: Disk-Based J/K Matrices <==

    J tasked:                  Yes
    K tasked:                  Yes
    wK tasked:                  No
    Memory [MiB]:              375
    Schwarz Cutoff:          1E-12

    OpenMP threads:              1

  Minimum eigenvalue in the overlap matrix is 5.0462818928E-03.
  Using Symmetric Orthogonalization.

  SCF Guess: Superposition of Atomic Densities via on-the-fly atomic UHF.

  ==> Iterations <==

                        Total Energy        Delta E     RMS |[F,P]|

   @RHF iter SAD:  -594.10250408628883   -5.94103e+02   0.00000e+00
   @RHF iter   1:  -594.82981185358074   -7.27308e-01   3.20112e-03 DIIS
   @RHF iter   2:  -594.98154750325659   -1.51736e-01   1.32053e-03 DIIS
   @RHF iter   3:  -595.00547791300062   -2.39304e-02   3.05202e-04 DIIS
   @RHF iter   4:  -595.00777788328162   -2.29997e-03   4.84030e-05 DIIS
   @RHF iter   5:  -595.00782959661456   -5.17133e-05   1.20614e-05 DIIS
   @RHF iter   6:  -595.00783284518616   -3.24857e-06   2.84662e-06 DIIS
   @RHF iter   7:  -595.00783302216564   -1.76979e-07   5.95178e-07 DIIS
   @RHF iter   8:  -595.00783303406627   -1.19006e-08   1.64809e-07 DIIS
   @RHF iter   9:  -595.00783303488129   -8.15021e-10   4.90323e-08 DIIS
   @RHF iter  10:  -595.00783303495268   -7.13953e-11   1.49696e-08 DIIS
   @RHF iter  11:  -595.00783303496110   -8.41283e-12   3.29488e-09 DIIS
   @RHF iter  12:  -595.00783303496064    4.54747e-13   1.08836e-09 DIIS
   @RHF iter  13:  -595.00783303496075   -1.13687e-13   3.51230e-10 DIIS
   @RHF iter  14:  -595.00783303496166   -9.09495e-13   1.34616e-10 DIIS
   @RHF iter  15:  -595.00783303496200   -3.41061e-13   5.10232e-11 DIIS
  Energy and wave function converged.

  ==> Post-Iterations <==

    Orbital Energies [Eh]
    ---------------------

    Doubly Occupied:

       1A    -91.932814     2A    -11.255967     3A    -11.252914
       4A    -11.218063     5A    -11.215634     6A    -11.215272
       7A     -8.937481     8A     -6.619588     9A     -6.618010
      10A     -6.615692    11A     -1.069896    12A     -1.066527
      13A     -0.952547    14A     -0.913470    15A     -0.806745
      16A     -0.799312    17A     -0.640116    18A     -0.615463
      19A     -0.606054    20A     -0.603156    21A     -0.575936
      22A     -0.561955    23A     -0.542899    24A     -0.512187
      25A     -0.500874    26A     -0.485248    27A     -0.472246
      28A     -0.457144    29A     -0.429158    30A     -0.329556

    Virtual:

      31A      0.169272    32A      0.183176    33A      0.196718
      34A      0.216662    35A      0.223610    36A      0.229898
      37A      0.240938    38A      0.248850    39A      0.255863
      40A      0.264602    41A      0.278932    42A      0.294979
      43A      0.301004    44A      0.310469    45A      0.328740
      46A      0.351005    47A      0.373551    48A      0.421123
      49A      0.517747    50A      0.556200    51A      0.572407
      52A      0.592798    53A      0.598892    54A      0.610718
      55A      0.628316    56A      0.646382    57A      0.652117
      58A      0.687139    59A      0.699432    60A      0.726016
      61A      0.777928    62A      0.791921    63A      0.803470
      64A      0.818516    65A      0.827894    66A      0.844162
      67A      0.846713    68A      0.867711    69A      0.873795
      70A      0.880750    71A      0.884920    72A      0.889738
      73A      0.891736    74A      0.898326    75A      0.902296
      76A      0.908945    77A      0.915225    78A      0.917355
      79A      0.937873    80A      0.947853    81A      0.960508
      82A      0.963770    83A      0.991496    84A      1.034724
      85A      1.110837    86A      1.127851    87A      1.175564
      88A      1.222991    89A      1.283259    90A      1.315776
      91A      1.332712    92A      1.381148    93A      1.389104
      94A      1.409620    95A      1.449412    96A      1.478023
      97A      1.480992    98A      1.487774    99A      1.614642
     100A      1.622890   101A      1.630418   102A      1.661021
     103A      1.670054   104A      1.739021   105A      1.742188
     106A      1.807020   107A      1.858954   108A      1.868299
     109A      1.879944   110A      1.888510   111A      1.903299
     112A      1.906363   113A      1.911778   114A      1.918614
     115A      1.936637   116A      1.942644   117A      1.949204
     118A      1.981311   119A      1.991860   120A      1.994729
     121A      2.005984   122A      2.017180   123A      2.022160
     124A      2.032193   125A      2.048490   126A      2.107924
     127A      2.128768   128A      2.138897   129A      2.176230
     130A      2.215286   131A      2.226040   132A      2.232558
     133A      2.302203   134A      2.337842   135A      2.406085
     136A      2.426479   137A      2.443131   138A      2.451021
     139A      2.467932   140A      2.471494   141A      2.512238
     142A      2.547704   143A      2.632193   144A      2.689658
     145A      2.733172   146A      2.756008   147A      2.762609
     148A      2.770306   149A      2.774144   150A      2.790323
     151A      2.793421   152A      2.812686   153A      2.828777
     154A      2.836315   155A      2.876893   156A      2.927889
     157A      2.959223   158A      3.065373

    Final Occupation by Irrep:
              A
    DOCC [    30 ]

  @RHF Final Energy:  -595.00783303496200

   => Energetics <=

    Nuclear Repulsion Energy =            282.4245967540643960
    One-Electron Energy =               -1375.2210116470100729
    Two-Electron Energy =                 497.7885818579836155
    Total Energy =                       -595.0078330349620046

Computation Completed

Properties will be evaluated at   0.000000,   0.000000,   0.000000 [a0]

Properties computed using the SCF density matrix

  Nuclear Dipole Moment: [e a0]
     X:    -9.2650      Y:     0.3464      Z:     9.2300

  Electronic Dipole Moment: [e a0]
     X:     8.7545      Y:    -0.7572      Z:    -9.3285

  Dipole Moment: [e a0]
     X:    -0.5105      Y:    -0.4108      Z:    -0.0986     Total:     0.6626

  Dipole Moment: [D]
     X:    -1.2975      Y:    -1.0441      Z:    -0.2505     Total:     1.6842

*** tstop() called on ds3 at Tue Apr 28 10:21:14 2020
Module time:
	user time   =      26.71 seconds =       0.45 minutes
	system time =       9.73 seconds =       0.16 minutes
	total time  =         52 seconds =       0.87 minutes
Total time:
	user time   =      26.71 seconds =       0.45 minutes
	system time =       9.73 seconds =       0.16 minutes
	total time  =         52 seconds =       0.87 minutes
                                     G D M A

                                 by Anthony Stone

                           version 2.2.06, 22 June 2011

               Distributed Multipoles from Gaussian wavefunctions

Starting at 10:21:14 on 28 Apr 2020

Using SCF density matrix from file ./SSI/SSI-030PRO-057MET-1-dimer.test.9620.fchk

                         Distributed Multipole Analysis

Standard DMA

Positions and radii in angstrom
Multipole moments in atomic units, ea_0^k for rank k

C          x = -1.326038  y =  0.224936  z =  2.348745 angstrom
           Maximum rank =  0   Radius =  0.650 angstrom
                   Q00  =  -0.104353

C          x = -2.756038  y =  0.522936  z =  2.803745 angstrom
           Maximum rank =  0   Radius =  0.650 angstrom
                   Q00  =  -0.236668

C          x = -0.534038  y =  1.332936  z =  3.033745 angstrom
           Maximum rank =  0   Radius =  0.650 angstrom
                   Q00  =  -0.206753

H          x = -1.268038  y =  0.324936  z =  1.268745 angstrom
           Maximum rank =  0   Radius =  0.325 angstrom
                   Q00  =   0.050773

H          x = -0.999038  y = -0.766064  z =  2.665745 angstrom
           Maximum rank =  0   Radius =  0.325 angstrom
                   Q00  =   0.057946

H          x = -3.473038  y =  0.135936  z =  2.077745 angstrom
           Maximum rank =  0   Radius =  0.325 angstrom
                   Q00  =   0.078562

H          x = -2.935038  y =  0.089936  z =  3.788745 angstrom
           Maximum rank =  0   Radius =  0.325 angstrom
                   Q00  =   0.081035

H          x =  0.443962  y =  1.475936  z =  2.570745 angstrom
           Maximum rank =  0   Radius =  0.325 angstrom
                   Q00  =   0.081391

H          x = -0.420038  y =  1.099936  z =  4.093745 angstrom
           Maximum rank =  0   Radius =  0.325 angstrom
                   Q00  =   0.081134

H          x = -2.792618  y =  1.620406  z =  2.868695 angstrom
           Maximum rank =  0   Radius =  0.325 angstrom
                   Q00  =   0.061832

H          x = -1.189988  y =  2.207776  z =  2.913825 angstrom
           Maximum rank =  0   Radius =  0.325 angstrom
                   Q00  =   0.050518

C          x = -0.029038  y = -0.108064  z = -1.093255 angstrom
           Maximum rank =  0   Radius =  0.650 angstrom
                   Q00  =  -0.342521

C          x =  1.303962  y = -1.559064  z = -2.965255 angstrom
           Maximum rank =  0   Radius =  0.650 angstrom
                   Q00  =  -0.354455

S          x =  1.566962  y = -0.167064  z = -1.861255 angstrom
           Maximum rank =  0   Radius =  0.650 angstrom
                   Q00  =   0.131888

H          x = -0.153038  y = -0.969064  z = -0.435255 angstrom
           Maximum rank =  0   Radius =  0.325 angstrom
                   Q00  =   0.080381

H          x = -0.107038  y =  0.813936  z = -0.516255 angstrom
           Maximum rank =  0   Radius =  0.325 angstrom
                   Q00  =   0.115705

H          x = -0.804038  y = -0.121064  z = -1.855255 angstrom
           Maximum rank =  0   Radius =  0.325 angstrom
                   Q00  =   0.083651

H          x =  0.377962  y = -1.428064  z = -3.524255 angstrom
           Maximum rank =  0   Radius =  0.325 angstrom
                   Q00  =   0.086782

H          x =  1.230962  y = -2.469064  z = -2.370255 angstrom
           Maximum rank =  0   Radius =  0.325 angstrom
                   Q00  =   0.082608

H          x =  2.161932  y = -1.641226  z = -3.648725 angstrom
           Maximum rank =  0   Radius =  0.325 angstrom
                   Q00  =   0.120545

Total multipoles referred to origin at
           x =   0.000000,  y =    0.000000,  z =    0.000000 angstrom
                   Q00  =  -0.000000

Finished at 10:21:14 on 28 Apr 2020

  DMA results are available in the Python driver through the
	  variable('DMA DISTRIBUTED MULTIPOLES')
  and
	  variable('DMA TOTAL MULTIPOLES')
  commands.

    Psi4 stopped on: Tuesday, 28 April 2020 10:21AM
    Psi4 wall time for execution: 0:00:51.92

*** Psi4 exiting successfully. Buy a developer a beer!
