                               Psi4 1.3.2 release

  ==> Input File <==

--------------------------------------------------------------------------
import numpy as np
set {scf_type pk
basis cc-pvdz
d_convergence 10
gdma_switch   0
gdma_limit    0
gdma_origin   [ 0.0,  0.0,  0.0 ]
}
molecule test {
    units Angstrom
    0 1
    --
    0 1
    C               -1.448628149224094    -1.195466410572134    -2.446315346284973
    C               -2.946628149224093    -0.985466410572134    -2.017315346284973
    H               -1.132628149224093    -2.212466410572135    -2.214315346284973
    H               -1.338628149224093    -0.990466410572134    -3.509315346284974
    H               -0.817628149224094    -0.494466410572134    -1.898315346284973
    H               -3.556628149224093    -1.754466410572134    -2.479315346284973
    H               -3.090338149224093    -1.019238410572134    -0.927265346284973
    H               -3.327658149224093    -0.019692410572134    -2.380765346284973
    C               -1.446628149224094     1.010533589427866     2.578684653715027
    C                1.000371850775907    -1.026466410572134     0.517684653715027
    C                1.551371850775906    -0.037466410572134    -0.307315346284973
    C                0.034371850775906    -0.674466410572134     1.429684653715027
    C               -0.389628149224094     0.659533589427866     1.559684653715027
    C                1.194371850775906     1.308533589427866    -0.169315346284973
    C                0.205371850775906     1.649533589427866     0.771684653715027
    O                2.511371850775907    -0.428466410572134    -1.183315346284973
    H                1.336371850775906    -2.050466410572134     0.430684653715027
    H               -0.346628149224094    -1.419466410572134     2.095684653715027
    H                1.667371850775906     2.070533589427866    -0.771315346284973
    H                2.824371850775907     0.306533589427866    -1.721315346284973
    H               -2.080628149224094     0.131533589427866     2.698684653715027
    H               -2.083628149224094     1.796533589427866     2.169684653715027
    H               -0.088628149224094     2.684533589427866     0.893684653715027
    H               -1.083778149224093     1.331546589427866     3.566254653715027

}
e, wfn = energy('scf', return_wfn=True)
gdma(wfn)
dmavals = variable('DMA DISTRIBUTED MULTIPOLES')
charges = np.array(dmavals)
print(charges)
np.save('SSI-083LEU-088TYR-2-dimer.npy', np.array(charges))--------------------------------------------------------------------------

*** tstart() called on ds3
*** at Tue Apr 28 13:58:40 2020

   => Loading Basis Set <=

    Name: CC-PVDZ
    Role: ORBITAL
    Keyword: BASIS
    atoms 1-2, 9-15  entry C          line   138 file /theoryfs2/ds/metcalf/miniconda2/envs/tf2gpu/share/psi4/basis/cc-pvdz.gbs
    atoms 3-8, 17-24 entry H          line    22 file /theoryfs2/ds/metcalf/miniconda2/envs/tf2gpu/share/psi4/basis/cc-pvdz.gbs
    atoms 16         entry O          line   198 file /theoryfs2/ds/metcalf/miniconda2/envs/tf2gpu/share/psi4/basis/cc-pvdz.gbs

         ---------------------------------------------------------
                                   SCF
               by Justin Turney, Rob Parrish, Andy Simmonett
                          and Daniel G. A. Smith
                              RHF Reference
                        1 Threads,    500 MiB Core
         ---------------------------------------------------------

  ==> Geometry <==

    Molecular point group: c1
    Full point group: C1

    Geometry (in Angstrom), charge = 0, multiplicity = 1:

       Center              X                  Y                   Z               Mass
    ------------   -----------------  -----------------  -----------------  -----------------
         C           -1.448628149224    -1.195466410572    -2.446315346285    12.000000000000
         C           -2.946628149224    -0.985466410572    -2.017315346285    12.000000000000
         H           -1.132628149224    -2.212466410572    -2.214315346285     1.007825032230
         H           -1.338628149224    -0.990466410572    -3.509315346285     1.007825032230
         H           -0.817628149224    -0.494466410572    -1.898315346285     1.007825032230
         H           -3.556628149224    -1.754466410572    -2.479315346285     1.007825032230
         H           -3.090338149224    -1.019238410572    -0.927265346285     1.007825032230
         H           -3.327658149224    -0.019692410572    -2.380765346285     1.007825032230
         C           -1.446628149224     1.010533589428     2.578684653715    12.000000000000
         C            1.000371850776    -1.026466410572     0.517684653715    12.000000000000
         C            1.551371850776    -0.037466410572    -0.307315346285    12.000000000000
         C            0.034371850776    -0.674466410572     1.429684653715    12.000000000000
         C           -0.389628149224     0.659533589428     1.559684653715    12.000000000000
         C            1.194371850776     1.308533589428    -0.169315346285    12.000000000000
         C            0.205371850776     1.649533589428     0.771684653715    12.000000000000
         O            2.511371850776    -0.428466410572    -1.183315346285    15.994914619570
         H            1.336371850776    -2.050466410572     0.430684653715     1.007825032230
         H           -0.346628149224    -1.419466410572     2.095684653715     1.007825032230
         H            1.667371850776     2.070533589428    -0.771315346285     1.007825032230
         H            2.824371850776     0.306533589428    -1.721315346285     1.007825032230
         H           -2.080628149224     0.131533589428     2.698684653715     1.007825032230
         H           -2.083628149224     1.796533589428     2.169684653715     1.007825032230
         H           -0.088628149224     2.684533589428     0.893684653715     1.007825032230
         H           -1.083778149224     1.331546589428     3.566254653715     1.007825032230

  Running in c1 symmetry.

  Rotational constants: A =      0.03770  B =      0.03180  C =      0.02123 [cm^-1]
  Rotational constants: A =   1130.17009  B =    953.44503  C =    636.46745 [MHz]
  Nuclear repulsion =  502.162941374182651

  Charge       = 0
  Multiplicity = 1
  Electrons    = 76
  Nalpha       = 38
  Nbeta        = 38

  ==> Algorithm <==

  SCF Algorithm Type is PK.
  DIIS enabled.
  MOM disabled.
  Fractional occupation disabled.
  Guess Type is SAD.
  Energy threshold   = 1.00e-06
  Density threshold  = 1.00e-10
  Integral threshold = 0.00e+00

  ==> Primary Basis <==

  Basis Set: CC-PVDZ
    Blend: CC-PVDZ
    Number of shells: 102
    Number of basis function: 210
    Number of Cartesian functions: 220
    Spherical Harmonics?: true
    Max angular momentum: 2

  ==> Pre-Iterations <==

   -------------------------------------------------------
    Irrep   Nso     Nmo     Nalpha   Nbeta   Ndocc  Nsocc
   -------------------------------------------------------
     A        210     210       0       0       0       0
   -------------------------------------------------------
    Total     210     210      38      38      38       0
   -------------------------------------------------------

  ==> Integral Setup <==

  Using integral reordering PK algorithm.
  Sizing the integral batches needed.
  Building batch lookup table.
   Calculation information:
      Number of atoms:                  24
      Number of AO shells:             102
      Number of primitives:            290
      Number of atomic orbitals:       220
      Number of basis functions:       210

      Integral cutoff                 1.00e-12
      Number of threads:                 1

	Batch   1 pq = [       0,    9405] index = [             0,44231715] size =     44231715
	Batch   2 pq = [    9405,   13301] index = [      44231715,88464951] size =     44233236
	Batch   3 pq = [   13301,   16290] index = [      88464951,132690195] size =     44225244
	Batch   4 pq = [   16290,   18810] index = [     132690195,176917455] size =     44227260
	Batch   5 pq = [   18810,   21030] index = [     176917455,221140965] size =     44223510
	Batch   6 pq = [   21030,   22155] index = [     221140965,245433090] size =     24292125
  Task number: 23
  Buffer size: 11059200
  Buffer per thread: 2
  We computed 12653579 shell quartets total.
  Whereas there are 13799631 unique shell quartets.

  ==> DiskJK: Disk-Based J/K Matrices <==

    J tasked:                  Yes
    K tasked:                  Yes
    wK tasked:                  No
    Memory [MiB]:              375
    Schwarz Cutoff:          1E-12

    OpenMP threads:              1

  Minimum eigenvalue in the overlap matrix is 3.3595660761E-04.
  Using Symmetric Orthogonalization.

  SCF Guess: Superposition of Atomic Densities via on-the-fly atomic UHF.

  ==> Iterations <==

                        Total Energy        Delta E     RMS |[F,P]|

   @RHF iter SAD:  -422.56960275808410   -4.22570e+02   0.00000e+00
   @RHF iter   1:  -423.60323224160322   -1.03363e+00   2.95621e-03 DIIS
   @RHF iter   2:  -423.81635473905123   -2.13122e-01   1.25339e-03 DIIS
   @RHF iter   3:  -423.85095533707488   -3.46006e-02   2.88341e-04 DIIS
   @RHF iter   4:  -423.85384053929857   -2.88520e-03   1.22665e-04 DIIS
   @RHF iter   5:  -423.85423279922253   -3.92260e-04   2.05692e-05 DIIS
   @RHF iter   6:  -423.85425132489655   -1.85257e-05   6.63357e-06 DIIS
   @RHF iter   7:  -423.85425340734497   -2.08245e-06   2.48431e-06 DIIS
   @RHF iter   8:  -423.85425383325685   -4.25912e-07   1.02761e-06 DIIS
   @RHF iter   9:  -423.85425394332981   -1.10073e-07   5.02623e-07 DIIS
   @RHF iter  10:  -423.85425396993929   -2.66095e-08   2.11269e-07 DIIS
   @RHF iter  11:  -423.85425397679438   -6.85509e-09   7.96609e-08 DIIS
   @RHF iter  12:  -423.85425397735690   -5.62522e-10   3.06501e-08 DIIS
   @RHF iter  13:  -423.85425397741892   -6.20162e-11   8.67452e-09 DIIS
   @RHF iter  14:  -423.85425397742438   -5.45697e-12   2.85167e-09 DIIS
   @RHF iter  15:  -423.85425397742392    4.54747e-13   1.33687e-09 DIIS
   @RHF iter  16:  -423.85425397742466   -7.38964e-13   6.12031e-10 DIIS
   @RHF iter  17:  -423.85425397742307    1.59162e-12   2.38050e-10 DIIS
   @RHF iter  18:  -423.85425397742233    7.38964e-13   9.50830e-11 DIIS
  Energy and wave function converged.

  ==> Post-Iterations <==

    Orbital Energies [Eh]
    ---------------------

    Doubly Occupied:

       1A    -20.583723     2A    -11.301416     3A    -11.242280
       4A    -11.236599     5A    -11.236329     6A    -11.234541
       7A    -11.229030     8A    -11.227425     9A    -11.213879
      10A    -11.210036    11A     -1.402720    12A     -1.148373
      13A     -1.034250    14A     -1.019753    15A     -0.998329
      16A     -0.924020    17A     -0.845300    18A     -0.833131
      19A     -0.802128    20A     -0.731920    21A     -0.666424
      22A     -0.643004    23A     -0.605917    24A     -0.591603
      25A     -0.590140    26A     -0.583513    27A     -0.579531
      28A     -0.570811    29A     -0.565382    30A     -0.524627
      31A     -0.497457    32A     -0.486053    33A     -0.485739
      34A     -0.481751    35A     -0.479489    36A     -0.463083
      37A     -0.340715    38A     -0.298393

    Virtual:

      39A      0.128974    40A      0.152990    41A      0.176312
      42A      0.179293    43A      0.201936    44A      0.211880
      45A      0.221079    46A      0.243115    47A      0.258161
      48A      0.263434    49A      0.266272    50A      0.271128
      51A      0.284981    52A      0.292351    53A      0.299901
      54A      0.306022    55A      0.369346    56A      0.370960
      57A      0.392019    58A      0.430814    59A      0.454664
      60A      0.477446    61A      0.497199    62A      0.507126
      63A      0.580494    64A      0.592508    65A      0.608378
      66A      0.615298    67A      0.643394    68A      0.657253
      69A      0.664038    70A      0.671322    71A      0.678443
      72A      0.687971    73A      0.696857    74A      0.728027
      75A      0.732159    76A      0.749506    77A      0.766889
      78A      0.771513    79A      0.789346    80A      0.794598
      81A      0.821190    82A      0.830171    83A      0.847066
      84A      0.859520    85A      0.865134    86A      0.876303
      87A      0.885705    88A      0.891688    89A      0.897230
      90A      0.900792    91A      0.908060    92A      0.915880
      93A      0.925439    94A      0.927678    95A      0.931491
      96A      0.940757    97A      0.958513    98A      0.973413
      99A      0.999706   100A      1.016394   101A      1.048930
     102A      1.068858   103A      1.111885   104A      1.125887
     105A      1.130669   106A      1.146881   107A      1.157265
     108A      1.170243   109A      1.203108   110A      1.229910
     111A      1.247065   112A      1.263162   113A      1.280747
     114A      1.287820   115A      1.292299   116A      1.303090
     117A      1.314939   118A      1.360757   119A      1.366316
     120A      1.385602   121A      1.463687   122A      1.476198
     123A      1.487109   124A      1.496178   125A      1.523182
     126A      1.543035   127A      1.584039   128A      1.619886
     129A      1.623390   130A      1.692208   131A      1.698101
     132A      1.704454   133A      1.707040   134A      1.733414
     135A      1.749113   136A      1.775275   137A      1.792531
     138A      1.819484   139A      1.856609   140A      1.868655
     141A      1.882057   142A      1.883607   143A      1.889330
     144A      1.901204   145A      1.907955   146A      1.915252
     147A      1.924045   148A      1.931952   149A      1.935451
     150A      1.945413   151A      1.951144   152A      1.959766
     153A      1.967769   154A      1.974019   155A      1.978317
     156A      1.992538   157A      2.030929   158A      2.042237
     159A      2.059531   160A      2.073119   161A      2.074182
     162A      2.105333   163A      2.130139   164A      2.140840
     165A      2.149988   166A      2.160815   167A      2.185663
     168A      2.228616   169A      2.248236   170A      2.274641
     171A      2.294697   172A      2.302987   173A      2.318769
     174A      2.325810   175A      2.377506   176A      2.427696
     177A      2.444220   178A      2.451550   179A      2.468210
     180A      2.474083   181A      2.482215   182A      2.542820
     183A      2.557556   184A      2.567604   185A      2.582735
     186A      2.593786   187A      2.638764   188A      2.750232
     189A      2.763320   190A      2.775922   191A      2.790225
     192A      2.805596   193A      2.810813   194A      2.847209
     195A      2.862327   196A      2.868481   197A      2.897488
     198A      2.940930   199A      2.956471   200A      2.980630
     201A      3.004847   202A      3.083063   203A      3.107964
     204A      3.250558   205A      3.271662   206A      3.350159
     207A      3.573778   208A      3.689674   209A      3.945971
     210A      4.199051

    Final Occupation by Irrep:
              A
    DOCC [    38 ]

  @RHF Final Energy:  -423.85425397742233

   => Energetics <=

    Nuclear Repulsion Energy =            502.1629413741826511
    One-Electron Energy =               -1570.2167666022346566
    Two-Electron Energy =                 644.1995712506297878
    Total Energy =                       -423.8542539774223314

Computation Completed

Properties will be evaluated at   0.000000,   0.000000,   0.000000 [a0]

Properties computed using the SCF density matrix

  Nuclear Dipole Moment: [e a0]
     X:   -12.2863      Y:    -1.5391      Z:    -3.7999

  Electronic Dipole Moment: [e a0]
     X:    12.3009      Y:     2.0894      Z:     3.7840

  Dipole Moment: [e a0]
     X:     0.0146      Y:     0.5504      Z:    -0.0158     Total:     0.5508

  Dipole Moment: [D]
     X:     0.0371      Y:     1.3989      Z:    -0.0403     Total:     1.4000

*** tstop() called on ds3 at Tue Apr 28 14:00:57 2020
Module time:
	user time   =      98.78 seconds =       1.65 minutes
	system time =      43.78 seconds =       0.73 minutes
	total time  =        137 seconds =       2.28 minutes
Total time:
	user time   =      98.78 seconds =       1.65 minutes
	system time =      43.78 seconds =       0.73 minutes
	total time  =        137 seconds =       2.28 minutes
                                     G D M A

                                 by Anthony Stone

                           version 2.2.06, 22 June 2011

               Distributed Multipoles from Gaussian wavefunctions

Starting at 14:0:57 on 28 Apr 2020

Using SCF density matrix from file ./SSI/SSI-083LEU-088TYR-2-dimer.test.7828.fchk

                         Distributed Multipole Analysis

Standard DMA

Positions and radii in angstrom
Multipole moments in atomic units, ea_0^k for rank k

C          x = -1.448628  y = -1.195466  z = -2.446315 angstrom
           Maximum rank =  0   Radius =  0.650 angstrom
                   Q00  =  -0.240770

C          x = -2.946628  y = -0.985466  z = -2.017315 angstrom
           Maximum rank =  0   Radius =  0.650 angstrom
                   Q00  =  -0.254708

H          x = -1.132628  y = -2.212466  z = -2.214315 angstrom
           Maximum rank =  0   Radius =  0.325 angstrom
                   Q00  =   0.082498

H          x = -1.338628  y = -0.990466  z = -3.509315 angstrom
           Maximum rank =  0   Radius =  0.325 angstrom
                   Q00  =   0.077202

H          x = -0.817628  y = -0.494466  z = -1.898315 angstrom
           Maximum rank =  0   Radius =  0.325 angstrom
                   Q00  =   0.093245

H          x = -3.556628  y = -1.754466  z = -2.479315 angstrom
           Maximum rank =  0   Radius =  0.325 angstrom
                   Q00  =   0.076724

H          x = -3.090338  y = -1.019238  z = -0.927265 angstrom
           Maximum rank =  0   Radius =  0.325 angstrom
                   Q00  =   0.083793

H          x = -3.327658  y = -0.019692  z = -2.380765 angstrom
           Maximum rank =  0   Radius =  0.325 angstrom
                   Q00  =   0.077343

C          x = -1.446628  y =  1.010534  z =  2.578685 angstrom
           Maximum rank =  0   Radius =  0.650 angstrom
                   Q00  =  -0.196926

C          x =  1.000372  y = -1.026466  z =  0.517685 angstrom
           Maximum rank =  0   Radius =  0.650 angstrom
                   Q00  =  -0.103682

C          x =  1.551372  y = -0.037466  z = -0.307315 angstrom
           Maximum rank =  0   Radius =  0.650 angstrom
                   Q00  =   0.354383

C          x =  0.034372  y = -0.674466  z =  1.429685 angstrom
           Maximum rank =  0   Radius =  0.650 angstrom
                   Q00  =   0.032965

C          x = -0.389628  y =  0.659534  z =  1.559685 angstrom
           Maximum rank =  0   Radius =  0.650 angstrom
                   Q00  =  -0.136878

C          x =  1.194372  y =  1.308534  z = -0.169315 angstrom
           Maximum rank =  0   Radius =  0.650 angstrom
                   Q00  =  -0.212126

C          x =  0.205372  y =  1.649534  z =  0.771685 angstrom
           Maximum rank =  0   Radius =  0.650 angstrom
                   Q00  =  -0.062300

O          x =  2.511372  y = -0.428466  z = -1.183315 angstrom
           Maximum rank =  0   Radius =  0.650 angstrom
                   Q00  =  -0.655426

H          x =  1.336372  y = -2.050466  z =  0.430685 angstrom
           Maximum rank =  0   Radius =  0.325 angstrom
                   Q00  =   0.081252

H          x = -0.346628  y = -1.419466  z =  2.095685 angstrom
           Maximum rank =  0   Radius =  0.325 angstrom
                   Q00  =   0.063342

H          x =  1.667372  y =  2.070534  z = -0.771315 angstrom
           Maximum rank =  0   Radius =  0.325 angstrom
                   Q00  =   0.076030

H          x =  2.824372  y =  0.306534  z = -1.721315 angstrom
           Maximum rank =  0   Radius =  0.325 angstrom
                   Q00  =   0.404544

H          x = -2.080628  y =  0.131534  z =  2.698685 angstrom
           Maximum rank =  0   Radius =  0.325 angstrom
                   Q00  =   0.093323

H          x = -2.083628  y =  1.796534  z =  2.169685 angstrom
           Maximum rank =  0   Radius =  0.325 angstrom
                   Q00  =   0.095605

H          x = -0.088628  y =  2.684534  z =  0.893685 angstrom
           Maximum rank =  0   Radius =  0.325 angstrom
                   Q00  =   0.070664

H          x = -1.083778  y =  1.331547  z =  3.566255 angstrom
           Maximum rank =  0   Radius =  0.325 angstrom
                   Q00  =   0.099903

Total multipoles referred to origin at
           x =   0.000000,  y =    0.000000,  z =    0.000000 angstrom
                   Q00  =  -0.000000

Finished at 14:0:57 on 28 Apr 2020

  DMA results are available in the Python driver through the
	  variable('DMA DISTRIBUTED MULTIPOLES')
  and
	  variable('DMA TOTAL MULTIPOLES')
  commands.

    Psi4 stopped on: Tuesday, 28 April 2020 02:00PM
    Psi4 wall time for execution: 0:02:17.92

*** Psi4 exiting successfully. Buy a developer a beer!
