                               Psi4 1.3.2 release

  ==> Input File <==

--------------------------------------------------------------------------
import numpy as np
set {scf_type pk
basis cc-pvdz
d_convergence 10
gdma_switch   0
gdma_limit    0
gdma_origin   [ 0.0,  0.0,  0.0 ]
}
molecule test {
    units Angstrom
    1 1
    --
    1 1
    C                0.866211747250625    -2.233476824974622    -0.173706966765333
    C                0.291211747250625    -0.020476824974622    -1.160706966765333
    N                1.169211747250624    -0.871476824974622    -0.645706966765333
    N               -0.956788252749375    -0.379476824974622    -1.386706966765333
    N                0.699211747250625     1.182523175025378    -1.508706966765333
    H                2.117211747250625    -0.548476824974622    -0.505706966765333
    H               -1.264788252749375    -1.322476824974622    -1.172706966765333
    H               -1.613788252749375     0.291523175025378    -1.769706966765333
    H                1.669211747250624     1.445523175025377    -1.392706966765333
    H                0.046211747250625     1.852523175025377    -1.901706966765333
    H               -0.185788252749375    -2.282476824974622     0.106293033234667
    H                1.478211747250625    -2.443476824974623     0.702293033234667
    H                1.051811747250625    -3.036296824974622    -0.902426966765333
    C               -0.744788252749375     0.417523175025378     2.532293033234667
    C               -1.247788252749375     1.849523175025378     2.292293033234667
    H               -0.056788252749375     0.405523175025378     3.376293033234667
    H               -1.589788252749375    -0.234476824974622     2.754293033234668
    H               -0.232788252749375     0.053523175025378     1.643293033234667
    H               -1.763788252749375     2.206523175025378     3.182293033234667
    H               -1.938788252749375     1.845523175025378     1.452293033234667
    H               -0.438908252749375     2.561923175025378     2.072603033234667

}
e, wfn = energy('scf', return_wfn=True)
gdma(wfn)
dmavals = variable('DMA DISTRIBUTED MULTIPOLES')
charges = np.array(dmavals)
print(charges)
np.save('SSI-150ARG-208ILE-1-dimer.npy', np.array(charges))--------------------------------------------------------------------------

*** tstart() called on ds3
*** at Mon Apr 27 17:49:32 2020

   => Loading Basis Set <=

    Name: CC-PVDZ
    Role: ORBITAL
    Keyword: BASIS
    atoms 1-2, 14-15  entry C          line   138 file /theoryfs2/ds/metcalf/miniconda2/envs/tf2gpu/share/psi4/basis/cc-pvdz.gbs
    atoms 3-5         entry N          line   168 file /theoryfs2/ds/metcalf/miniconda2/envs/tf2gpu/share/psi4/basis/cc-pvdz.gbs
    atoms 6-13, 16-21 entry H          line    22 file /theoryfs2/ds/metcalf/miniconda2/envs/tf2gpu/share/psi4/basis/cc-pvdz.gbs

         ---------------------------------------------------------
                                   SCF
               by Justin Turney, Rob Parrish, Andy Simmonett
                          and Daniel G. A. Smith
                              RHF Reference
                        1 Threads,    500 MiB Core
         ---------------------------------------------------------

  ==> Geometry <==

    Molecular point group: c1
    Full point group: C1

    Geometry (in Angstrom), charge = 1, multiplicity = 1:

       Center              X                  Y                   Z               Mass
    ------------   -----------------  -----------------  -----------------  -----------------
         C            0.866211747251    -2.233476824975    -0.173706966765    12.000000000000
         C            0.291211747251    -0.020476824975    -1.160706966765    12.000000000000
         N            1.169211747251    -0.871476824975    -0.645706966765    14.003074004430
         N           -0.956788252749    -0.379476824975    -1.386706966765    14.003074004430
         N            0.699211747251     1.182523175025    -1.508706966765    14.003074004430
         H            2.117211747251    -0.548476824975    -0.505706966765     1.007825032230
         H           -1.264788252749    -1.322476824975    -1.172706966765     1.007825032230
         H           -1.613788252749     0.291523175025    -1.769706966765     1.007825032230
         H            1.669211747251     1.445523175025    -1.392706966765     1.007825032230
         H            0.046211747251     1.852523175025    -1.901706966765     1.007825032230
         H           -0.185788252749    -2.282476824975     0.106293033235     1.007825032230
         H            1.478211747251    -2.443476824975     0.702293033235     1.007825032230
         H            1.051811747251    -3.036296824975    -0.902426966765     1.007825032230
         C           -0.744788252749     0.417523175025     2.532293033235    12.000000000000
         C           -1.247788252749     1.849523175025     2.292293033235    12.000000000000
         H           -0.056788252749     0.405523175025     3.376293033235     1.007825032230
         H           -1.589788252749    -0.234476824975     2.754293033235     1.007825032230
         H           -0.232788252749     0.053523175025     1.643293033235     1.007825032230
         H           -1.763788252749     2.206523175025     3.182293033235     1.007825032230
         H           -1.938788252749     1.845523175025     1.452293033235     1.007825032230
         H           -0.438908252749     2.561923175025     2.072603033235     1.007825032230

  Running in c1 symmetry.

  Rotational constants: A =      0.08591  B =      0.04150  C =      0.03402 [cm^-1]
  Rotational constants: A =   2575.54353  B =   1244.26723  C =   1020.02929 [MHz]
  Nuclear repulsion =  326.229159698971216

  Charge       = 1
  Multiplicity = 1
  Electrons    = 58
  Nalpha       = 29
  Nbeta        = 29

  ==> Algorithm <==

  SCF Algorithm Type is PK.
  DIIS enabled.
  MOM disabled.
  Fractional occupation disabled.
  Guess Type is SAD.
  Energy threshold   = 1.00e-06
  Density threshold  = 1.00e-10
  Integral threshold = 0.00e+00

  ==> Primary Basis <==

  Basis Set: CC-PVDZ
    Blend: CC-PVDZ
    Number of shells: 84
    Number of basis function: 168
    Number of Cartesian functions: 175
    Spherical Harmonics?: true
    Max angular momentum: 2

  ==> Pre-Iterations <==

   -------------------------------------------------------
    Irrep   Nso     Nmo     Nalpha   Nbeta   Ndocc  Nsocc
   -------------------------------------------------------
     A        168     168       0       0       0       0
   -------------------------------------------------------
    Total     168     168      29      29      29       0
   -------------------------------------------------------

  ==> Integral Setup <==

  Using integral reordering PK algorithm.
  Sizing the integral batches needed.
  Building batch lookup table.
   Calculation information:
      Number of atoms:                  21
      Number of AO shells:              84
      Number of primitives:            224
      Number of atomic orbitals:       175
      Number of basis functions:       168

      Integral cutoff                 1.00e-12
      Number of threads:                 1

	Batch   1 pq = [       0,    9405] index = [             0,44231715] size =     44231715
	Batch   2 pq = [    9405,   13301] index = [      44231715,88464951] size =     44233236
	Batch   3 pq = [   13301,   14196] index = [      88464951,100770306] size =     12305355
  Task number: 10
  Buffer size: 11059200
  Buffer per thread: 2
  We computed 6149427 shell quartets total.
  Whereas there are 6374235 unique shell quartets.

  ==> DiskJK: Disk-Based J/K Matrices <==

    J tasked:                  Yes
    K tasked:                  Yes
    wK tasked:                  No
    Memory [MiB]:              375
    Schwarz Cutoff:          1E-12

    OpenMP threads:              1

  Minimum eigenvalue in the overlap matrix is 3.4977815286E-03.
  Using Symmetric Orthogonalization.

  SCF Guess: Superposition of Atomic Densities via on-the-fly atomic UHF.

  ==> Iterations <==

                        Total Energy        Delta E     RMS |[F,P]|

   @RHF iter SAD:  -322.09337657714082   -3.22093e+02   0.00000e+00
   @RHF iter   1:  -322.61623473536378   -5.22858e-01   3.40512e-03 DIIS
   @RHF iter   2:  -322.78747548266693   -1.71241e-01   1.33528e-03 DIIS
   @RHF iter   3:  -322.81247219277941   -2.49967e-02   3.19114e-04 DIIS
   @RHF iter   4:  -322.81488333826491   -2.41115e-03   5.03068e-05 DIIS
   @RHF iter   5:  -322.81494603081342   -6.26925e-05   2.04973e-05 DIIS
   @RHF iter   6:  -322.81495464669274   -8.61588e-06   4.36773e-06 DIIS
   @RHF iter   7:  -322.81495527650344   -6.29811e-07   1.54048e-06 DIIS
   @RHF iter   8:  -322.81495532877636   -5.22729e-08   4.64297e-07 DIIS
   @RHF iter   9:  -322.81495533382315   -5.04679e-09   1.02531e-07 DIIS
   @RHF iter  10:  -322.81495533411510   -2.91948e-10   3.10997e-08 DIIS
   @RHF iter  11:  -322.81495533413943   -2.43290e-11   7.47293e-09 DIIS
   @RHF iter  12:  -322.81495533414193   -2.50111e-12   2.74029e-09 DIIS
   @RHF iter  13:  -322.81495533414022    1.70530e-12   9.94098e-10 DIIS
   @RHF iter  14:  -322.81495533414034   -1.13687e-13   3.26397e-10 DIIS
   @RHF iter  15:  -322.81495533414142   -1.08002e-12   6.80276e-11 DIIS
  Energy and wave function converged.

  ==> Post-Iterations <==

    Orbital Energies [Eh]
    ---------------------

    Doubly Occupied:

       1A    -15.791615     2A    -15.789329     3A    -15.787790
       4A    -11.591602     5A    -11.442362     6A    -11.330259
       7A    -11.324904     8A     -1.546665     9A     -1.401323
      10A     -1.392514    11A     -1.141344    12A     -1.126771
      13A     -1.039244    14A     -0.979965    15A     -0.948766
      16A     -0.940952    17A     -0.861857    18A     -0.857180
      19A     -0.824396    20A     -0.794143    21A     -0.740174
      22A     -0.727769    23A     -0.709633    24A     -0.704549
      25A     -0.619046    26A     -0.609699    27A     -0.599586
      28A     -0.594159    29A     -0.584292

    Virtual:

      30A     -0.015485    31A      0.022525    32A      0.026167
      33A      0.029218    34A      0.060462    35A      0.079947
      36A      0.087557    37A      0.109578    38A      0.123539
      39A      0.131551    40A      0.147821    41A      0.154862
      42A      0.157193    43A      0.180810    44A      0.184046
      45A      0.203431    46A      0.277088    47A      0.300380
      48A      0.323911    49A      0.334565    50A      0.444712
      51A      0.456161    52A      0.469818    53A      0.480380
      54A      0.507298    55A      0.526684    56A      0.533431
      57A      0.543478    58A      0.546720    59A      0.555858
      60A      0.587711    61A      0.604612    62A      0.650213
      63A      0.671863    64A      0.684845    65A      0.700134
      66A      0.718383    67A      0.732066    68A      0.742813
      69A      0.754211    70A      0.771242    71A      0.778541
      72A      0.788730    73A      0.791479    74A      0.807366
      75A      0.826757    76A      0.838340    77A      0.858271
      78A      0.863056    79A      0.884925    80A      0.910093
      81A      0.931965    82A      0.950052    83A      1.005310
      84A      1.015253    85A      1.024112    86A      1.054844
      87A      1.115622    88A      1.130929    89A      1.152873
      90A      1.175025    91A      1.200213    92A      1.215902
      93A      1.236943    94A      1.286086    95A      1.359172
      96A      1.368531    97A      1.382063    98A      1.455989
      99A      1.475053   100A      1.489147   101A      1.520818
     102A      1.553064   103A      1.575170   104A      1.585906
     105A      1.596990   106A      1.618986   107A      1.656754
     108A      1.690779   109A      1.705421   110A      1.723610
     111A      1.745731   112A      1.760431   113A      1.768540
     114A      1.777952   115A      1.782079   116A      1.791892
     117A      1.796117   118A      1.803335   119A      1.837849
     120A      1.841378   121A      1.844271   122A      1.857071
     123A      1.866812   124A      1.880670   125A      1.897282
     126A      1.970532   127A      1.992792   128A      2.005405
     129A      2.022020   130A      2.040806   131A      2.120657
     132A      2.155173   133A      2.175458   134A      2.200292
     135A      2.214651   136A      2.236397   137A      2.261836
     138A      2.292967   139A      2.318024   140A      2.323658
     141A      2.351740   142A      2.368424   143A      2.370747
     144A      2.417763   145A      2.436636   146A      2.458224
     147A      2.474477   148A      2.533942   149A      2.590332
     150A      2.595471   151A      2.629271   152A      2.665231
     153A      2.691017   154A      2.722551   155A      2.742513
     156A      2.751724   157A      2.767645   158A      2.780281
     159A      2.813774   160A      2.837716   161A      2.851580
     162A      2.873384   163A      2.899016   164A      3.058159
     165A      3.088553   166A      3.112564   167A      3.573527
     168A      3.639325

    Final Occupation by Irrep:
              A
    DOCC [    29 ]

  @RHF Final Energy:  -322.81495533414142

   => Energetics <=

    Nuclear Repulsion Energy =            326.2291596989712161
    One-Electron Energy =               -1072.4844550967620762
    Two-Electron Energy =                 423.4403400636494439
    Total Energy =                       -322.8149553341414162

Computation Completed

Properties will be evaluated at   0.000000,   0.000000,   0.000000 [a0]

Properties computed using the SCF density matrix

  Nuclear Dipole Moment: [e a0]
     X:    -2.5550      Y:     0.7454      Z:     7.1770

  Electronic Dipole Moment: [e a0]
     X:     3.1108      Y:    -1.0194      Z:    -9.0179

  Dipole Moment: [e a0]
     X:     0.5558      Y:    -0.2741      Z:    -1.8409     Total:     1.9425

  Dipole Moment: [D]
     X:     1.4127      Y:    -0.6966      Z:    -4.6792     Total:     4.9372

*** tstop() called on ds3 at Mon Apr 27 17:50:22 2020
Module time:
	user time   =      37.49 seconds =       0.62 minutes
	system time =      13.83 seconds =       0.23 minutes
	total time  =         50 seconds =       0.83 minutes
Total time:
	user time   =      37.49 seconds =       0.62 minutes
	system time =      13.83 seconds =       0.23 minutes
	total time  =         50 seconds =       0.83 minutes
                                     G D M A

                                 by Anthony Stone

                           version 2.2.06, 22 June 2011

               Distributed Multipoles from Gaussian wavefunctions

Starting at 17:50:22 on 27 Apr 2020

Using SCF density matrix from file ./SSI/SSI-150ARG-208ILE-1-dimer.test.12108.fchk

                         Distributed Multipole Analysis

Standard DMA

Positions and radii in angstrom
Multipole moments in atomic units, ea_0^k for rank k

C          x =  0.866212  y = -2.233477  z = -0.173707 angstrom
           Maximum rank =  0   Radius =  0.650 angstrom
                   Q00  =  -0.120089

C          x =  0.291212  y = -0.020477  z = -1.160707 angstrom
           Maximum rank =  0   Radius =  0.650 angstrom
                   Q00  =   1.087948

N          x =  1.169212  y = -0.871477  z = -0.645707 angstrom
           Maximum rank =  0   Radius =  0.650 angstrom
                   Q00  =  -0.495318

N          x = -0.956788  y = -0.379477  z = -1.386707 angstrom
           Maximum rank =  0   Radius =  0.650 angstrom
                   Q00  =  -0.586581

N          x =  0.699212  y =  1.182523  z = -1.508707 angstrom
           Maximum rank =  0   Radius =  0.650 angstrom
                   Q00  =  -0.601126

H          x =  2.117212  y = -0.548477  z = -0.505707 angstrom
           Maximum rank =  0   Radius =  0.325 angstrom
                   Q00  =   0.235027

H          x = -1.264788  y = -1.322477  z = -1.172707 angstrom
           Maximum rank =  0   Radius =  0.325 angstrom
                   Q00  =   0.276242

H          x = -1.613788  y =  0.291523  z = -1.769707 angstrom
           Maximum rank =  0   Radius =  0.325 angstrom
                   Q00  =   0.271385

H          x =  1.669212  y =  1.445523  z = -1.392707 angstrom
           Maximum rank =  0   Radius =  0.325 angstrom
                   Q00  =   0.268436

H          x =  0.046212  y =  1.852523  z = -1.901707 angstrom
           Maximum rank =  0   Radius =  0.325 angstrom
                   Q00  =   0.268699

H          x = -0.185788  y = -2.282477  z =  0.106293 angstrom
           Maximum rank =  0   Radius =  0.325 angstrom
                   Q00  =   0.107486

H          x =  1.478212  y = -2.443477  z =  0.702293 angstrom
           Maximum rank =  0   Radius =  0.325 angstrom
                   Q00  =   0.155644

H          x =  1.051812  y = -3.036297  z = -0.902427 angstrom
           Maximum rank =  0   Radius =  0.325 angstrom
                   Q00  =   0.137402

C          x = -0.744788  y =  0.417523  z =  2.532293 angstrom
           Maximum rank =  0   Radius =  0.650 angstrom
                   Q00  =  -0.237429

C          x = -1.247788  y =  1.849523  z =  2.292293 angstrom
           Maximum rank =  0   Radius =  0.650 angstrom
                   Q00  =  -0.239406

H          x = -0.056788  y =  0.405523  z =  3.376293 angstrom
           Maximum rank =  0   Radius =  0.325 angstrom
                   Q00  =   0.102890

H          x = -1.589788  y = -0.234477  z =  2.754293 angstrom
           Maximum rank =  0   Radius =  0.325 angstrom
                   Q00  =   0.093997

H          x = -0.232788  y =  0.053523  z =  1.643293 angstrom
           Maximum rank =  0   Radius =  0.325 angstrom
                   Q00  =   0.026098

H          x = -1.763788  y =  2.206523  z =  3.182293 angstrom
           Maximum rank =  0   Radius =  0.325 angstrom
                   Q00  =   0.110981

H          x = -1.938788  y =  1.845523  z =  1.452293 angstrom
           Maximum rank =  0   Radius =  0.325 angstrom
                   Q00  =   0.060072

H          x = -0.438908  y =  2.561923  z =  2.072603 angstrom
           Maximum rank =  0   Radius =  0.325 angstrom
                   Q00  =   0.077640

Total multipoles referred to origin at
           x =   0.000000,  y =    0.000000,  z =    0.000000 angstrom
                   Q00  =   1.000000

Finished at 17:50:22 on 27 Apr 2020

  DMA results are available in the Python driver through the
	  variable('DMA DISTRIBUTED MULTIPOLES')
  and
	  variable('DMA TOTAL MULTIPOLES')
  commands.

    Psi4 stopped on: Monday, 27 April 2020 05:50PM
    Psi4 wall time for execution: 0:00:49.39

*** Psi4 exiting successfully. Buy a developer a beer!
