                               Psi4 1.3.2 release

  ==> Input File <==

--------------------------------------------------------------------------
import numpy as np
set {scf_type pk
basis cc-pvdz
d_convergence 10
gdma_switch   0
gdma_limit    0
gdma_origin   [ 0.0,  0.0,  0.0 ]
}
molecule test {
    units Angstrom
    0 1
    --
    0 1
    C               -2.565766484697303    -1.211369356587779     0.044285061991699
    C               -1.268766484697303    -1.009369356587779     0.811285061991699
    O               -1.151766484697303    -0.124369356587779     1.659285061991699
    N               -0.265766484697303    -1.817369356587779     0.490285061991699
    H               -2.797766484697303    -2.276369356587779    -0.010714938008301
    H               -2.397766484697303    -0.850369356587779    -0.970714938008301
    H                0.599233515302697    -1.737369356587779     1.003285061991699
    H               -0.395766484697303    -2.546369356587779    -0.195714938008301
    H               -3.412300484697303    -0.666809356587779     0.487946061991699
    C                1.196233515302697     1.231630643412221    -1.051714938008301
    C                1.724233515302697     2.065630643412221     0.114285061991699
    C                2.265233515302697     0.933630643412221    -2.069714938008301
    H                0.850233515302697     0.286630643412221    -0.637714938008301
    H                0.345233515302697     1.727630643412221    -1.523714938008301
    H                2.745233515302697     1.761630643412221     0.350285061991699
    H                1.096233515302697     1.856630643412221     0.983285061991699
    H                2.530233515302696     1.854630643412221    -2.600714938008301
    H                3.160233515302697     0.559630643412221    -1.559714938008301
    H                1.674843515302697     3.146480643412221    -0.083990938008301
    H                1.886023515302697     0.174470643412221    -2.769624938008301

}
e, wfn = energy('scf', return_wfn=True)
gdma(wfn)
dmavals = variable('DMA DISTRIBUTED MULTIPOLES')
charges = np.array(dmavals)
print(charges)
np.save('SSI-084ASN-099LYS-1-dimer.npy', np.array(charges))--------------------------------------------------------------------------

*** tstart() called on ds3
*** at Tue Apr 28 13:32:08 2020

   => Loading Basis Set <=

    Name: CC-PVDZ
    Role: ORBITAL
    Keyword: BASIS
    atoms 1-2, 10-12 entry C          line   138 file /theoryfs2/ds/metcalf/miniconda2/envs/tf2gpu/share/psi4/basis/cc-pvdz.gbs
    atoms 3          entry O          line   198 file /theoryfs2/ds/metcalf/miniconda2/envs/tf2gpu/share/psi4/basis/cc-pvdz.gbs
    atoms 4          entry N          line   168 file /theoryfs2/ds/metcalf/miniconda2/envs/tf2gpu/share/psi4/basis/cc-pvdz.gbs
    atoms 5-9, 13-20 entry H          line    22 file /theoryfs2/ds/metcalf/miniconda2/envs/tf2gpu/share/psi4/basis/cc-pvdz.gbs

         ---------------------------------------------------------
                                   SCF
               by Justin Turney, Rob Parrish, Andy Simmonett
                          and Daniel G. A. Smith
                              RHF Reference
                        1 Threads,    500 MiB Core
         ---------------------------------------------------------

  ==> Geometry <==

    Molecular point group: c1
    Full point group: C1

    Geometry (in Angstrom), charge = 0, multiplicity = 1:

       Center              X                  Y                   Z               Mass
    ------------   -----------------  -----------------  -----------------  -----------------
         C           -2.565766484697    -1.211369356588     0.044285061992    12.000000000000
         C           -1.268766484697    -1.009369356588     0.811285061992    12.000000000000
         O           -1.151766484697    -0.124369356588     1.659285061992    15.994914619570
         N           -0.265766484697    -1.817369356588     0.490285061992    14.003074004430
         H           -2.797766484697    -2.276369356588    -0.010714938008     1.007825032230
         H           -2.397766484697    -0.850369356588    -0.970714938008     1.007825032230
         H            0.599233515303    -1.737369356588     1.003285061992     1.007825032230
         H           -0.395766484697    -2.546369356588    -0.195714938008     1.007825032230
         H           -3.412300484697    -0.666809356588     0.487946061992     1.007825032230
         C            1.196233515303     1.231630643412    -1.051714938008    12.000000000000
         C            1.724233515303     2.065630643412     0.114285061992    12.000000000000
         C            2.265233515303     0.933630643412    -2.069714938008    12.000000000000
         H            0.850233515303     0.286630643412    -0.637714938008     1.007825032230
         H            0.345233515303     1.727630643412    -1.523714938008     1.007825032230
         H            2.745233515303     1.761630643412     0.350285061992     1.007825032230
         H            1.096233515303     1.856630643412     0.983285061992     1.007825032230
         H            2.530233515303     1.854630643412    -2.600714938008     1.007825032230
         H            3.160233515303     0.559630643412    -1.559714938008     1.007825032230
         H            1.674843515303     3.146480643412    -0.083990938008     1.007825032230
         H            1.886023515303     0.174470643412    -2.769624938008     1.007825032230

  Running in c1 symmetry.

  Rotational constants: A =      0.11880  B =      0.03138  C =      0.02878 [cm^-1]
  Rotational constants: A =   3561.66831  B =    940.74176  C =    862.93034 [MHz]
  Nuclear repulsion =  302.905232957267401

  Charge       = 0
  Multiplicity = 1
  Electrons    = 58
  Nalpha       = 29
  Nbeta        = 29

  ==> Algorithm <==

  SCF Algorithm Type is PK.
  DIIS enabled.
  MOM disabled.
  Fractional occupation disabled.
  Guess Type is SAD.
  Energy threshold   = 1.00e-06
  Density threshold  = 1.00e-10
  Integral threshold = 0.00e+00

  ==> Primary Basis <==

  Basis Set: CC-PVDZ
    Blend: CC-PVDZ
    Number of shells: 81
    Number of basis function: 163
    Number of Cartesian functions: 170
    Spherical Harmonics?: true
    Max angular momentum: 2

  ==> Pre-Iterations <==

   -------------------------------------------------------
    Irrep   Nso     Nmo     Nalpha   Nbeta   Ndocc  Nsocc
   -------------------------------------------------------
     A        163     163       0       0       0       0
   -------------------------------------------------------
    Total     163     163      29      29      29       0
   -------------------------------------------------------

  ==> Integral Setup <==

  Using integral reordering PK algorithm.
  Sizing the integral batches needed.
  Building batch lookup table.
   Calculation information:
      Number of atoms:                  20
      Number of AO shells:              81
      Number of primitives:            219
      Number of atomic orbitals:       170
      Number of basis functions:       163

      Integral cutoff                 1.00e-12
      Number of threads:                 1

	Batch   1 pq = [       0,    9405] index = [             0,44231715] size =     44231715
	Batch   2 pq = [    9405,   13366] index = [      44231715,89331661] size =     45099946
  Task number: 9
  Buffer size: 11059200
  Buffer per thread: 2
  We computed 4856736 shell quartets total.
  Whereas there are 5516181 unique shell quartets.

  ==> DiskJK: Disk-Based J/K Matrices <==

    J tasked:                  Yes
    K tasked:                  Yes
    wK tasked:                  No
    Memory [MiB]:              375
    Schwarz Cutoff:          1E-12

    OpenMP threads:              1

  Minimum eigenvalue in the overlap matrix is 4.5299485156E-03.
  Using Symmetric Orthogonalization.

  SCF Guess: Superposition of Atomic Densities via on-the-fly atomic UHF.

  ==> Iterations <==

                        Total Energy        Delta E     RMS |[F,P]|

   @RHF iter SAD:  -324.97611235831647   -3.24976e+02   0.00000e+00
   @RHF iter   1:  -325.99668951990355   -1.02058e+00   4.17995e-03 DIIS
   @RHF iter   2:  -326.19937933049778   -2.02690e-01   2.32626e-03 DIIS
   @RHF iter   3:  -326.25603041611151   -5.66511e-02   4.94543e-04 DIIS
   @RHF iter   4:  -326.25988296227013   -3.85255e-03   2.03891e-04 DIIS
   @RHF iter   5:  -326.26056479896943   -6.81837e-04   3.14442e-05 DIIS
   @RHF iter   6:  -326.26059737193191   -3.25730e-05   1.38712e-05 DIIS
   @RHF iter   7:  -326.26060290220215   -5.53027e-06   5.40544e-06 DIIS
   @RHF iter   8:  -326.26060403264864   -1.13045e-06   1.88217e-06 DIIS
   @RHF iter   9:  -326.26060417625257   -1.43604e-07   5.03042e-07 DIIS
   @RHF iter  10:  -326.26060418331076   -7.05819e-09   1.64900e-07 DIIS
   @RHF iter  11:  -326.26060418419183   -8.81073e-10   3.95081e-08 DIIS
   @RHF iter  12:  -326.26060418423958   -4.77485e-11   9.34262e-09 DIIS
   @RHF iter  13:  -326.26060418424191   -2.33058e-12   2.17848e-09 DIIS
   @RHF iter  14:  -326.26060418424021    1.70530e-12   7.66836e-10 DIIS
   @RHF iter  15:  -326.26060418424237   -2.16005e-12   2.22179e-10 DIIS
   @RHF iter  16:  -326.26060418424129    1.08002e-12   7.56224e-11 DIIS
  Energy and wave function converged.

  ==> Post-Iterations <==

    Orbital Energies [Eh]
    ---------------------

    Doubly Occupied:

       1A    -20.507721     2A    -15.592072     3A    -11.351145
       4A    -11.245217     5A    -11.212269     6A    -11.208308
       7A    -11.203213     8A     -1.368921     9A     -1.220233
      10A     -1.050894    11A     -1.001743    12A     -0.916183
      13A     -0.802150    14A     -0.787420    15A     -0.731190
      16A     -0.655470    17A     -0.623759    18A     -0.613897
      19A     -0.590466    20A     -0.572001    21A     -0.561249
      22A     -0.542325    23A     -0.525092    24A     -0.523337
      25A     -0.469848    26A     -0.458756    27A     -0.453769
      28A     -0.412017    29A     -0.405946

    Virtual:

      30A      0.154954    31A      0.187675    32A      0.196901
      33A      0.212741    34A      0.226857    35A      0.238473
      36A      0.240649    37A      0.255551    38A      0.265259
      39A      0.270048    40A      0.295810    41A      0.301222
      42A      0.314246    43A      0.336129    44A      0.377675
      45A      0.384120    46A      0.434067    47A      0.474034
      48A      0.545046    49A      0.592395    50A      0.601819
      51A      0.615000    52A      0.625196    53A      0.629571
      54A      0.656243    55A      0.660651    56A      0.696478
      57A      0.733910    58A      0.738327    59A      0.783707
      60A      0.807821    61A      0.836718    62A      0.840832
      63A      0.856688    64A      0.870927    65A      0.880608
      66A      0.895954    67A      0.899390    68A      0.901950
      69A      0.904974    70A      0.909541    71A      0.923911
      72A      0.932036    73A      0.938222    74A      0.954937
      75A      0.965047    76A      0.977930    77A      1.009002
      78A      1.061650    79A      1.086035    80A      1.117097
      81A      1.124758    82A      1.148687    83A      1.174439
      84A      1.256840    85A      1.328176    86A      1.372503
      87A      1.383555    88A      1.394962    89A      1.409028
      90A      1.445839    91A      1.458772    92A      1.478711
      93A      1.496508    94A      1.499961    95A      1.553995
      96A      1.648044    97A      1.654033    98A      1.662366
      99A      1.671666   100A      1.690481   101A      1.720504
     102A      1.730896   103A      1.798993   104A      1.834172
     105A      1.865140   106A      1.873815   107A      1.883437
     108A      1.885512   109A      1.898488   110A      1.904540
     111A      1.925496   112A      1.933344   113A      1.953830
     114A      1.957620   115A      1.974689   116A      1.983368
     117A      1.999130   118A      2.000065   119A      2.022957
     120A      2.029373   121A      2.052483   122A      2.078624
     123A      2.089951   124A      2.139154   125A      2.155067
     126A      2.188056   127A      2.226705   128A      2.257616
     129A      2.276849   130A      2.315465   131A      2.324037
     132A      2.388958   133A      2.436741   134A      2.448363
     135A      2.470266   136A      2.488101   137A      2.545845
     138A      2.558847   139A      2.561128   140A      2.570654
     141A      2.606717   142A      2.621921   143A      2.670774
     144A      2.703559   145A      2.739972   146A      2.769370
     147A      2.783371   148A      2.787846   149A      2.793005
     150A      2.836134   151A      2.869832   152A      2.903385
     153A      2.963982   154A      2.974460   155A      2.987180
     156A      3.076463   157A      3.095767   158A      3.135973
     159A      3.283521   160A      3.494948   161A      3.538369
     162A      3.856718   163A      3.904785

    Final Occupation by Irrep:
              A
    DOCC [    29 ]

  @RHF Final Energy:  -326.26060418424129

   => Energetics <=

    Nuclear Repulsion Energy =            302.9052329572674012
    One-Electron Energy =               -1043.1184499525545561
    Two-Electron Energy =                 413.9526128110459240
    Total Energy =                       -326.2606041842412878

Computation Completed

Properties will be evaluated at   0.000000,   0.000000,   0.000000 [a0]

Properties computed using the SCF density matrix

  Nuclear Dipole Moment: [e a0]
     X:     5.5112      Y:     3.0894      Z:    -7.0506

  Electronic Dipole Moment: [e a0]
     X:    -5.5218      Y:    -4.4515      Z:     6.0747

  Dipole Moment: [e a0]
     X:    -0.0106      Y:    -1.3622      Z:    -0.9759     Total:     1.6757

  Dipole Moment: [D]
     X:    -0.0270      Y:    -3.4623      Z:    -2.4804     Total:     4.2592

*** tstop() called on ds3 at Tue Apr 28 13:33:09 2020
Module time:
	user time   =      30.78 seconds =       0.51 minutes
	system time =      13.25 seconds =       0.22 minutes
	total time  =         61 seconds =       1.02 minutes
Total time:
	user time   =      30.78 seconds =       0.51 minutes
	system time =      13.25 seconds =       0.22 minutes
	total time  =         61 seconds =       1.02 minutes
                                     G D M A

                                 by Anthony Stone

                           version 2.2.06, 22 June 2011

               Distributed Multipoles from Gaussian wavefunctions

Starting at 13:33:9 on 28 Apr 2020

Using SCF density matrix from file ./SSI/SSI-084ASN-099LYS-1-dimer.test.16306.fchk

                         Distributed Multipole Analysis

Standard DMA

Positions and radii in angstrom
Multipole moments in atomic units, ea_0^k for rank k

C          x = -2.565766  y = -1.211369  z =  0.044285 angstrom
           Maximum rank =  0   Radius =  0.650 angstrom
                   Q00  =  -0.260947

C          x = -1.268766  y = -1.009369  z =  0.811285 angstrom
           Maximum rank =  0   Radius =  0.650 angstrom
                   Q00  =   0.815802

O          x = -1.151766  y = -0.124369  z =  1.659285 angstrom
           Maximum rank =  0   Radius =  0.650 angstrom
                   Q00  =  -0.791873

N          x = -0.265766  y = -1.817369  z =  0.490285 angstrom
           Maximum rank =  0   Radius =  0.650 angstrom
                   Q00  =  -0.528047

H          x = -2.797766  y = -2.276369  z = -0.010715 angstrom
           Maximum rank =  0   Radius =  0.325 angstrom
                   Q00  =   0.092154

H          x = -2.397766  y = -0.850369  z = -0.970715 angstrom
           Maximum rank =  0   Radius =  0.325 angstrom
                   Q00  =   0.116287

H          x =  0.599234  y = -1.737369  z =  1.003285 angstrom
           Maximum rank =  0   Radius =  0.325 angstrom
                   Q00  =   0.225926

H          x = -0.395766  y = -2.546369  z = -0.195715 angstrom
           Maximum rank =  0   Radius =  0.325 angstrom
                   Q00  =   0.205906

H          x = -3.412300  y = -0.666809  z =  0.487946 angstrom
           Maximum rank =  0   Radius =  0.325 angstrom
                   Q00  =   0.132915

C          x =  1.196234  y =  1.231631  z = -1.051715 angstrom
           Maximum rank =  0   Radius =  0.650 angstrom
                   Q00  =  -0.092258

C          x =  1.724234  y =  2.065631  z =  0.114285 angstrom
           Maximum rank =  0   Radius =  0.650 angstrom
                   Q00  =  -0.230244

C          x =  2.265234  y =  0.933631  z = -2.069715 angstrom
           Maximum rank =  0   Radius =  0.650 angstrom
                   Q00  =  -0.232449

H          x =  0.850234  y =  0.286631  z = -0.637715 angstrom
           Maximum rank =  0   Radius =  0.325 angstrom
                   Q00  =   0.040601

H          x =  0.345234  y =  1.727631  z = -1.523715 angstrom
           Maximum rank =  0   Radius =  0.325 angstrom
                   Q00  =   0.047764

H          x =  2.745234  y =  1.761631  z =  0.350285 angstrom
           Maximum rank =  0   Radius =  0.325 angstrom
                   Q00  =   0.065888

H          x =  1.096234  y =  1.856631  z =  0.983285 angstrom
           Maximum rank =  0   Radius =  0.325 angstrom
                   Q00  =   0.100675

H          x =  2.530234  y =  1.854631  z = -2.600715 angstrom
           Maximum rank =  0   Radius =  0.325 angstrom
                   Q00  =   0.074464

H          x =  3.160234  y =  0.559631  z = -1.559715 angstrom
           Maximum rank =  0   Radius =  0.325 angstrom
                   Q00  =   0.070129

H          x =  1.674844  y =  3.146481  z = -0.083991 angstrom
           Maximum rank =  0   Radius =  0.325 angstrom
                   Q00  =   0.076505

H          x =  1.886024  y =  0.174471  z = -2.769625 angstrom
           Maximum rank =  0   Radius =  0.325 angstrom
                   Q00  =   0.070804

Total multipoles referred to origin at
           x =   0.000000,  y =    0.000000,  z =    0.000000 angstrom
                   Q00  =  -0.000000

Finished at 13:33:9 on 28 Apr 2020

  DMA results are available in the Python driver through the
	  variable('DMA DISTRIBUTED MULTIPOLES')
  and
	  variable('DMA TOTAL MULTIPOLES')
  commands.

    Psi4 stopped on: Tuesday, 28 April 2020 01:33PM
    Psi4 wall time for execution: 0:01:01.19

*** Psi4 exiting successfully. Buy a developer a beer!
