                               Psi4 1.3.2 release

  ==> Input File <==

--------------------------------------------------------------------------
import numpy as np
set {scf_type pk
basis cc-pvdz
d_convergence 10
gdma_switch   0
gdma_limit    0
gdma_origin   [ 0.0,  0.0,  0.0 ]
}
molecule test {
    units Angstrom
    0 1
    --
    0 1
    C                0.601414996679018     2.649362853610949     1.370730101731113
    C                1.946414996679018     2.839362853610949     0.650730101731113
    C               -0.564585003320982     3.334362853610949     0.659730101731113
    O               -1.469585003320982     3.858362853610949     1.304730101731113
    N               -0.569585003320982     3.333362853610948    -0.665269898268887
    H                0.370414996679018     1.593362853610949     1.472730101731113
    H                0.680414996679018     3.063362853610948     2.376730101731113
    H                1.832414996679018     2.536362853610949    -0.385269898268887
    H               -1.390585003320982     3.734362853610949    -1.110269898268887
    H                0.168414996679018     2.937362853610948    -1.229269898268887
    H                2.719694996679018     2.210792853610949     1.116500101731113
    H                2.245604996679018     3.897712853610949     0.670200101731113
    C                0.087414996679018    -0.383637146389051    -2.767269898268887
    C                0.271414996679018    -0.813637146389051    -0.290269898268887
    C               -0.003585003320982    -1.301637146389051    -1.570269898268887
    C                0.271414996679018    -1.661637146389051     0.819730101731113
    C               -0.007585003320982    -3.017637146389051     0.653730101731113
    C               -0.285585003320982    -2.661637146389051    -1.726269898268887
    C               -0.288585003320982    -3.521637146389051    -0.620269898268887
    O               -0.001585003320982    -3.843637146389051     1.741730101731113
    H                0.503414996679018     0.231362853610949    -0.168269898268887
    H                0.491414996679018    -1.267637146389051     1.802730101731113
    H               -0.585585003320982     0.460362853610949    -2.603269898268887
    H               -0.241585003320982    -0.902637146389051    -3.667269898268887
    H               -0.490585003320982    -3.059637146389051    -2.713269898268887
    H                0.202414996679018    -3.367637146389051     2.555730101731113
    H               -0.502585003320982    -4.574637146389050    -0.744269898268887
    H                1.110434996679018    -0.003867146389051    -2.905829898268887

}
e, wfn = energy('scf', return_wfn=True)
gdma(wfn)
dmavals = variable('DMA DISTRIBUTED MULTIPOLES')
charges = np.array(dmavals)
print(charges)
np.save('SSI-035ASN-174TYR-1-dimer.npy', np.array(charges))--------------------------------------------------------------------------

*** tstart() called on ds3
*** at Mon Apr 27 21:50:27 2020

   => Loading Basis Set <=

    Name: CC-PVDZ
    Role: ORBITAL
    Keyword: BASIS
    atoms 1-3, 13-19  entry C          line   138 file /theoryfs2/ds/metcalf/miniconda2/envs/tf2gpu/share/psi4/basis/cc-pvdz.gbs
    atoms 4, 20       entry O          line   198 file /theoryfs2/ds/metcalf/miniconda2/envs/tf2gpu/share/psi4/basis/cc-pvdz.gbs
    atoms 5           entry N          line   168 file /theoryfs2/ds/metcalf/miniconda2/envs/tf2gpu/share/psi4/basis/cc-pvdz.gbs
    atoms 6-12, 21-28 entry H          line    22 file /theoryfs2/ds/metcalf/miniconda2/envs/tf2gpu/share/psi4/basis/cc-pvdz.gbs

         ---------------------------------------------------------
                                   SCF
               by Justin Turney, Rob Parrish, Andy Simmonett
                          and Daniel G. A. Smith
                              RHF Reference
                        1 Threads,    500 MiB Core
         ---------------------------------------------------------

  ==> Geometry <==

    Molecular point group: c1
    Full point group: C1

    Geometry (in Angstrom), charge = 0, multiplicity = 1:

       Center              X                  Y                   Z               Mass
    ------------   -----------------  -----------------  -----------------  -----------------
         C            0.601414996679     2.649362853611     1.370730101731    12.000000000000
         C            1.946414996679     2.839362853611     0.650730101731    12.000000000000
         C           -0.564585003321     3.334362853611     0.659730101731    12.000000000000
         O           -1.469585003321     3.858362853611     1.304730101731    15.994914619570
         N           -0.569585003321     3.333362853611    -0.665269898269    14.003074004430
         H            0.370414996679     1.593362853611     1.472730101731     1.007825032230
         H            0.680414996679     3.063362853611     2.376730101731     1.007825032230
         H            1.832414996679     2.536362853611    -0.385269898269     1.007825032230
         H           -1.390585003321     3.734362853611    -1.110269898269     1.007825032230
         H            0.168414996679     2.937362853611    -1.229269898269     1.007825032230
         H            2.719694996679     2.210792853611     1.116500101731     1.007825032230
         H            2.245604996679     3.897712853611     0.670200101731     1.007825032230
         C            0.087414996679    -0.383637146389    -2.767269898269    12.000000000000
         C            0.271414996679    -0.813637146389    -0.290269898269    12.000000000000
         C           -0.003585003321    -1.301637146389    -1.570269898269    12.000000000000
         C            0.271414996679    -1.661637146389     0.819730101731    12.000000000000
         C           -0.007585003321    -3.017637146389     0.653730101731    12.000000000000
         C           -0.285585003321    -2.661637146389    -1.726269898269    12.000000000000
         C           -0.288585003321    -3.521637146389    -0.620269898269    12.000000000000
         O           -0.001585003321    -3.843637146389     1.741730101731    15.994914619570
         H            0.503414996679     0.231362853611    -0.168269898269     1.007825032230
         H            0.491414996679    -1.267637146389     1.802730101731     1.007825032230
         H           -0.585585003321     0.460362853611    -2.603269898269     1.007825032230
         H           -0.241585003321    -0.902637146389    -3.667269898269     1.007825032230
         H           -0.490585003321    -3.059637146389    -2.713269898269     1.007825032230
         H            0.202414996679    -3.367637146389     2.555730101731     1.007825032230
         H           -0.502585003321    -4.574637146389    -0.744269898269     1.007825032230
         H            1.110434996679    -0.003867146389    -2.905829898269     1.007825032230

  Running in c1 symmetry.

  Rotational constants: A =      0.03716  B =      0.01062  C =      0.00932 [cm^-1]
  Rotational constants: A =   1114.01212  B =    318.32795  C =    279.50377 [MHz]
  Nuclear repulsion =  739.879584658314002

  Charge       = 0
  Multiplicity = 1
  Electrons    = 98
  Nalpha       = 49
  Nbeta        = 49

  ==> Algorithm <==

  SCF Algorithm Type is PK.
  DIIS enabled.
  MOM disabled.
  Fractional occupation disabled.
  Guess Type is SAD.
  Energy threshold   = 1.00e-06
  Density threshold  = 1.00e-10
  Integral threshold = 0.00e+00

  ==> Primary Basis <==

  Basis Set: CC-PVDZ
    Blend: CC-PVDZ
    Number of shells: 123
    Number of basis function: 257
    Number of Cartesian functions: 270
    Spherical Harmonics?: true
    Max angular momentum: 2

  ==> Pre-Iterations <==

   -------------------------------------------------------
    Irrep   Nso     Nmo     Nalpha   Nbeta   Ndocc  Nsocc
   -------------------------------------------------------
     A        257     257       0       0       0       0
   -------------------------------------------------------
    Total     257     257      49      49      49       0
   -------------------------------------------------------

  ==> Integral Setup <==

  Using integral reordering PK algorithm.
  Sizing the integral batches needed.
  Building batch lookup table.
   Calculation information:
      Number of atoms:                  28
      Number of AO shells:             123
      Number of primitives:            361
      Number of atomic orbitals:       270
      Number of basis functions:       257

      Integral cutoff                 1.00e-12
      Number of threads:                 1

	Batch   1 pq = [       0,    9405] index = [             0,44231715] size =     44231715
	Batch   2 pq = [    9405,   13301] index = [      44231715,88464951] size =     44233236
	Batch   3 pq = [   13301,   16290] index = [      88464951,132690195] size =     44225244
	Batch   4 pq = [   16290,   18810] index = [     132690195,176917455] size =     44227260
	Batch   5 pq = [   18810,   21030] index = [     176917455,221140965] size =     44223510
	Batch   6 pq = [   21030,   23037] index = [     221140965,265363203] size =     44222238
	Batch   7 pq = [   23037,   24883] index = [     265363203,309594286] size =     44231083
	Batch   8 pq = [   24883,   26601] index = [     309594286,353819901] size =     44225615
	Batch   9 pq = [   26601,   28214] index = [     353819901,398029005] size =     44209104
	Batch  10 pq = [   28214,   29740] index = [     398029005,442248670] size =     44219665
	Batch  11 pq = [   29740,   31191] index = [     442248670,486454836] size =     44206166
	Batch  12 pq = [   31191,   32578] index = [     486454836,530679331] size =     44224495
	Batch  13 pq = [   32578,   33153] index = [     530679331,549577281] size =     18897950
  Task number: 50
  Buffer size: 11059200
  Buffer per thread: 2
  We computed 26387025 shell quartets total.
  Whereas there are 29081751 unique shell quartets.

  ==> DiskJK: Disk-Based J/K Matrices <==

    J tasked:                  Yes
    K tasked:                  Yes
    wK tasked:                  No
    Memory [MiB]:              375
    Schwarz Cutoff:          1E-12

    OpenMP threads:              1

  Minimum eigenvalue in the overlap matrix is 3.1089806114E-04.
  Using Symmetric Orthogonalization.

  SCF Guess: Superposition of Atomic Densities via on-the-fly atomic UHF.

  ==> Iterations <==

                        Total Energy        Delta E     RMS |[F,P]|

   @RHF iter SAD:  -590.23050356208250   -5.90231e+02   0.00000e+00
   @RHF iter   1:  -591.29998285385750   -1.06948e+00   3.00545e-03 DIIS
   @RHF iter   2:  -591.57892118677501   -2.78938e-01   1.55368e-03 DIIS
   @RHF iter   3:  -591.64220692576328   -6.32857e-02   3.63637e-04 DIIS
   @RHF iter   4:  -591.64730987432210   -5.10295e-03   1.49706e-04 DIIS
   @RHF iter   5:  -591.64815924206516   -8.49368e-04   2.27782e-05 DIIS
   @RHF iter   6:  -591.64820116324358   -4.19212e-05   1.07064e-05 DIIS
   @RHF iter   7:  -591.64820825381901   -7.09058e-06   4.18814e-06 DIIS
   @RHF iter   8:  -591.64820986355505   -1.60974e-06   1.71194e-06 DIIS
   @RHF iter   9:  -591.64821009804405   -2.34489e-07   6.32855e-07 DIIS
   @RHF iter  10:  -591.64821013199230   -3.39483e-08   2.11328e-07 DIIS
   @RHF iter  11:  -591.64821013585492   -3.86262e-09   6.98922e-08 DIIS
   @RHF iter  12:  -591.64821013636333   -5.08408e-10   3.10409e-08 DIIS
   @RHF iter  13:  -591.64821013647816   -1.14824e-10   1.34500e-08 DIIS
   @RHF iter  14:  -591.64821013650715   -2.89901e-11   6.24286e-09 DIIS
   @RHF iter  15:  -591.64821013651851   -1.13687e-11   2.38359e-09 DIIS
   @RHF iter  16:  -591.64821013651760    9.09495e-13   7.46347e-10 DIIS
   @RHF iter  17:  -591.64821013651738    2.27374e-13   2.68210e-10 DIIS
   @RHF iter  18:  -591.64821013651670    6.82121e-13   8.81529e-11 DIIS
  Energy and wave function converged.

  ==> Post-Iterations <==

    Orbital Energies [Eh]
    ---------------------

    Doubly Occupied:

       1A    -20.587345     2A    -20.504348     3A    -15.591768
       4A    -11.347188     5A    -11.306703     6A    -11.246769
       7A    -11.246632     8A    -11.246145     9A    -11.245271
      10A    -11.241587    11A    -11.241376    12A    -11.238956
      13A    -11.238024    14A     -1.402169    15A     -1.369070
      16A     -1.217994    17A     -1.154674    18A     -1.057067
      19A     -1.043433    20A     -1.022294    21A     -0.933600
      22A     -0.896612    23A     -0.850289    24A     -0.807918
      25A     -0.796397    26A     -0.737577    27A     -0.736438
      28A     -0.674118    29A     -0.656303    30A     -0.647242
      31A     -0.628916    32A     -0.612544    33A     -0.595042
      34A     -0.591870    35A     -0.591301    36A     -0.578407
      37A     -0.573536    38A     -0.568515    39A     -0.541428
      40A     -0.535528    41A     -0.517850    42A     -0.505151
      43A     -0.504622    44A     -0.490915    45A     -0.471843
      46A     -0.406969    47A     -0.403718    48A     -0.343884
      49A     -0.307147

    Virtual:

      50A      0.121585    51A      0.143104    52A      0.148224
      53A      0.166660    54A      0.185267    55A      0.196952
      56A      0.208758    57A      0.210579    58A      0.220177
      59A      0.232059    60A      0.248063    61A      0.254337
      62A      0.260217    63A      0.274273    64A      0.282059
      65A      0.290633    66A      0.310115    67A      0.335255
      68A      0.364898    69A      0.370449    70A      0.392667
      71A      0.405069    72A      0.425397    73A      0.455478
      74A      0.477343    75A      0.484670    76A      0.494307
      77A      0.506684    78A      0.564643    79A      0.600228
      80A      0.607030    81A      0.620339    82A      0.635250
      83A      0.642578    84A      0.657816    85A      0.675002
      86A      0.684704    87A      0.686718    88A      0.692898
      89A      0.704208    90A      0.716771    91A      0.723934
      92A      0.732005    93A      0.737005    94A      0.751359
      95A      0.766781    96A      0.772131    97A      0.778385
      98A      0.785776    99A      0.798049   100A      0.812264
     101A      0.820483   102A      0.827023   103A      0.838641
     104A      0.848243   105A      0.863541   106A      0.872383
     107A      0.874906   108A      0.886952   109A      0.890398
     110A      0.895024   111A      0.903852   112A      0.908533
     113A      0.912893   114A      0.920799   115A      0.932418
     116A      0.943144   117A      0.962158   118A      0.965180
     119A      0.993907   120A      1.011262   121A      1.033717
     122A      1.047595   123A      1.076839   124A      1.083893
     125A      1.111483   126A      1.120446   127A      1.134498
     128A      1.140042   129A      1.148605   130A      1.171909
     131A      1.202251   132A      1.206289   133A      1.236370
     134A      1.240496   135A      1.262165   136A      1.280889
     137A      1.293694   138A      1.297835   139A      1.302633
     140A      1.305385   141A      1.316539   142A      1.351142
     143A      1.353383   144A      1.369059   145A      1.371727
     146A      1.386103   147A      1.406754   148A      1.417189
     149A      1.449785   150A      1.480081   151A      1.487411
     152A      1.528692   153A      1.540831   154A      1.552482
     155A      1.580606   156A      1.615657   157A      1.637843
     158A      1.641300   159A      1.671369   160A      1.678741
     161A      1.688449   162A      1.713667   163A      1.720290
     164A      1.741510   165A      1.758108   166A      1.774152
     167A      1.793634   168A      1.796804   169A      1.808352
     170A      1.850288   171A      1.854265   172A      1.878222
     173A      1.882027   174A      1.884452   175A      1.890741
     176A      1.896312   177A      1.904732   178A      1.917626
     179A      1.922800   180A      1.929495   181A      1.941552
     182A      1.949021   183A      1.954519   184A      1.957521
     185A      1.964126   186A      1.983752   187A      1.996282
     188A      2.000976   189A      2.013364   190A      2.021399
     191A      2.029975   192A      2.046432   193A      2.054970
     194A      2.062596   195A      2.072636   196A      2.107596
     197A      2.119343   198A      2.134247   199A      2.161514
     200A      2.186166   201A      2.194254   202A      2.209429
     203A      2.234366   204A      2.249819   205A      2.266980
     206A      2.290522   207A      2.304338   208A      2.326651
     209A      2.351514   210A      2.357133   211A      2.363829
     212A      2.386005   213A      2.387498   214A      2.447880
     215A      2.474438   216A      2.485581   217A      2.496334
     218A      2.512260   219A      2.520250   220A      2.533212
     221A      2.542262   222A      2.564932   223A      2.597759
     224A      2.608041   225A      2.630639   226A      2.641809
     227A      2.729186   228A      2.740116   229A      2.755961
     230A      2.768537   231A      2.786399   232A      2.821146
     233A      2.830844   234A      2.845235   235A      2.871616
     236A      2.881268   237A      2.899374   238A      2.942632
     239A      2.970554   240A      2.997285   241A      3.033372
     242A      3.073436   243A      3.091757   244A      3.107123
     245A      3.145256   246A      3.243133   247A      3.275731
     248A      3.299208   249A      3.339106   250A      3.514163
     251A      3.521945   252A      3.570046   253A      3.654724
     254A      3.864776   255A      3.901862   256A      3.959508
     257A      4.178000

    Final Occupation by Irrep:
              A
    DOCC [    49 ]

  @RHF Final Energy:  -591.64821013651670

   => Energetics <=

    Nuclear Repulsion Energy =            739.8795846583140019
    One-Electron Energy =               -2272.9466048579020025
    Two-Electron Energy =                 941.4188100630714189
    Total Energy =                       -591.6482101365166955

Computation Completed

Properties will be evaluated at   0.000000,   0.000000,   0.000000 [a0]

Properties computed using the SCF density matrix

  Nuclear Dipole Moment: [e a0]
     X:     6.6635      Y:     7.0111      Z:    -5.1699

  Electronic Dipole Moment: [e a0]
     X:    -5.4672      Y:    -7.1825      Z:     4.2472

  Dipole Moment: [e a0]
     X:     1.1962      Y:    -0.1714      Z:    -0.9226     Total:     1.5204

  Dipole Moment: [D]
     X:     3.0405      Y:    -0.4357      Z:    -2.3450     Total:     3.8644

*** tstop() called on ds3 at Mon Apr 27 21:56:27 2020
Module time:
	user time   =     199.46 seconds =       3.32 minutes
	system time =      78.72 seconds =       1.31 minutes
	total time  =        360 seconds =       6.00 minutes
Total time:
	user time   =     199.46 seconds =       3.32 minutes
	system time =      78.72 seconds =       1.31 minutes
	total time  =        360 seconds =       6.00 minutes
                                     G D M A

                                 by Anthony Stone

                           version 2.2.06, 22 June 2011

               Distributed Multipoles from Gaussian wavefunctions

Starting at 21:56:27 on 27 Apr 2020

Using SCF density matrix from file ./SSI/SSI-035ASN-174TYR-1-dimer.test.22700.fchk

                         Distributed Multipole Analysis

Standard DMA

Positions and radii in angstrom
Multipole moments in atomic units, ea_0^k for rank k

C          x =  0.601415  y =  2.649363  z =  1.370730 angstrom
           Maximum rank =  0   Radius =  0.650 angstrom
                   Q00  =  -0.114905

C          x =  1.946415  y =  2.839363  z =  0.650730 angstrom
           Maximum rank =  0   Radius =  0.650 angstrom
                   Q00  =  -0.246991

C          x = -0.564585  y =  3.334363  z =  0.659730 angstrom
           Maximum rank =  0   Radius =  0.650 angstrom
                   Q00  =   0.820717

O          x = -1.469585  y =  3.858363  z =  1.304730 angstrom
           Maximum rank =  0   Radius =  0.650 angstrom
                   Q00  =  -0.789251

N          x = -0.569585  y =  3.333363  z = -0.665270 angstrom
           Maximum rank =  0   Radius =  0.650 angstrom
                   Q00  =  -0.545946

H          x =  0.370415  y =  1.593363  z =  1.472730 angstrom
           Maximum rank =  0   Radius =  0.325 angstrom
                   Q00  =   0.093847

H          x =  0.680415  y =  3.063363  z =  2.376730 angstrom
           Maximum rank =  0   Radius =  0.325 angstrom
                   Q00  =   0.098180

H          x =  1.832415  y =  2.536363  z = -0.385270 angstrom
           Maximum rank =  0   Radius =  0.325 angstrom
                   Q00  =   0.056173

H          x = -1.390585  y =  3.734363  z = -1.110270 angstrom
           Maximum rank =  0   Radius =  0.325 angstrom
                   Q00  =   0.220638

H          x =  0.168415  y =  2.937363  z = -1.229270 angstrom
           Maximum rank =  0   Radius =  0.325 angstrom
                   Q00  =   0.213220

H          x =  2.719695  y =  2.210793  z =  1.116500 angstrom
           Maximum rank =  0   Radius =  0.325 angstrom
                   Q00  =   0.102050

H          x =  2.245605  y =  3.897713  z =  0.670200 angstrom
           Maximum rank =  0   Radius =  0.325 angstrom
                   Q00  =   0.096208

C          x =  0.087415  y = -0.383637  z = -2.767270 angstrom
           Maximum rank =  0   Radius =  0.650 angstrom
                   Q00  =  -0.194657

C          x =  0.271415  y = -0.813637  z = -0.290270 angstrom
           Maximum rank =  0   Radius =  0.650 angstrom
                   Q00  =   0.045003

C          x = -0.003585  y = -1.301637  z = -1.570270 angstrom
           Maximum rank =  0   Radius =  0.650 angstrom
                   Q00  =  -0.142763

C          x =  0.271415  y = -1.661637  z =  0.819730 angstrom
           Maximum rank =  0   Radius =  0.650 angstrom
                   Q00  =  -0.179964

C          x = -0.007585  y = -3.017637  z =  0.653730 angstrom
           Maximum rank =  0   Radius =  0.650 angstrom
                   Q00  =   0.324058

C          x = -0.285585  y = -2.661637  z = -1.726270 angstrom
           Maximum rank =  0   Radius =  0.650 angstrom
                   Q00  =  -0.013562

C          x = -0.288585  y = -3.521637  z = -0.620270 angstrom
           Maximum rank =  0   Radius =  0.650 angstrom
                   Q00  =  -0.121732

O          x = -0.001585  y = -3.843637  z =  1.741730 angstrom
           Maximum rank =  0   Radius =  0.650 angstrom
                   Q00  =  -0.677964

H          x =  0.503415  y =  0.231363  z = -0.168270 angstrom
           Maximum rank =  0   Radius =  0.325 angstrom
                   Q00  =   0.036323

H          x =  0.491415  y = -1.267637  z =  1.802730 angstrom
           Maximum rank =  0   Radius =  0.325 angstrom
                   Q00  =   0.070859

H          x = -0.585585  y =  0.460363  z = -2.603270 angstrom
           Maximum rank =  0   Radius =  0.325 angstrom
                   Q00  =   0.088456

H          x = -0.241585  y = -0.902637  z = -3.667270 angstrom
           Maximum rank =  0   Radius =  0.325 angstrom
                   Q00  =   0.105867

H          x = -0.490585  y = -3.059637  z = -2.713270 angstrom
           Maximum rank =  0   Radius =  0.325 angstrom
                   Q00  =   0.068554

H          x =  0.202415  y = -3.367637  z =  2.555730 angstrom
           Maximum rank =  0   Radius =  0.325 angstrom
                   Q00  =   0.409050

H          x = -0.502585  y = -4.574637  z = -0.744270 angstrom
           Maximum rank =  0   Radius =  0.325 angstrom
                   Q00  =   0.085004

H          x =  1.110435  y = -0.003867  z = -2.905830 angstrom
           Maximum rank =  0   Radius =  0.325 angstrom
                   Q00  =   0.093525

Total multipoles referred to origin at
           x =   0.000000,  y =    0.000000,  z =    0.000000 angstrom
                   Q00  =  -0.000000

Finished at 21:56:27 on 27 Apr 2020

  DMA results are available in the Python driver through the
	  variable('DMA DISTRIBUTED MULTIPOLES')
  and
	  variable('DMA TOTAL MULTIPOLES')
  commands.

    Psi4 stopped on: Monday, 27 April 2020 09:56PM
    Psi4 wall time for execution: 0:05:59.92

*** Psi4 exiting successfully. Buy a developer a beer!
