                               Psi4 1.3.2 release

  ==> Input File <==

--------------------------------------------------------------------------
import numpy as np
set {scf_type pk
basis cc-pvdz
d_convergence 10
gdma_switch   0
gdma_limit    0
gdma_origin   [ 0.0,  0.0,  0.0 ]
}
molecule test {
    units Angstrom
    0 1
    --
    0 1
    C                1.951978739449229     3.055923678147012    -1.106564400112974
    C                0.729978739449229    -0.481076321852988     1.020435599887026
    C                1.177978739449230    -0.588076321852988    -0.296564400112973
    C                0.697978739449230     0.761923678147012     1.654435599887027
    C                1.587978739449230     0.553923678147012    -0.981564400112973
    C                1.112978739449230     1.899923678147012     0.962435599887027
    C                1.558978739449230     1.806923678147012    -0.360564400112973
    O                0.309978739449229    -1.592076321852988     1.686435599887027
    H                1.178978739449229    -1.544076321852988    -0.805564400112973
    H                0.318978739449229    -2.377076321852988     1.134435599887027
    H                0.349978739449229     0.836923678147012     2.674435599887027
    H                1.896978739449230     0.465923678147012    -2.014564400112973
    H                1.073978739449230     2.861923678147012     1.457435599887027
    H                2.185978739449229     3.816923678147012    -0.360564400112973
    H                1.075978739449230     3.402923678147012    -1.656564400112973
    H                2.800578739449229     2.994953678147011    -1.803814400112973
    C               -2.807021260550771    -1.399076321852988    -0.213564400112973
    C               -2.383021260550771    -0.537076321852988    -1.381564400112973
    C               -3.109021260550770    -2.758076321852988    -0.830564400112973
    H               -3.672021260550771    -0.978076321852988     0.301435599887027
    H               -1.979021260550770    -1.498076321852988     0.483435599887027
    H               -3.270021260550771    -0.093076321852988    -1.836564400112974
    H               -1.696021260550770     0.248923678147012    -1.068564400112973
    H               -2.751021260550771    -3.531076321852988    -0.149564400112973
    H               -1.911981260550770    -1.218196321852988    -2.105574400112973
    H               -2.512731260550771    -2.778376321852988    -1.754704400112973
    H               -4.185311260550771    -2.910186321852988    -0.999254400112973

}
e, wfn = energy('scf', return_wfn=True)
gdma(wfn)
dmavals = variable('DMA DISTRIBUTED MULTIPOLES')
charges = np.array(dmavals)
print(charges)
np.save('SSI-065TYR-090PRO-1-dimer.npy', np.array(charges))--------------------------------------------------------------------------

*** tstart() called on ds3
*** at Sun Apr 26 20:47:14 2020

   => Loading Basis Set <=

    Name: CC-PVDZ
    Role: ORBITAL
    Keyword: BASIS
    atoms 1-7, 17-19  entry C          line   138 file /theoryfs2/ds/metcalf/miniconda2/envs/tf2gpu/share/psi4/basis/cc-pvdz.gbs
    atoms 8           entry O          line   198 file /theoryfs2/ds/metcalf/miniconda2/envs/tf2gpu/share/psi4/basis/cc-pvdz.gbs
    atoms 9-16, 20-27 entry H          line    22 file /theoryfs2/ds/metcalf/miniconda2/envs/tf2gpu/share/psi4/basis/cc-pvdz.gbs

         ---------------------------------------------------------
                                   SCF
               by Justin Turney, Rob Parrish, Andy Simmonett
                          and Daniel G. A. Smith
                              RHF Reference
                        1 Threads,    500 MiB Core
         ---------------------------------------------------------

  ==> Geometry <==

    Molecular point group: c1
    Full point group: C1

    Geometry (in Angstrom), charge = 0, multiplicity = 1:

       Center              X                  Y                   Z               Mass
    ------------   -----------------  -----------------  -----------------  -----------------
         C            1.951978739449     3.055923678147    -1.106564400113    12.000000000000
         C            0.729978739449    -0.481076321853     1.020435599887    12.000000000000
         C            1.177978739449    -0.588076321853    -0.296564400113    12.000000000000
         C            0.697978739449     0.761923678147     1.654435599887    12.000000000000
         C            1.587978739449     0.553923678147    -0.981564400113    12.000000000000
         C            1.112978739449     1.899923678147     0.962435599887    12.000000000000
         C            1.558978739449     1.806923678147    -0.360564400113    12.000000000000
         O            0.309978739449    -1.592076321853     1.686435599887    15.994914619570
         H            1.178978739449    -1.544076321853    -0.805564400113     1.007825032230
         H            0.318978739449    -2.377076321853     1.134435599887     1.007825032230
         H            0.349978739449     0.836923678147     2.674435599887     1.007825032230
         H            1.896978739449     0.465923678147    -2.014564400113     1.007825032230
         H            1.073978739449     2.861923678147     1.457435599887     1.007825032230
         H            2.185978739449     3.816923678147    -0.360564400113     1.007825032230
         H            1.075978739449     3.402923678147    -1.656564400113     1.007825032230
         H            2.800578739449     2.994953678147    -1.803814400113     1.007825032230
         C           -2.807021260551    -1.399076321853    -0.213564400113    12.000000000000
         C           -2.383021260551    -0.537076321853    -1.381564400113    12.000000000000
         C           -3.109021260551    -2.758076321853    -0.830564400113    12.000000000000
         H           -3.672021260551    -0.978076321853     0.301435599887     1.007825032230
         H           -1.979021260551    -1.498076321853     0.483435599887     1.007825032230
         H           -3.270021260551    -0.093076321853    -1.836564400113     1.007825032230
         H           -1.696021260551     0.248923678147    -1.068564400113     1.007825032230
         H           -2.751021260551    -3.531076321853    -0.149564400113     1.007825032230
         H           -1.911981260551    -1.218196321853    -2.105574400113     1.007825032230
         H           -2.512731260551    -2.778376321853    -1.754704400113     1.007825032230
         H           -4.185311260551    -2.910186321853    -0.999254400113     1.007825032230

  Running in c1 symmetry.

  Rotational constants: A =      0.05145  B =      0.01809  C =      0.01558 [cm^-1]
  Rotational constants: A =   1542.31224  B =    542.21554  C =    467.11757 [MHz]
  Nuclear repulsion =  590.430486786468691

  Charge       = 0
  Multiplicity = 1
  Electrons    = 84
  Nalpha       = 42
  Nbeta        = 42

  ==> Algorithm <==

  SCF Algorithm Type is PK.
  DIIS enabled.
  MOM disabled.
  Fractional occupation disabled.
  Guess Type is SAD.
  Energy threshold   = 1.00e-06
  Density threshold  = 1.00e-10
  Integral threshold = 0.00e+00

  ==> Primary Basis <==

  Basis Set: CC-PVDZ
    Blend: CC-PVDZ
    Number of shells: 114
    Number of basis function: 234
    Number of Cartesian functions: 245
    Spherical Harmonics?: true
    Max angular momentum: 2

  ==> Pre-Iterations <==

   -------------------------------------------------------
    Irrep   Nso     Nmo     Nalpha   Nbeta   Ndocc  Nsocc
   -------------------------------------------------------
     A        234     234       0       0       0       0
   -------------------------------------------------------
    Total     234     234      42      42      42       0
   -------------------------------------------------------

  ==> Integral Setup <==

  Using integral reordering PK algorithm.
  Sizing the integral batches needed.
  Building batch lookup table.
   Calculation information:
      Number of atoms:                  27
      Number of AO shells:             114
      Number of primitives:            322
      Number of atomic orbitals:       245
      Number of basis functions:       234

      Integral cutoff                 1.00e-12
      Number of threads:                 1

	Batch   1 pq = [       0,    9405] index = [             0,44231715] size =     44231715
	Batch   2 pq = [    9405,   13301] index = [      44231715,88464951] size =     44233236
	Batch   3 pq = [   13301,   16290] index = [      88464951,132690195] size =     44225244
	Batch   4 pq = [   16290,   18810] index = [     132690195,176917455] size =     44227260
	Batch   5 pq = [   18810,   21030] index = [     176917455,221140965] size =     44223510
	Batch   6 pq = [   21030,   23037] index = [     221140965,265363203] size =     44222238
	Batch   7 pq = [   23037,   24883] index = [     265363203,309594286] size =     44231083
	Batch   8 pq = [   24883,   26601] index = [     309594286,353819901] size =     44225615
	Batch   9 pq = [   26601,   27495] index = [     353819901,378001260] size =     24181359
  Task number: 35
  Buffer size: 11059200
  Buffer per thread: 2
  We computed 20455373 shell quartets total.
  Whereas there are 21487290 unique shell quartets.

  ==> DiskJK: Disk-Based J/K Matrices <==

    J tasked:                  Yes
    K tasked:                  Yes
    wK tasked:                  No
    Memory [MiB]:              375
    Schwarz Cutoff:          1E-12

    OpenMP threads:              1

  Minimum eigenvalue in the overlap matrix is 3.2548123780E-04.
  Using Symmetric Orthogonalization.

  SCF Guess: Superposition of Atomic Densities via on-the-fly atomic UHF.

  ==> Iterations <==

                        Total Energy        Delta E     RMS |[F,P]|

   @RHF iter SAD:  -461.79382657559142   -4.61794e+02   0.00000e+00
   @RHF iter   1:  -462.58569702085799   -7.91870e-01   2.84036e-03 DIIS
   @RHF iter   2:  -462.83006990316289   -2.44373e-01   1.21254e-03 DIIS
   @RHF iter   3:  -462.87071152694227   -4.06416e-02   2.66504e-04 DIIS
   @RHF iter   4:  -462.87392513379382   -3.21361e-03   1.01045e-04 DIIS
   @RHF iter   5:  -462.87424991575324   -3.24782e-04   2.08047e-05 DIIS
   @RHF iter   6:  -462.87426969666461   -1.97809e-05   6.51604e-06 DIIS
   @RHF iter   7:  -462.87427175440337   -2.05774e-06   1.84231e-06 DIIS
   @RHF iter   8:  -462.87427198734144   -2.32938e-07   6.97532e-07 DIIS
   @RHF iter   9:  -462.87427202042420   -3.30828e-08   2.78355e-07 DIIS
   @RHF iter  10:  -462.87427202612741   -5.70321e-09   1.08346e-07 DIIS
   @RHF iter  11:  -462.87427202782499   -1.69757e-09   4.93272e-08 DIIS
   @RHF iter  12:  -462.87427202823142   -4.06430e-10   2.39277e-08 DIIS
   @RHF iter  13:  -462.87427202829542   -6.40057e-11   8.36648e-09 DIIS
   @RHF iter  14:  -462.87427202830526   -9.83391e-12   1.88353e-09 DIIS
   @RHF iter  15:  -462.87427202830673   -1.47793e-12   6.60528e-10 DIIS
   @RHF iter  16:  -462.87427202830372    3.01270e-12   1.96751e-10 DIIS
   @RHF iter  17:  -462.87427202830145    2.27374e-12   8.36192e-11 DIIS
  Energy and wave function converged.

  ==> Post-Iterations <==

    Orbital Energies [Eh]
    ---------------------

    Doubly Occupied:

       1A    -20.586267     2A    -11.301356     3A    -11.240716
       4A    -11.240178     5A    -11.236588     6A    -11.235343
       7A    -11.232932     8A    -11.228683     9A    -11.212012
      10A    -11.208167    11A    -11.205146    12A     -1.403648
      13A     -1.150239    14A     -1.060671    15A     -1.037443
      16A     -1.018878    17A     -0.926676    18A     -0.911000
      19A     -0.844794    20A     -0.804223    21A     -0.793779
      22A     -0.734794    23A     -0.668016    24A     -0.643855
      25A     -0.631101    26A     -0.611143    27A     -0.608547
      28A     -0.588806    29A     -0.585170    30A     -0.571109
      31A     -0.565605    32A     -0.535578    33A     -0.528801
      34A     -0.513560    35A     -0.497091    36A     -0.487154
      37A     -0.480798    38A     -0.471102    39A     -0.455724
      40A     -0.451306    41A     -0.339847    42A     -0.301641

    Virtual:

      43A      0.128141    44A      0.152796    45A      0.162071
      46A      0.183870    47A      0.207081    48A      0.208772
      49A      0.215386    50A      0.233567    51A      0.238687
      52A      0.247857    53A      0.259303    54A      0.264378
      55A      0.278097    56A      0.286886    57A      0.291526
      58A      0.301405    59A      0.332367    60A      0.344409
      61A      0.369609    62A      0.370629    63A      0.387091
      64A      0.434585    65A      0.445161    66A      0.455015
      67A      0.483799    68A      0.493002    69A      0.505939
      70A      0.554506    71A      0.596007    72A      0.610261
      73A      0.627584    74A      0.631452    75A      0.633852
      76A      0.653959    77A      0.666315    78A      0.669995
      79A      0.686430    80A      0.705265    81A      0.721480
      82A      0.731588    83A      0.734903    84A      0.747402
      85A      0.766084    86A      0.775745    87A      0.781141
      88A      0.804873    89A      0.809174    90A      0.832779
      91A      0.840189    92A      0.847387    93A      0.852324
      94A      0.868331    95A      0.875044    96A      0.880561
      97A      0.883545    98A      0.885349    99A      0.889593
     100A      0.899792   101A      0.908708   102A      0.917378
     103A      0.927406   104A      0.929517   105A      0.939949
     106A      0.942707   107A      0.951735   108A      0.968010
     109A      0.972215   110A      0.992719   111A      1.001176
     112A      1.026669   113A      1.035271   114A      1.071638
     115A      1.084602   116A      1.108678   117A      1.125781
     118A      1.141225   119A      1.151693   120A      1.166969
     121A      1.197543   122A      1.210820   123A      1.240316
     124A      1.244454   125A      1.267686   126A      1.282563
     127A      1.305509   128A      1.314109   129A      1.347285
     130A      1.355460   131A      1.382415   132A      1.416885
     133A      1.432661   134A      1.475064   135A      1.482018
     136A      1.494904   137A      1.501765   138A      1.533286
     139A      1.566253   140A      1.604449   141A      1.614361
     142A      1.623227   143A      1.635566   144A      1.648882
     145A      1.676408   146A      1.706517   147A      1.723107
     148A      1.727365   149A      1.744624   150A      1.746208
     151A      1.781061   152A      1.801302   153A      1.805671
     154A      1.817899   155A      1.860118   156A      1.869625
     157A      1.875159   158A      1.887222   159A      1.898750
     160A      1.907367   161A      1.917350   162A      1.917685
     163A      1.926173   164A      1.940205   165A      1.945907
     166A      1.948072   167A      1.962066   168A      1.968147
     169A      1.975448   170A      1.991894   171A      1.997071
     172A      2.006131   173A      2.034510   174A      2.038508
     175A      2.043823   176A      2.049140   177A      2.061858
     178A      2.073886   179A      2.078230   180A      2.087612
     181A      2.121550   182A      2.141048   183A      2.167736
     184A      2.175676   185A      2.198202   186A      2.220408
     187A      2.229289   188A      2.255518   189A      2.260661
     190A      2.279706   191A      2.305707   192A      2.308269
     193A      2.339326   194A      2.356570   195A      2.392412
     196A      2.406729   197A      2.426854   198A      2.451064
     199A      2.460087   200A      2.466500   201A      2.475143
     202A      2.510176   203A      2.538523   204A      2.553490
     205A      2.572997   206A      2.608083   207A      2.638433
     208A      2.656734   209A      2.715819   210A      2.740615
     211A      2.755340   212A      2.768805   213A      2.779101
     214A      2.789770   215A      2.797937   216A      2.803572
     217A      2.835747   218A      2.841121   219A      2.869517
     220A      2.899641   221A      2.925638   222A      2.959323
     223A      2.971610   224A      2.999856   225A      3.067756
     226A      3.085440   227A      3.131150   228A      3.249090
     229A      3.269841   230A      3.348552   231A      3.577071
     232A      3.671464   233A      3.969083   234A      4.195568

    Final Occupation by Irrep:
              A
    DOCC [    42 ]

  @RHF Final Energy:  -462.87427202830145

   => Energetics <=

    Nuclear Repulsion Energy =            590.4304867864686912
    One-Electron Energy =               -1798.3105422939206619
    Two-Electron Energy =                 745.0057834791505229
    Total Energy =                       -462.8742720283014478

Computation Completed

Properties will be evaluated at   0.000000,   0.000000,   0.000000 [a0]

Properties computed using the SCF density matrix

  Nuclear Dipole Moment: [e a0]
     X:   -10.4013      Y:    -2.1636      Z:    -7.9643

  Electronic Dipole Moment: [e a0]
     X:    10.5514      Y:     2.1353      Z:     7.5054

  Dipole Moment: [e a0]
     X:     0.1501      Y:    -0.0282      Z:    -0.4589     Total:     0.4836

  Dipole Moment: [D]
     X:     0.3816      Y:    -0.0718      Z:    -1.1664     Total:     1.2293

*** tstop() called on ds3 at Sun Apr 26 20:51:00 2020
Module time:
	user time   =     171.12 seconds =       2.85 minutes
	system time =      62.45 seconds =       1.04 minutes
	total time  =        226 seconds =       3.77 minutes
Total time:
	user time   =     171.12 seconds =       2.85 minutes
	system time =      62.45 seconds =       1.04 minutes
	total time  =        226 seconds =       3.77 minutes
                                     G D M A

                                 by Anthony Stone

                           version 2.2.06, 22 June 2011

               Distributed Multipoles from Gaussian wavefunctions

Starting at 20:51:0 on 26 Apr 2020

Using SCF density matrix from file ./SSI/SSI-065TYR-090PRO-1-dimer.test.10200.fchk

                         Distributed Multipole Analysis

Standard DMA

Positions and radii in angstrom
Multipole moments in atomic units, ea_0^k for rank k

C          x =  1.951979  y =  3.055924  z = -1.106564 angstrom
           Maximum rank =  0   Radius =  0.650 angstrom
                   Q00  =  -0.203336

C          x =  0.729979  y = -0.481076  z =  1.020436 angstrom
           Maximum rank =  0   Radius =  0.650 angstrom
                   Q00  =   0.309521

C          x =  1.177979  y = -0.588076  z = -0.296564 angstrom
           Maximum rank =  0   Radius =  0.650 angstrom
                   Q00  =  -0.175673

C          x =  0.697979  y =  0.761924  z =  1.654436 angstrom
           Maximum rank =  0   Radius =  0.650 angstrom
                   Q00  =  -0.109280

C          x =  1.587979  y =  0.553924  z = -0.981564 angstrom
           Maximum rank =  0   Radius =  0.650 angstrom
                   Q00  =   0.021400

C          x =  1.112979  y =  1.899924  z =  0.962436 angstrom
           Maximum rank =  0   Radius =  0.650 angstrom
                   Q00  =  -0.025493

C          x =  1.558979  y =  1.806924  z = -0.360564 angstrom
           Maximum rank =  0   Radius =  0.650 angstrom
                   Q00  =  -0.121605

O          x =  0.309979  y = -1.592076  z =  1.686436 angstrom
           Maximum rank =  0   Radius =  0.650 angstrom
                   Q00  =  -0.669463

H          x =  1.178979  y = -1.544076  z = -0.805564 angstrom
           Maximum rank =  0   Radius =  0.325 angstrom
                   Q00  =   0.071217

H          x =  0.318979  y = -2.377076  z =  1.134436 angstrom
           Maximum rank =  0   Radius =  0.325 angstrom
                   Q00  =   0.408065

H          x =  0.349979  y =  0.836924  z =  2.674436 angstrom
           Maximum rank =  0   Radius =  0.325 angstrom
                   Q00  =   0.082273

H          x =  1.896979  y =  0.465924  z = -2.014564 angstrom
           Maximum rank =  0   Radius =  0.325 angstrom
                   Q00  =   0.069283

H          x =  1.073979  y =  2.861924  z =  1.457436 angstrom
           Maximum rank =  0   Radius =  0.325 angstrom
                   Q00  =   0.066297

H          x =  2.185979  y =  3.816924  z = -0.360564 angstrom
           Maximum rank =  0   Radius =  0.325 angstrom
                   Q00  =   0.093389

H          x =  1.075979  y =  3.402924  z = -1.656564 angstrom
           Maximum rank =  0   Radius =  0.325 angstrom
                   Q00  =   0.098569

H          x =  2.800579  y =  2.994954  z = -1.803814 angstrom
           Maximum rank =  0   Radius =  0.325 angstrom
                   Q00  =   0.100003

C          x = -2.807021  y = -1.399076  z = -0.213564 angstrom
           Maximum rank =  0   Radius =  0.650 angstrom
                   Q00  =  -0.089996

C          x = -2.383021  y = -0.537076  z = -1.381564 angstrom
           Maximum rank =  0   Radius =  0.650 angstrom
                   Q00  =  -0.208359

C          x = -3.109021  y = -2.758076  z = -0.830564 angstrom
           Maximum rank =  0   Radius =  0.650 angstrom
                   Q00  =  -0.237905

H          x = -3.672021  y = -0.978076  z =  0.301436 angstrom
           Maximum rank =  0   Radius =  0.325 angstrom
                   Q00  =   0.055766

H          x = -1.979021  y = -1.498076  z =  0.483436 angstrom
           Maximum rank =  0   Radius =  0.325 angstrom
                   Q00  =   0.039450

H          x = -3.270021  y = -0.093076  z = -1.836564 angstrom
           Maximum rank =  0   Radius =  0.325 angstrom
                   Q00  =   0.071228

H          x = -1.696021  y =  0.248924  z = -1.068564 angstrom
           Maximum rank =  0   Radius =  0.325 angstrom
                   Q00  =   0.092758

H          x = -2.751021  y = -3.531076  z = -0.149564 angstrom
           Maximum rank =  0   Radius =  0.325 angstrom
                   Q00  =   0.075568

H          x = -1.911981  y = -1.218196  z = -2.105574 angstrom
           Maximum rank =  0   Radius =  0.325 angstrom
                   Q00  =   0.043184

H          x = -2.512731  y = -2.778376  z = -1.754704 angstrom
           Maximum rank =  0   Radius =  0.325 angstrom
                   Q00  =   0.059931

H          x = -4.185311  y = -2.910186  z = -0.999254 angstrom
           Maximum rank =  0   Radius =  0.325 angstrom
                   Q00  =   0.083205

Total multipoles referred to origin at
           x =   0.000000,  y =    0.000000,  z =    0.000000 angstrom
                   Q00  =  -0.000000

Finished at 20:51:0 on 26 Apr 2020

  DMA results are available in the Python driver through the
	  variable('DMA DISTRIBUTED MULTIPOLES')
  and
	  variable('DMA TOTAL MULTIPOLES')
  commands.

    Psi4 stopped on: Sunday, 26 April 2020 08:51PM
    Psi4 wall time for execution: 0:03:46.05

*** Psi4 exiting successfully. Buy a developer a beer!
