                               Psi4 1.3.2 release

  ==> Input File <==

--------------------------------------------------------------------------
import numpy as np
set {scf_type pk
basis cc-pvdz
d_convergence 10
gdma_switch   0
gdma_limit    0
gdma_origin   [ 0.0,  0.0,  0.0 ]
}
molecule test {
    units Angstrom
    1 1
    --
    1 1
    C                2.071828656948742    -2.090014222360951    -1.497078305053540
    C                0.318828656948742    -0.842014222360951    -0.249078305053540
    N               -0.968171343051258    -0.536014222360951    -0.156078305053540
    N                0.712828656948742    -1.621014222360950    -1.247078305053540
    N                1.157828656948742    -0.400014222360951     0.654921694946460
    H               -1.587171343051257    -0.877014222360951    -0.889078305053540
    H               -1.289171343051257     0.152985777639049     0.511921694946460
    H               -0.026171343051258    -1.899014222360951    -1.894078305053540
    H                2.129828656948743    -0.659014222360951     0.601921694946460
    H                0.823828656948743     0.167985777639049     1.416921694946460
    H                2.455828656948742    -2.621014222360951    -0.623078305053540
    H                2.716828656948743    -1.234014222360950    -1.706078305053540
    H                2.090078656948743    -2.763734222360950    -2.366428305053540
    C               -1.817171343051257     3.110985777639049     0.810921694946460
    O               -1.236171343051258     1.940985777639050     1.394921694946460
    H               -1.168171343051257     2.088985777639050     2.352921694946459
    H               -1.335171343051258     3.319985777639050    -0.145078305053540
    H               -1.664171343051257     3.965985777639049     1.470921694946460
    H               -2.895284343051257     2.950655777639050     0.662711694946460

}
e, wfn = energy('scf', return_wfn=True)
gdma(wfn)
dmavals = variable('DMA DISTRIBUTED MULTIPOLES')
charges = np.array(dmavals)
print(charges)
np.save('SSI-008ARG-115SER-1-dimer.npy', np.array(charges))--------------------------------------------------------------------------

*** tstart() called on ds3
*** at Sun Apr 26 20:38:58 2020

   => Loading Basis Set <=

    Name: CC-PVDZ
    Role: ORBITAL
    Keyword: BASIS
    atoms 1-2, 14     entry C          line   138 file /theoryfs2/ds/metcalf/miniconda2/envs/tf2gpu/share/psi4/basis/cc-pvdz.gbs
    atoms 3-5         entry N          line   168 file /theoryfs2/ds/metcalf/miniconda2/envs/tf2gpu/share/psi4/basis/cc-pvdz.gbs
    atoms 6-13, 16-19 entry H          line    22 file /theoryfs2/ds/metcalf/miniconda2/envs/tf2gpu/share/psi4/basis/cc-pvdz.gbs
    atoms 15          entry O          line   198 file /theoryfs2/ds/metcalf/miniconda2/envs/tf2gpu/share/psi4/basis/cc-pvdz.gbs

         ---------------------------------------------------------
                                   SCF
               by Justin Turney, Rob Parrish, Andy Simmonett
                          and Daniel G. A. Smith
                              RHF Reference
                        1 Threads,    500 MiB Core
         ---------------------------------------------------------

  ==> Geometry <==

    Molecular point group: c1
    Full point group: C1

    Geometry (in Angstrom), charge = 1, multiplicity = 1:

       Center              X                  Y                   Z               Mass
    ------------   -----------------  -----------------  -----------------  -----------------
         C            2.071828656949    -2.090014222361    -1.497078305054    12.000000000000
         C            0.318828656949    -0.842014222361    -0.249078305054    12.000000000000
         N           -0.968171343051    -0.536014222361    -0.156078305054    14.003074004430
         N            0.712828656949    -1.621014222361    -1.247078305054    14.003074004430
         N            1.157828656949    -0.400014222361     0.654921694946    14.003074004430
         H           -1.587171343051    -0.877014222361    -0.889078305054     1.007825032230
         H           -1.289171343051     0.152985777639     0.511921694946     1.007825032230
         H           -0.026171343051    -1.899014222361    -1.894078305054     1.007825032230
         H            2.129828656949    -0.659014222361     0.601921694946     1.007825032230
         H            0.823828656949     0.167985777639     1.416921694946     1.007825032230
         H            2.455828656949    -2.621014222361    -0.623078305054     1.007825032230
         H            2.716828656949    -1.234014222361    -1.706078305054     1.007825032230
         H            2.090078656949    -2.763734222361    -2.366428305054     1.007825032230
         C           -1.817171343051     3.110985777639     0.810921694946    12.000000000000
         O           -1.236171343051     1.940985777639     1.394921694946    15.994914619570
         H           -1.168171343051     2.088985777639     2.352921694946     1.007825032230
         H           -1.335171343051     3.319985777639    -0.145078305054     1.007825032230
         H           -1.664171343051     3.965985777639     1.470921694946     1.007825032230
         H           -2.895284343051     2.950655777639     0.662711694946     1.007825032230

  Running in c1 symmetry.

  Rotational constants: A =      0.20746  B =      0.02804  C =      0.02659 [cm^-1]
  Rotational constants: A =   6219.44949  B =    840.66677  C =    797.10563 [MHz]
  Nuclear repulsion =  322.490332932367437

  Charge       = 1
  Multiplicity = 1
  Electrons    = 58
  Nalpha       = 29
  Nbeta        = 29

  ==> Algorithm <==

  SCF Algorithm Type is PK.
  DIIS enabled.
  MOM disabled.
  Fractional occupation disabled.
  Guess Type is SAD.
  Energy threshold   = 1.00e-06
  Density threshold  = 1.00e-10
  Integral threshold = 0.00e+00

  ==> Primary Basis <==

  Basis Set: CC-PVDZ
    Blend: CC-PVDZ
    Number of shells: 78
    Number of basis function: 158
    Number of Cartesian functions: 165
    Spherical Harmonics?: true
    Max angular momentum: 2

  ==> Pre-Iterations <==

   -------------------------------------------------------
    Irrep   Nso     Nmo     Nalpha   Nbeta   Ndocc  Nsocc
   -------------------------------------------------------
     A        158     158       0       0       0       0
   -------------------------------------------------------
    Total     158     158      29      29      29       0
   -------------------------------------------------------

  ==> Integral Setup <==

  Using integral reordering PK algorithm.
  Sizing the integral batches needed.
  Building batch lookup table.
   Calculation information:
      Number of atoms:                  19
      Number of AO shells:              78
      Number of primitives:            214
      Number of atomic orbitals:       165
      Number of basis functions:       158

      Integral cutoff                 1.00e-12
      Number of threads:                 1

	Batch   1 pq = [       0,    9405] index = [             0,44231715] size =     44231715
	Batch   2 pq = [    9405,   12561] index = [      44231715,78895641] size =     34663926
  Task number: 8
  Buffer size: 11059200
  Buffer per thread: 2
  We computed 3929775 shell quartets total.
  Whereas there are 4747821 unique shell quartets.

  ==> DiskJK: Disk-Based J/K Matrices <==

    J tasked:                  Yes
    K tasked:                  Yes
    wK tasked:                  No
    Memory [MiB]:              375
    Schwarz Cutoff:          1E-12

    OpenMP threads:              1

  Minimum eigenvalue in the overlap matrix is 3.8924650064E-03.
  Using Symmetric Orthogonalization.

  SCF Guess: Superposition of Atomic Densities via on-the-fly atomic UHF.

  ==> Iterations <==

                        Total Energy        Delta E     RMS |[F,P]|

   @RHF iter SAD:  -357.85877280138152   -3.57859e+02   0.00000e+00
   @RHF iter   1:  -358.47845567645993   -6.19683e-01   3.56585e-03 DIIS
   @RHF iter   2:  -358.62739708190327   -1.48941e-01   1.50355e-03 DIIS
   @RHF iter   3:  -358.65084311432571   -2.34460e-02   3.75052e-04 DIIS
   @RHF iter   4:  -358.65314234366554   -2.29923e-03   9.34510e-05 DIIS
   @RHF iter   5:  -358.65326487099338   -1.22527e-04   2.46262e-05 DIIS
   @RHF iter   6:  -358.65327779549210   -1.29245e-05   6.91209e-06 DIIS
   @RHF iter   7:  -358.65327888676734   -1.09128e-06   1.89758e-06 DIIS
   @RHF iter   8:  -358.65327898325302   -9.64857e-08   5.63873e-07 DIIS
   @RHF iter   9:  -358.65327898998407   -6.73106e-09   8.87120e-08 DIIS
   @RHF iter  10:  -358.65327899018774   -2.03670e-10   3.17697e-08 DIIS
   @RHF iter  11:  -358.65327899020667   -1.89289e-11   7.93860e-09 DIIS
   @RHF iter  12:  -358.65327899020895   -2.27374e-12   2.50232e-09 DIIS
   @RHF iter  13:  -358.65327899021042   -1.47793e-12   1.03988e-09 DIIS
   @RHF iter  14:  -358.65327899021150   -1.08002e-12   2.66922e-10 DIIS
   @RHF iter  15:  -358.65327899020917    2.33058e-12   8.20105e-11 DIIS
  Energy and wave function converged.

  ==> Post-Iterations <==

    Orbital Energies [Eh]
    ---------------------

    Doubly Occupied:

       1A    -20.701040     2A    -15.772988     3A    -15.771620
       4A    -15.756865     5A    -11.569099     6A    -11.432290
       7A    -11.400084     8A     -1.527542     9A     -1.492797
      10A     -1.387328    11A     -1.368087    12A     -1.129052
      13A     -1.048099    14A     -1.019666    15A     -0.956504
      16A     -0.917864    17A     -0.846773    18A     -0.834507
      19A     -0.818200    20A     -0.810817    21A     -0.781127
      22A     -0.745391    23A     -0.730046    24A     -0.722927
      25A     -0.712520    26A     -0.633010    27A     -0.597458
      28A     -0.583537    29A     -0.568232

    Virtual:

      30A      0.006235    31A      0.036082    32A      0.042131
      33A      0.046755    34A      0.073742    35A      0.083963
      36A      0.113211    37A      0.127196    38A      0.131307
      39A      0.135367    40A      0.147004    41A      0.161384
      42A      0.182777    43A      0.217714    44A      0.249337
      45A      0.296781    46A      0.343642    47A      0.357475
      48A      0.469333    49A      0.477037    50A      0.494591
      51A      0.516951    52A      0.525001    53A      0.534386
      54A      0.540295    55A      0.552901    56A      0.570260
      57A      0.580143    58A      0.600286    59A      0.686906
      60A      0.699638    61A      0.706193    62A      0.716726
      63A      0.721840    64A      0.740456    65A      0.753507
      66A      0.760863    67A      0.777886    68A      0.796411
      69A      0.818549    70A      0.821687    71A      0.852468
      72A      0.893913    73A      0.924309    74A      0.931482
      75A      0.958664    76A      0.990337    77A      1.015288
      78A      1.020145    79A      1.061741    80A      1.072124
      81A      1.101466    82A      1.144235    83A      1.161752
      84A      1.189917    85A      1.201888    86A      1.225863
      87A      1.234291    88A      1.247264    89A      1.289951
      90A      1.416296    91A      1.445949    92A      1.468938
      93A      1.500271    94A      1.511717    95A      1.534148
      96A      1.536554    97A      1.548055    98A      1.555658
      99A      1.578909   100A      1.633408   101A      1.684509
     102A      1.707461   103A      1.730535   104A      1.737117
     105A      1.747642   106A      1.758646   107A      1.767780
     108A      1.796368   109A      1.799538   110A      1.807166
     111A      1.814021   112A      1.844555   113A      1.857838
     114A      1.867878   115A      1.914275   116A      1.932765
     117A      1.969821   118A      2.028929   119A      2.039492
     120A      2.095795   121A      2.106309   122A      2.150815
     123A      2.179186   124A      2.194306   125A      2.246436
     126A      2.252418   127A      2.274150   128A      2.286888
     129A      2.319067   130A      2.327098   131A      2.342376
     132A      2.352691   133A      2.398183   134A      2.479814
     135A      2.504684   136A      2.569591   137A      2.595859
     138A      2.607904   139A      2.624406   140A      2.643362
     141A      2.649086   142A      2.663891   143A      2.716519
     144A      2.782669   145A      2.823012   146A      2.827427
     147A      2.859345   148A      2.896756   149A      3.081194
     150A      3.127794   151A      3.153333   152A      3.159771
     153A      3.226875   154A      3.302785   155A      3.434907
     156A      3.565777   157A      3.665800   158A      3.944566

    Final Occupation by Irrep:
              A
    DOCC [    29 ]

  @RHF Final Energy:  -358.65327899020917

   => Energetics <=

    Nuclear Repulsion Energy =            322.4903329323674370
    One-Electron Energy =               -1117.0162816647912223
    Two-Electron Energy =                 435.8726697422146117
    Total Energy =                       -358.6532789902091736

Computation Completed

Properties will be evaluated at   0.000000,   0.000000,   0.000000 [a0]

Properties computed using the SCF density matrix

  Nuclear Dipole Moment: [e a0]
     X:     0.2268      Y:     2.4474      Z:    -0.5597

  Electronic Dipole Moment: [e a0]
     X:     0.1985      Y:    -3.0312      Z:     0.3921

  Dipole Moment: [e a0]
     X:     0.4253      Y:    -0.5838      Z:    -0.1676     Total:     0.7415

  Dipole Moment: [D]
     X:     1.0810      Y:    -1.4840      Z:    -0.4260     Total:     1.8847

*** tstop() called on ds3 at Sun Apr 26 20:39:35 2020
Module time:
	user time   =      26.97 seconds =       0.45 minutes
	system time =      11.28 seconds =       0.19 minutes
	total time  =         37 seconds =       0.62 minutes
Total time:
	user time   =      26.97 seconds =       0.45 minutes
	system time =      11.28 seconds =       0.19 minutes
	total time  =         37 seconds =       0.62 minutes
                                     G D M A

                                 by Anthony Stone

                           version 2.2.06, 22 June 2011

               Distributed Multipoles from Gaussian wavefunctions

Starting at 20:39:35 on 26 Apr 2020

Using SCF density matrix from file ./SSI/SSI-008ARG-115SER-1-dimer.test.4506.fchk

                         Distributed Multipole Analysis

Standard DMA

Positions and radii in angstrom
Multipole moments in atomic units, ea_0^k for rank k

C          x =  2.071829  y = -2.090014  z = -1.497078 angstrom
           Maximum rank =  0   Radius =  0.650 angstrom
                   Q00  =  -0.127343

C          x =  0.318829  y = -0.842014  z = -0.249078 angstrom
           Maximum rank =  0   Radius =  0.650 angstrom
                   Q00  =   1.083567

N          x = -0.968171  y = -0.536014  z = -0.156078 angstrom
           Maximum rank =  0   Radius =  0.650 angstrom
                   Q00  =  -0.607404

N          x =  0.712829  y = -1.621014  z = -1.247078 angstrom
           Maximum rank =  0   Radius =  0.650 angstrom
                   Q00  =  -0.497878

N          x =  1.157829  y = -0.400014  z =  0.654922 angstrom
           Maximum rank =  0   Radius =  0.650 angstrom
                   Q00  =  -0.576007

H          x = -1.587171  y = -0.877014  z = -0.889078 angstrom
           Maximum rank =  0   Radius =  0.325 angstrom
                   Q00  =   0.248290

H          x = -1.289171  y =  0.152986  z =  0.511922 angstrom
           Maximum rank =  0   Radius =  0.325 angstrom
                   Q00  =   0.291916

H          x = -0.026171  y = -1.899014  z = -1.894078 angstrom
           Maximum rank =  0   Radius =  0.325 angstrom
                   Q00  =   0.226589

H          x =  2.129829  y = -0.659014  z =  0.601922 angstrom
           Maximum rank =  0   Radius =  0.325 angstrom
                   Q00  =   0.264510

H          x =  0.823829  y =  0.167986  z =  1.416922 angstrom
           Maximum rank =  0   Radius =  0.325 angstrom
                   Q00  =   0.272736

H          x =  2.455829  y = -2.621014  z = -0.623078 angstrom
           Maximum rank =  0   Radius =  0.325 angstrom
                   Q00  =   0.113459

H          x =  2.716829  y = -1.234014  z = -1.706078 angstrom
           Maximum rank =  0   Radius =  0.325 angstrom
                   Q00  =   0.113277

H          x =  2.090079  y = -2.763734  z = -2.366428 angstrom
           Maximum rank =  0   Radius =  0.325 angstrom
                   Q00  =   0.167763

C          x = -1.817171  y =  3.110986  z =  0.810922 angstrom
           Maximum rank =  0   Radius =  0.650 angstrom
                   Q00  =  -0.074967

O          x = -1.236171  y =  1.940986  z =  1.394922 angstrom
           Maximum rank =  0   Radius =  0.650 angstrom
                   Q00  =  -0.658490

H          x = -1.168171  y =  2.088986  z =  2.352922 angstrom
           Maximum rank =  0   Radius =  0.325 angstrom
                   Q00  =   0.424090

H          x = -1.335171  y =  3.319986  z = -0.145078 angstrom
           Maximum rank =  0   Radius =  0.325 angstrom
                   Q00  =   0.120091

H          x = -1.664171  y =  3.965986  z =  1.470922 angstrom
           Maximum rank =  0   Radius =  0.325 angstrom
                   Q00  =   0.112788

H          x = -2.895284  y =  2.950656  z =  0.662712 angstrom
           Maximum rank =  0   Radius =  0.325 angstrom
                   Q00  =   0.103012

Total multipoles referred to origin at
           x =   0.000000,  y =    0.000000,  z =    0.000000 angstrom
                   Q00  =   1.000000

Finished at 20:39:35 on 26 Apr 2020

  DMA results are available in the Python driver through the
	  variable('DMA DISTRIBUTED MULTIPOLES')
  and
	  variable('DMA TOTAL MULTIPOLES')
  commands.

    Psi4 stopped on: Sunday, 26 April 2020 08:39PM
    Psi4 wall time for execution: 0:00:37.15

*** Psi4 exiting successfully. Buy a developer a beer!
