                               Psi4 1.3.2 release

  ==> Input File <==

--------------------------------------------------------------------------
import numpy as np
set {scf_type pk
basis cc-pvdz
d_convergence 10
gdma_switch   0
gdma_limit    0
gdma_origin   [ 0.0,  0.0,  0.0 ]
}
molecule test {
    units Angstrom
    0 1
    --
    0 1
    C                1.646211849564874    -1.416478317354406    -3.032164722794614
    C                0.613211849564874    -0.594478317354406     0.521835277205386
    C               -0.016788150435126    -1.764478317354406     0.916835277205386
    C                1.164211849564874    -0.467478317354406    -0.746164722794614
    C                1.087211849564874    -1.519478317354406    -1.637164722794614
    C               -0.107788150435126    -2.809478317354406     0.032835277205386
    C                0.454211849564874    -2.703478317354406    -1.230164722794614
    H                0.686211849564874     0.221521682645594     1.222835277205386
    H               -0.435788150435126    -1.849478317354406     1.910835277205386
    H                1.656211849564874     0.451521682645594    -1.030164722794614
    H               -0.587788150435126    -3.728478317354406     0.317835277205386
    H                1.634211849564874    -0.375478317354406    -3.350164722794614
    H                0.987211849564874    -1.966478317354406    -3.706164722794614
    H                0.388211849564874    -3.540478317354406    -1.912164722794614
    H                2.664651849564874    -1.819084317354406    -3.135524722794614
    C                0.145211849564874     3.236521682645594     1.093835277205386
    C               -1.136788150435126     2.449521682645594     1.276835277205386
    O               -1.365788150435126     1.815521682645594     2.301835277205386
    N               -1.999788150435126     2.508521682645594     0.261835277205386
    H               -0.115788150435126     4.288521682645595     0.985835277205386
    H                0.613211849564874     2.906521682645594     0.167835277205386
    H               -2.901788150435126     2.050521682645595     0.349835277205386
    H               -1.824788150435126     3.111521682645594    -0.525164722794614
    H                0.869551849564874     3.132315682645594     1.915095277205386

}
e, wfn = energy('scf', return_wfn=True)
gdma(wfn)
dmavals = variable('DMA DISTRIBUTED MULTIPOLES')
charges = np.array(dmavals)
print(charges)
np.save('SSI-132PHE-183GLN-1-dimer.npy', np.array(charges))--------------------------------------------------------------------------

*** tstart() called on ds3
*** at Tue Apr 28 04:15:13 2020

   => Loading Basis Set <=

    Name: CC-PVDZ
    Role: ORBITAL
    Keyword: BASIS
    atoms 1-7, 16-17  entry C          line   138 file /theoryfs2/ds/metcalf/miniconda2/envs/tf2gpu/share/psi4/basis/cc-pvdz.gbs
    atoms 8-15, 20-24 entry H          line    22 file /theoryfs2/ds/metcalf/miniconda2/envs/tf2gpu/share/psi4/basis/cc-pvdz.gbs
    atoms 18          entry O          line   198 file /theoryfs2/ds/metcalf/miniconda2/envs/tf2gpu/share/psi4/basis/cc-pvdz.gbs
    atoms 19          entry N          line   168 file /theoryfs2/ds/metcalf/miniconda2/envs/tf2gpu/share/psi4/basis/cc-pvdz.gbs

         ---------------------------------------------------------
                                   SCF
               by Justin Turney, Rob Parrish, Andy Simmonett
                          and Daniel G. A. Smith
                              RHF Reference
                        1 Threads,    500 MiB Core
         ---------------------------------------------------------

  ==> Geometry <==

    Molecular point group: c1
    Full point group: C1

    Geometry (in Angstrom), charge = 0, multiplicity = 1:

       Center              X                  Y                   Z               Mass
    ------------   -----------------  -----------------  -----------------  -----------------
         C            1.646211849565    -1.416478317354    -3.032164722795    12.000000000000
         C            0.613211849565    -0.594478317354     0.521835277205    12.000000000000
         C           -0.016788150435    -1.764478317354     0.916835277205    12.000000000000
         C            1.164211849565    -0.467478317354    -0.746164722795    12.000000000000
         C            1.087211849565    -1.519478317354    -1.637164722795    12.000000000000
         C           -0.107788150435    -2.809478317354     0.032835277205    12.000000000000
         C            0.454211849565    -2.703478317354    -1.230164722795    12.000000000000
         H            0.686211849565     0.221521682646     1.222835277205     1.007825032230
         H           -0.435788150435    -1.849478317354     1.910835277205     1.007825032230
         H            1.656211849565     0.451521682646    -1.030164722795     1.007825032230
         H           -0.587788150435    -3.728478317354     0.317835277205     1.007825032230
         H            1.634211849565    -0.375478317354    -3.350164722795     1.007825032230
         H            0.987211849565    -1.966478317354    -3.706164722795     1.007825032230
         H            0.388211849565    -3.540478317354    -1.912164722795     1.007825032230
         H            2.664651849565    -1.819084317354    -3.135524722795     1.007825032230
         C            0.145211849565     3.236521682646     1.093835277205    12.000000000000
         C           -1.136788150435     2.449521682646     1.276835277205    12.000000000000
         O           -1.365788150435     1.815521682646     2.301835277205    15.994914619570
         N           -1.999788150435     2.508521682646     0.261835277205    14.003074004430
         H           -0.115788150435     4.288521682646     0.985835277205     1.007825032230
         H            0.613211849565     2.906521682646     0.167835277205     1.007825032230
         H           -2.901788150435     2.050521682646     0.349835277205     1.007825032230
         H           -1.824788150435     3.111521682646    -0.525164722795     1.007825032230
         H            0.869551849565     3.132315682646     1.915095277205     1.007825032230

  Running in c1 symmetry.

  Rotational constants: A =      0.05843  B =      0.01622  C =      0.01424 [cm^-1]
  Rotational constants: A =   1751.70172  B =    486.39213  C =    426.95020 [MHz]
  Nuclear repulsion =  558.547400281243199

  Charge       = 0
  Multiplicity = 1
  Electrons    = 82
  Nalpha       = 41
  Nbeta        = 41

  ==> Algorithm <==

  SCF Algorithm Type is PK.
  DIIS enabled.
  MOM disabled.
  Fractional occupation disabled.
  Guess Type is SAD.
  Energy threshold   = 1.00e-06
  Density threshold  = 1.00e-10
  Integral threshold = 0.00e+00

  ==> Primary Basis <==

  Basis Set: CC-PVDZ
    Blend: CC-PVDZ
    Number of shells: 105
    Number of basis function: 219
    Number of Cartesian functions: 230
    Spherical Harmonics?: true
    Max angular momentum: 2

  ==> Pre-Iterations <==

   -------------------------------------------------------
    Irrep   Nso     Nmo     Nalpha   Nbeta   Ndocc  Nsocc
   -------------------------------------------------------
     A        219     219       0       0       0       0
   -------------------------------------------------------
    Total     219     219      41      41      41       0
   -------------------------------------------------------

  ==> Integral Setup <==

  Using integral reordering PK algorithm.
  Sizing the integral batches needed.
  Building batch lookup table.
   Calculation information:
      Number of atoms:                  24
      Number of AO shells:             105
      Number of primitives:            307
      Number of atomic orbitals:       230
      Number of basis functions:       219

      Integral cutoff                 1.00e-12
      Number of threads:                 1

	Batch   1 pq = [       0,    9405] index = [             0,44231715] size =     44231715
	Batch   2 pq = [    9405,   13301] index = [      44231715,88464951] size =     44233236
	Batch   3 pq = [   13301,   16290] index = [      88464951,132690195] size =     44225244
	Batch   4 pq = [   16290,   18810] index = [     132690195,176917455] size =     44227260
	Batch   5 pq = [   18810,   21030] index = [     176917455,221140965] size =     44223510
	Batch   6 pq = [   21030,   23037] index = [     221140965,265363203] size =     44222238
	Batch   7 pq = [   23037,   24090] index = [     265363203,290176095] size =     24812892
  Task number: 27
  Buffer size: 11059200
  Buffer per thread: 2
  We computed 13577614 shell quartets total.
  Whereas there are 15487395 unique shell quartets.

  ==> DiskJK: Disk-Based J/K Matrices <==

    J tasked:                  Yes
    K tasked:                  Yes
    wK tasked:                  No
    Memory [MiB]:              375
    Schwarz Cutoff:          1E-12

    OpenMP threads:              1

  Minimum eigenvalue in the overlap matrix is 2.9576846457E-04.
  Using Symmetric Orthogonalization.

  SCF Guess: Superposition of Atomic Densities via on-the-fly atomic UHF.

  ==> Iterations <==

                        Total Energy        Delta E     RMS |[F,P]|

   @RHF iter SAD:  -476.51455799859912   -4.76515e+02   0.00000e+00
   @RHF iter   1:  -477.45532153390417   -9.40764e-01   3.23036e-03 DIIS
   @RHF iter   2:  -477.69225578720830   -2.36934e-01   1.71981e-03 DIIS
   @RHF iter   3:  -477.74858183397379   -5.63260e-02   3.92062e-04 DIIS
   @RHF iter   4:  -477.75285361326826   -4.27178e-03   1.57567e-04 DIIS
   @RHF iter   5:  -477.75354967330679   -6.96060e-04   2.41404e-05 DIIS
   @RHF iter   6:  -477.75358294177101   -3.32685e-05   1.13422e-05 DIIS
   @RHF iter   7:  -477.75358928689479   -6.34512e-06   4.23861e-06 DIIS
   @RHF iter   8:  -477.75359052094927   -1.23405e-06   1.60997e-06 DIIS
   @RHF iter   9:  -477.75359068562517   -1.64676e-07   6.24347e-07 DIIS
   @RHF iter  10:  -477.75359070372235   -1.80972e-08   1.71696e-07 DIIS
   @RHF iter  11:  -477.75359070552054   -1.79818e-09   5.03008e-08 DIIS
   @RHF iter  12:  -477.75359070563593   -1.15392e-10   1.81010e-08 DIIS
   @RHF iter  13:  -477.75359070565878   -2.28511e-11   6.21087e-09 DIIS
   @RHF iter  14:  -477.75359070566088   -2.10321e-12   3.24983e-09 DIIS
   @RHF iter  15:  -477.75359070566174   -8.52651e-13   1.52926e-09 DIIS
   @RHF iter  16:  -477.75359070566100    7.38964e-13   5.18207e-10 DIIS
   @RHF iter  17:  -477.75359070566094    5.68434e-14   2.07651e-10 DIIS
   @RHF iter  18:  -477.75359070565935    1.59162e-12   5.46251e-11 DIIS
  Energy and wave function converged.

  ==> Post-Iterations <==

    Orbital Energies [Eh]
    ---------------------

    Doubly Occupied:

       1A    -20.506344     2A    -15.587349     3A    -11.349447
       4A    -11.243674     5A    -11.236070     6A    -11.228011
       7A    -11.226289     8A    -11.225856     9A    -11.224491
      10A    -11.224394    11A    -11.220466    12A     -1.368511
      13A     -1.214717    14A     -1.151212    15A     -1.042138
      16A     -1.007940    17A     -1.001717    18A     -0.928974
      19A     -0.820683    20A     -0.798568    21A     -0.791386
      22A     -0.723388    23A     -0.687466    24A     -0.654482
      25A     -0.628467    26A     -0.625433    27A     -0.614737
      28A     -0.577008    29A     -0.574915    30A     -0.572880
      31A     -0.559420    32A     -0.557463    33A     -0.533611
      34A     -0.521795    35A     -0.484367    36A     -0.478974
      37A     -0.476717    38A     -0.410848    39A     -0.404288
      40A     -0.329423    41A     -0.316841

    Virtual:

      42A      0.141451    43A      0.146046    44A      0.160351
      45A      0.185655    46A      0.200508    47A      0.206935
      48A      0.210776    49A      0.231435    50A      0.239151
      51A      0.247232    52A      0.261262    53A      0.265427
      54A      0.272176    55A      0.284442    56A      0.301095
      57A      0.327824    58A      0.373531    59A      0.383358
      60A      0.388952    61A      0.457753    62A      0.469747
      63A      0.482062    64A      0.485438    65A      0.494460
      66A      0.543373    67A      0.568866    68A      0.601980
      69A      0.626589    70A      0.639783    71A      0.665802
      72A      0.679147    73A      0.694344    74A      0.697773
      75A      0.705637    76A      0.716670    77A      0.726979
      78A      0.733116    79A      0.740265    80A      0.746310
      81A      0.753549    82A      0.766026    83A      0.766795
      84A      0.781554    85A      0.789434    86A      0.808744
      87A      0.842186    88A      0.853260    89A      0.858468
      90A      0.874774    91A      0.875768    92A      0.882589
      93A      0.886734    94A      0.905047    95A      0.914435
      96A      0.918010    97A      0.926781    98A      0.935964
      99A      0.941288   100A      0.958270   101A      0.964633
     102A      0.998418   103A      1.013943   104A      1.028227
     105A      1.039422   106A      1.070004   107A      1.082116
     108A      1.106403   109A      1.131489   110A      1.146482
     111A      1.160644   112A      1.161768   113A      1.173745
     114A      1.199907   115A      1.252524   116A      1.255194
     117A      1.261280   118A      1.269103   119A      1.305130
     120A      1.314658   121A      1.328270   122A      1.331849
     123A      1.336642   124A      1.350803   125A      1.371969
     126A      1.399235   127A      1.417550   128A      1.428011
     129A      1.480640   130A      1.503273   131A      1.516984
     132A      1.533663   133A      1.558066   134A      1.614958
     135A      1.664707   136A      1.667226   137A      1.675553
     138A      1.704194   139A      1.717766   140A      1.745400
     141A      1.760980   142A      1.780076   143A      1.796004
     144A      1.798020   145A      1.816452   146A      1.848908
     147A      1.867932   148A      1.882494   149A      1.898353
     150A      1.909087   151A      1.918048   152A      1.920091
     153A      1.922878   154A      1.933471   155A      1.941858
     156A      1.949148   157A      1.958479   158A      1.972513
     159A      1.981823   160A      1.991251   161A      2.005187
     162A      2.011713   163A      2.035385   164A      2.048216
     165A      2.069761   166A      2.089885   167A      2.091832
     168A      2.117716   169A      2.124447   170A      2.159623
     171A      2.166238   172A      2.183133   173A      2.190137
     174A      2.203875   175A      2.239758   176A      2.262617
     177A      2.276801   178A      2.294954   179A      2.304638
     180A      2.307661   181A      2.321085   182A      2.345665
     183A      2.432000   184A      2.453331   185A      2.478306
     186A      2.483701   187A      2.500061   188A      2.510154
     189A      2.547349   190A      2.554440   191A      2.593927
     192A      2.617971   193A      2.633728   194A      2.697235
     195A      2.751315   196A      2.759253   197A      2.768956
     198A      2.777412   199A      2.801059   200A      2.809218
     201A      2.835999   202A      2.856823   203A      2.877858
     204A      2.889955   205A      2.991591   206A      3.005531
     207A      3.028218   208A      3.035122   209A      3.094105
     210A      3.137659   211A      3.172355   212A      3.221337
     213A      3.271808   214A      3.322472   215A      3.517768
     216A      3.534607   217A      3.857264   218A      3.903960
     219A      4.000633

    Final Occupation by Irrep:
              A
    DOCC [    41 ]

  @RHF Final Energy:  -477.75359070565935

   => Energetics <=

    Nuclear Repulsion Energy =            558.5474002812431991
    One-Electron Energy =               -1756.3404631364460329
    Two-Electron Energy =                 720.0394721495434851
    Total Energy =                       -477.7535907056593487

Computation Completed

Properties will be evaluated at   0.000000,   0.000000,   0.000000 [a0]

Properties computed using the SCF density matrix

  Nuclear Dipole Moment: [e a0]
     X:     3.4056      Y:     2.7041      Z:    -6.3544

  Electronic Dipole Moment: [e a0]
     X:    -3.4587      Y:    -1.8330      Z:     4.9020

  Dipole Moment: [e a0]
     X:    -0.0531      Y:     0.8711      Z:    -1.4524     Total:     1.6945

  Dipole Moment: [D]
     X:    -0.1350      Y:     2.2142      Z:    -3.6917     Total:     4.3069

*** tstop() called on ds3 at Tue Apr 28 04:20:15 2020
Module time:
	user time   =     103.82 seconds =       1.73 minutes
	system time =      40.72 seconds =       0.68 minutes
	total time  =        302 seconds =       5.03 minutes
Total time:
	user time   =     103.82 seconds =       1.73 minutes
	system time =      40.72 seconds =       0.68 minutes
	total time  =        302 seconds =       5.03 minutes
                                     G D M A

                                 by Anthony Stone

                           version 2.2.06, 22 June 2011

               Distributed Multipoles from Gaussian wavefunctions

Starting at 4:20:15 on 28 Apr 2020

Using SCF density matrix from file ./SSI/SSI-132PHE-183GLN-1-dimer.test.27388.fchk

                         Distributed Multipole Analysis

Standard DMA

Positions and radii in angstrom
Multipole moments in atomic units, ea_0^k for rank k

C          x =  1.646212  y = -1.416478  z = -3.032165 angstrom
           Maximum rank =  0   Radius =  0.650 angstrom
                   Q00  =  -0.205378

C          x =  0.613212  y = -0.594478  z =  0.521835 angstrom
           Maximum rank =  0   Radius =  0.650 angstrom
                   Q00  =   0.040134

C          x = -0.016788  y = -1.764478  z =  0.916835 angstrom
           Maximum rank =  0   Radius =  0.650 angstrom
                   Q00  =  -0.090190

C          x =  1.164212  y = -0.467478  z = -0.746165 angstrom
           Maximum rank =  0   Radius =  0.650 angstrom
                   Q00  =  -0.094996

C          x =  1.087212  y = -1.519478  z = -1.637165 angstrom
           Maximum rank =  0   Radius =  0.650 angstrom
                   Q00  =  -0.104488

C          x = -0.107788  y = -2.809478  z =  0.032835 angstrom
           Maximum rank =  0   Radius =  0.650 angstrom
                   Q00  =  -0.073034

C          x =  0.454212  y = -2.703478  z = -1.230165 angstrom
           Maximum rank =  0   Radius =  0.650 angstrom
                   Q00  =  -0.063301

H          x =  0.686212  y =  0.221522  z =  1.222835 angstrom
           Maximum rank =  0   Radius =  0.325 angstrom
                   Q00  =   0.066569

H          x = -0.435788  y = -1.849478  z =  1.910835 angstrom
           Maximum rank =  0   Radius =  0.325 angstrom
                   Q00  =   0.067189

H          x =  1.656212  y =  0.451522  z = -1.030165 angstrom
           Maximum rank =  0   Radius =  0.325 angstrom
                   Q00  =   0.046042

H          x = -0.587788  y = -3.728478  z =  0.317835 angstrom
           Maximum rank =  0   Radius =  0.325 angstrom
                   Q00  =   0.060089

H          x =  1.634212  y = -0.375478  z = -3.350165 angstrom
           Maximum rank =  0   Radius =  0.325 angstrom
                   Q00  =   0.094299

H          x =  0.987212  y = -1.966478  z = -3.706165 angstrom
           Maximum rank =  0   Radius =  0.325 angstrom
                   Q00  =   0.096440

H          x =  0.388212  y = -3.540478  z = -1.912165 angstrom
           Maximum rank =  0   Radius =  0.325 angstrom
                   Q00  =   0.052826

H          x =  2.664652  y = -1.819084  z = -3.135525 angstrom
           Maximum rank =  0   Radius =  0.325 angstrom
                   Q00  =   0.104905

C          x =  0.145212  y =  3.236522  z =  1.093835 angstrom
           Maximum rank =  0   Radius =  0.650 angstrom
                   Q00  =  -0.266402

C          x = -1.136788  y =  2.449522  z =  1.276835 angstrom
           Maximum rank =  0   Radius =  0.650 angstrom
                   Q00  =   0.822103

O          x = -1.365788  y =  1.815522  z =  2.301835 angstrom
           Maximum rank =  0   Radius =  0.650 angstrom
                   Q00  =  -0.781762

N          x = -1.999788  y =  2.508522  z =  0.261835 angstrom
           Maximum rank =  0   Radius =  0.650 angstrom
                   Q00  =  -0.536754

H          x = -0.115788  y =  4.288522  z =  0.985835 angstrom
           Maximum rank =  0   Radius =  0.325 angstrom
                   Q00  =   0.111132

H          x =  0.613212  y =  2.906522  z =  0.167835 angstrom
           Maximum rank =  0   Radius =  0.325 angstrom
                   Q00  =   0.099007

H          x = -2.901788  y =  2.050522  z =  0.349835 angstrom
           Maximum rank =  0   Radius =  0.325 angstrom
                   Q00  =   0.223965

H          x = -1.824788  y =  3.111522  z = -0.525165 angstrom
           Maximum rank =  0   Radius =  0.325 angstrom
                   Q00  =   0.200528

H          x =  0.869552  y =  3.132316  z =  1.915095 angstrom
           Maximum rank =  0   Radius =  0.325 angstrom
                   Q00  =   0.131076

Total multipoles referred to origin at
           x =   0.000000,  y =    0.000000,  z =    0.000000 angstrom
                   Q00  =  -0.000000

Finished at 4:20:15 on 28 Apr 2020

  DMA results are available in the Python driver through the
	  variable('DMA DISTRIBUTED MULTIPOLES')
  and
	  variable('DMA TOTAL MULTIPOLES')
  commands.

    Psi4 stopped on: Tuesday, 28 April 2020 04:20AM
    Psi4 wall time for execution: 0:05:02.38

*** Psi4 exiting successfully. Buy a developer a beer!
