                               Psi4 1.3.2 release

  ==> Input File <==

--------------------------------------------------------------------------
import numpy as np
set {scf_type pk
basis cc-pvdz
d_convergence 10
gdma_switch   0
gdma_limit    0
gdma_origin   [ 0.0,  0.0,  0.0 ]
}
molecule test {
    units Angstrom
    0 1
    --
    0 1
    C                1.016607389266596     1.294716998413809     0.880913122086148
    C                3.258607389266596    -0.233283001586191     0.793913122086148
    S                2.700607389266596     1.317716998413809     1.491913122086148
    H                0.513607389266596     0.378716998413809     1.193913122086148
    H                0.497607389266596     2.148716998413809     1.308913122086148
    H                0.983607389266596     1.393716998413809    -0.203086877913852
    H                2.851607389266596    -1.037283001586191     1.388913122086148
    H                4.335607389266596    -0.266283001586191     0.850913122086148
    H                2.922287389266596    -0.410867001586191    -0.238245877913852
    C               -1.148392610733404    -2.547283001586191     0.652913122086148
    C               -1.449392610733404    -1.362283001586191    -0.233086877913852
    C               -2.387392610733404    -0.408283001586191     0.147913122086148
    C               -0.779392610733404    -1.196283001586191    -1.440086877913852
    C               -2.661392610733404     0.682716998413809    -0.667086877913852
    C               -1.046392610733404    -0.105283001586191    -2.259086877913852
    C               -1.988392610733404     0.835716998413809    -1.871086877913852
    H               -1.314392610733404    -2.255283001586191     1.686913122086148
    H               -0.087392610733404    -2.773283001586191     0.563913122086148
    H               -2.888392610733403    -0.499283001586191     1.089913122086148
    H               -0.077392610733404    -1.943283001586191    -1.753086877913852
    H               -3.397392610733404     1.413716998413809    -0.364086877913852
    H               -0.529392610733404     0.002716998413809    -3.204086877913852
    H               -2.197392610733404     1.686716998413809    -2.499086877913851
    H               -1.729272610733404    -3.450403001586191     0.414272122086148

}
e, wfn = energy('scf', return_wfn=True)
gdma(wfn)
dmavals = variable('DMA DISTRIBUTED MULTIPOLES')
charges = np.array(dmavals)
print(charges)
np.save('SSI-224MET-229PHE-1-dimer.npy', np.array(charges))--------------------------------------------------------------------------

*** tstart() called on ds3
*** at Mon Apr 27 23:15:03 2020

   => Loading Basis Set <=

    Name: CC-PVDZ
    Role: ORBITAL
    Keyword: BASIS
    atoms 1-2, 10-16 entry C          line   138 file /theoryfs2/ds/metcalf/miniconda2/envs/tf2gpu/share/psi4/basis/cc-pvdz.gbs
    atoms 3          entry S          line   598 file /theoryfs2/ds/metcalf/miniconda2/envs/tf2gpu/share/psi4/basis/cc-pvdz.gbs
    atoms 4-9, 17-24 entry H          line    22 file /theoryfs2/ds/metcalf/miniconda2/envs/tf2gpu/share/psi4/basis/cc-pvdz.gbs

         ---------------------------------------------------------
                                   SCF
               by Justin Turney, Rob Parrish, Andy Simmonett
                          and Daniel G. A. Smith
                              RHF Reference
                        1 Threads,    500 MiB Core
         ---------------------------------------------------------

  ==> Geometry <==

    Molecular point group: c1
    Full point group: C1

    Geometry (in Angstrom), charge = 0, multiplicity = 1:

       Center              X                  Y                   Z               Mass
    ------------   -----------------  -----------------  -----------------  -----------------
         C            1.016607389267     1.294716998414     0.880913122086    12.000000000000
         C            3.258607389267    -0.233283001586     0.793913122086    12.000000000000
         S            2.700607389267     1.317716998414     1.491913122086    31.972071174400
         H            0.513607389267     0.378716998414     1.193913122086     1.007825032230
         H            0.497607389267     2.148716998414     1.308913122086     1.007825032230
         H            0.983607389267     1.393716998414    -0.203086877914     1.007825032230
         H            2.851607389267    -1.037283001586     1.388913122086     1.007825032230
         H            4.335607389267    -0.266283001586     0.850913122086     1.007825032230
         H            2.922287389267    -0.410867001586    -0.238245877914     1.007825032230
         C           -1.148392610733    -2.547283001586     0.652913122086    12.000000000000
         C           -1.449392610733    -1.362283001586    -0.233086877914    12.000000000000
         C           -2.387392610733    -0.408283001586     0.147913122086    12.000000000000
         C           -0.779392610733    -1.196283001586    -1.440086877914    12.000000000000
         C           -2.661392610733     0.682716998414    -0.667086877914    12.000000000000
         C           -1.046392610733    -0.105283001586    -2.259086877914    12.000000000000
         C           -1.988392610733     0.835716998414    -1.871086877914    12.000000000000
         H           -1.314392610733    -2.255283001586     1.686913122086     1.007825032230
         H           -0.087392610733    -2.773283001586     0.563913122086     1.007825032230
         H           -2.888392610733    -0.499283001586     1.089913122086     1.007825032230
         H           -0.077392610733    -1.943283001586    -1.753086877914     1.007825032230
         H           -3.397392610733     1.413716998414    -0.364086877914     1.007825032230
         H           -0.529392610733     0.002716998414    -3.204086877914     1.007825032230
         H           -2.197392610733     1.686716998414    -2.499086877914     1.007825032230
         H           -1.729272610733    -3.450403001586     0.414272122086     1.007825032230

  Running in c1 symmetry.

  Rotational constants: A =      0.05104  B =      0.01689  C =      0.01538 [cm^-1]
  Rotational constants: A =   1530.00367  B =    506.47430  C =    461.16732 [MHz]
  Nuclear repulsion =  562.258904329518600

  Charge       = 0
  Multiplicity = 1
  Electrons    = 84
  Nalpha       = 42
  Nbeta        = 42

  ==> Algorithm <==

  SCF Algorithm Type is PK.
  DIIS enabled.
  MOM disabled.
  Fractional occupation disabled.
  Guess Type is SAD.
  Energy threshold   = 1.00e-06
  Density threshold  = 1.00e-10
  Integral threshold = 0.00e+00

  ==> Primary Basis <==

  Basis Set: CC-PVDZ
    Blend: CC-PVDZ
    Number of shells: 104
    Number of basis function: 214
    Number of Cartesian functions: 224
    Spherical Harmonics?: true
    Max angular momentum: 2

  ==> Pre-Iterations <==

   -------------------------------------------------------
    Irrep   Nso     Nmo     Nalpha   Nbeta   Ndocc  Nsocc
   -------------------------------------------------------
     A        214     214       0       0       0       0
   -------------------------------------------------------
    Total     214     214      42      42      42       0
   -------------------------------------------------------

  ==> Integral Setup <==

  Using integral reordering PK algorithm.
  Sizing the integral batches needed.
  Building batch lookup table.
   Calculation information:
      Number of atoms:                  24
      Number of AO shells:             104
      Number of primitives:            318
      Number of atomic orbitals:       224
      Number of basis functions:       214

      Integral cutoff                 1.00e-12
      Number of threads:                 1

	Batch   1 pq = [       0,    9405] index = [             0,44231715] size =     44231715
	Batch   2 pq = [    9405,   13301] index = [      44231715,88464951] size =     44233236
	Batch   3 pq = [   13301,   16290] index = [      88464951,132690195] size =     44225244
	Batch   4 pq = [   16290,   18810] index = [     132690195,176917455] size =     44227260
	Batch   5 pq = [   18810,   21030] index = [     176917455,221140965] size =     44223510
	Batch   6 pq = [   21030,   23005] index = [     221140965,264626515] size =     43485550
  Task number: 24
  Buffer size: 11059200
  Buffer per thread: 2
  We computed 14577554 shell quartets total.
  Whereas there are 14908530 unique shell quartets.

  ==> DiskJK: Disk-Based J/K Matrices <==

    J tasked:                  Yes
    K tasked:                  Yes
    wK tasked:                  No
    Memory [MiB]:              375
    Schwarz Cutoff:          1E-12

    OpenMP threads:              1

  Minimum eigenvalue in the overlap matrix is 3.0334043633E-04.
  Using Symmetric Orthogonalization.

  SCF Guess: Superposition of Atomic Densities via on-the-fly atomic UHF.

  ==> Iterations <==

                        Total Energy        Delta E     RMS |[F,P]|

   @RHF iter SAD:  -745.50442869675271   -7.45504e+02   0.00000e+00
   @RHF iter   1:  -746.30506940031819   -8.00641e-01   2.51974e-03 DIIS
   @RHF iter   2:  -746.48781019129251   -1.82741e-01   9.96042e-04 DIIS
   @RHF iter   3:  -746.51308310742911   -2.52729e-02   2.48117e-04 DIIS
   @RHF iter   4:  -746.51563298295844   -2.54988e-03   5.39895e-05 DIIS
   @RHF iter   5:  -746.51572658579539   -9.36028e-05   1.65794e-05 DIIS
   @RHF iter   6:  -746.51573463012551   -8.04433e-06   4.90621e-06 DIIS
   @RHF iter   7:  -746.51573547468183   -8.44556e-07   1.33301e-06 DIIS
   @RHF iter   8:  -746.51573554791116   -7.32293e-08   3.48094e-07 DIIS
   @RHF iter   9:  -746.51573555742925   -9.51809e-09   1.26399e-07 DIIS
   @RHF iter  10:  -746.51573555890047   -1.47122e-09   5.49540e-08 DIIS
   @RHF iter  11:  -746.51573555927644   -3.75962e-10   2.72717e-08 DIIS
   @RHF iter  12:  -746.51573555936261   -8.61746e-11   9.61965e-09 DIIS
   @RHF iter  13:  -746.51573555937512   -1.25056e-11   2.89844e-09 DIIS
   @RHF iter  14:  -746.51573555937637   -1.25056e-12   1.16111e-09 DIIS
   @RHF iter  15:  -746.51573555938171   -5.34328e-12   4.24350e-10 DIIS
   @RHF iter  16:  -746.51573555937807    3.63798e-12   1.82732e-10 DIIS
   @RHF iter  17:  -746.51573555937591    2.16005e-12   6.35675e-11 DIIS
  Energy and wave function converged.

  ==> Post-Iterations <==

    Orbital Energies [Eh]
    ---------------------

    Doubly Occupied:

       1A    -91.927635     2A    -11.247326     3A    -11.244838
       4A    -11.242574     5A    -11.240285     6A    -11.239606
       7A    -11.235336     8A    -11.234445     9A    -11.234055
      10A    -11.233837    11A     -8.931937    12A     -6.614056
      13A     -6.612440    14A     -6.610164    15A     -1.160269
      16A     -1.059362    17A     -1.050519    18A     -1.018313
      19A     -0.944653    20A     -0.937617    21A     -0.831791
      22A     -0.801658    23A     -0.798527    24A     -0.698491
      25A     -0.637418    26A     -0.635280    27A     -0.599719
      28A     -0.592816    29A     -0.588709    30A     -0.584183
      31A     -0.569545    32A     -0.567154    33A     -0.552669
      34A     -0.540368    35A     -0.494761    36A     -0.489416
      37A     -0.487562    38A     -0.484986    39A     -0.425340
      40A     -0.338811    41A     -0.330091    42A     -0.321939

    Virtual:

      43A      0.129285    44A      0.135162    45A      0.160119
      46A      0.186042    47A      0.192448    48A      0.209502
      49A      0.218125    50A      0.233397    51A      0.246488
      52A      0.249025    53A      0.252430    54A      0.261034
      55A      0.266240    56A      0.276392    57A      0.282173
      58A      0.298433    59A      0.305035    60A      0.316894
      61A      0.363742    62A      0.372251    63A      0.448767
      64A      0.458651    65A      0.477617    66A      0.486325
      67A      0.524313    68A      0.555294    69A      0.557675
      70A      0.572723    71A      0.594085    72A      0.609013
      73A      0.628621    74A      0.660364    75A      0.678725
      76A      0.689449    77A      0.696204    78A      0.703707
      79A      0.719434    80A      0.731765    81A      0.734105
      82A      0.739689    83A      0.744730    84A      0.752509
      85A      0.758435    86A      0.769304    87A      0.775825
      88A      0.814108    89A      0.815040    90A      0.829209
      91A      0.848403    92A      0.850327    93A      0.857468
      94A      0.866649    95A      0.869584    96A      0.874760
      97A      0.883689    98A      0.890868    99A      0.895598
     100A      0.908620   101A      0.913177   102A      0.920749
     103A      0.923636   104A      0.931909   105A      0.940675
     106A      0.954340   107A      0.964726   108A      0.985628
     109A      0.991762   110A      0.999491   111A      1.027760
     112A      1.065466   113A      1.118745   114A      1.143598
     115A      1.149829   116A      1.154205   117A      1.187863
     118A      1.209268   119A      1.234064   120A      1.238580
     121A      1.247495   122A      1.254091   123A      1.263596
     124A      1.293488   125A      1.305680   126A      1.312043
     127A      1.320194   128A      1.329237   129A      1.336882
     130A      1.372767   131A      1.403179   132A      1.412340
     133A      1.474876   134A      1.486616   135A      1.507994
     136A      1.524995   137A      1.548661   138A      1.596309
     139A      1.669390   140A      1.678863   141A      1.686381
     142A      1.695851   143A      1.732835   144A      1.747405
     145A      1.757794   146A      1.788373   147A      1.807684
     148A      1.856132   149A      1.879874   150A      1.885294
     151A      1.894848   152A      1.904225   153A      1.905958
     154A      1.914954   155A      1.920778   156A      1.924016
     157A      1.940975   158A      1.942312   159A      1.945940
     160A      1.949252   161A      1.970432   162A      1.982860
     163A      1.988621   164A      2.004964   165A      2.013301
     166A      2.015620   167A      2.045956   168A      2.056934
     169A      2.072402   170A      2.083805   171A      2.087196
     172A      2.111426   173A      2.145959   174A      2.155188
     175A      2.164746   176A      2.174337   177A      2.179233
     178A      2.238737   179A      2.252706   180A      2.266624
     181A      2.279829   182A      2.294360   183A      2.305103
     184A      2.308426   185A      2.318658   186A      2.408482
     187A      2.435678   188A      2.459670   189A      2.472057
     190A      2.475324   191A      2.489218   192A      2.497733
     193A      2.539302   194A      2.619661   195A      2.741013
     196A      2.745716   197A      2.757839   198A      2.763926
     199A      2.777456   200A      2.790350   201A      2.811966
     202A      2.815151   203A      2.822269   204A      2.829751
     205A      2.847950   206A      2.858543   207A      2.878192
     208A      2.999584   209A      3.011553   210A      3.027678
     211A      3.155789   212A      3.205100   213A      3.307134
     214A      3.977540

    Final Occupation by Irrep:
              A
    DOCC [    42 ]

  @RHF Final Energy:  -746.51573555937591

   => Energetics <=

    Nuclear Repulsion Energy =            562.2589043295186002
    One-Electron Energy =               -2136.7682787401063251
    Two-Electron Energy =                 827.9936388512118128
    Total Energy =                       -746.5157355593759121

Computation Completed

Properties will be evaluated at   0.000000,   0.000000,   0.000000 [a0]

Properties computed using the SCF density matrix

  Nuclear Dipole Moment: [e a0]
     X:    -0.0381      Y:    -5.2260      Z:     0.2606

  Electronic Dipole Moment: [e a0]
     X:    -0.4033      Y:     4.6754      Z:    -0.6069

  Dipole Moment: [e a0]
     X:    -0.4414      Y:    -0.5506      Z:    -0.3463     Total:     0.7860

  Dipole Moment: [D]
     X:    -1.1220      Y:    -1.3994      Z:    -0.8801     Total:     1.9979

*** tstop() called on ds3 at Mon Apr 27 23:17:46 2020
Module time:
	user time   =     121.03 seconds =       2.02 minutes
	system time =      45.33 seconds =       0.76 minutes
	total time  =        163 seconds =       2.72 minutes
Total time:
	user time   =     121.03 seconds =       2.02 minutes
	system time =      45.33 seconds =       0.76 minutes
	total time  =        163 seconds =       2.72 minutes
                                     G D M A

                                 by Anthony Stone

                           version 2.2.06, 22 June 2011

               Distributed Multipoles from Gaussian wavefunctions

Starting at 23:17:46 on 27 Apr 2020

Using SCF density matrix from file ./SSI/SSI-224MET-229PHE-1-dimer.test.1925.fchk

                         Distributed Multipole Analysis

Standard DMA

Positions and radii in angstrom
Multipole moments in atomic units, ea_0^k for rank k

C          x =  1.016607  y =  1.294717  z =  0.880913 angstrom
           Maximum rank =  0   Radius =  0.650 angstrom
                   Q00  =  -0.343886

C          x =  3.258607  y = -0.233283  z =  0.793913 angstrom
           Maximum rank =  0   Radius =  0.650 angstrom
                   Q00  =  -0.355721

S          x =  2.700607  y =  1.317717  z =  1.491913 angstrom
           Maximum rank =  0   Radius =  0.650 angstrom
                   Q00  =   0.119479

H          x =  0.513607  y =  0.378717  z =  1.193913 angstrom
           Maximum rank =  0   Radius =  0.325 angstrom
                   Q00  =   0.087367

H          x =  0.497607  y =  2.148717  z =  1.308913 angstrom
           Maximum rank =  0   Radius =  0.325 angstrom
                   Q00  =   0.113290

H          x =  0.983607  y =  1.393717  z = -0.203087 angstrom
           Maximum rank =  0   Radius =  0.325 angstrom
                   Q00  =   0.094106

H          x =  2.851607  y = -1.037283  z =  1.388913 angstrom
           Maximum rank =  0   Radius =  0.325 angstrom
                   Q00  =   0.079305

H          x =  4.335607  y = -0.266283  z =  0.850913 angstrom
           Maximum rank =  0   Radius =  0.325 angstrom
                   Q00  =   0.115875

H          x =  2.922287  y = -0.410867  z = -0.238246 angstrom
           Maximum rank =  0   Radius =  0.325 angstrom
                   Q00  =   0.087580

C          x = -1.148393  y = -2.547283  z =  0.652913 angstrom
           Maximum rank =  0   Radius =  0.650 angstrom
                   Q00  =  -0.202537

C          x = -1.449393  y = -1.362283  z = -0.233087 angstrom
           Maximum rank =  0   Radius =  0.650 angstrom
                   Q00  =  -0.109809

C          x = -2.387393  y = -0.408283  z =  0.147913 angstrom
           Maximum rank =  0   Radius =  0.650 angstrom
                   Q00  =  -0.048152

C          x = -0.779393  y = -1.196283  z = -1.440087 angstrom
           Maximum rank =  0   Radius =  0.650 angstrom
                   Q00  =  -0.010422

C          x = -2.661393  y =  0.682717  z = -0.667087 angstrom
           Maximum rank =  0   Radius =  0.650 angstrom
                   Q00  =  -0.069728

C          x = -1.046393  y = -0.105283  z = -2.259087 angstrom
           Maximum rank =  0   Radius =  0.650 angstrom
                   Q00  =  -0.080750

C          x = -1.988393  y =  0.835717  z = -1.871087 angstrom
           Maximum rank =  0   Radius =  0.650 angstrom
                   Q00  =  -0.086112

H          x = -1.314393  y = -2.255283  z =  1.686913 angstrom
           Maximum rank =  0   Radius =  0.325 angstrom
                   Q00  =   0.098755

H          x = -0.087393  y = -2.773283  z =  0.563913 angstrom
           Maximum rank =  0   Radius =  0.325 angstrom
                   Q00  =   0.095495

H          x = -2.888393  y = -0.499283  z =  1.089913 angstrom
           Maximum rank =  0   Radius =  0.325 angstrom
                   Q00  =   0.056930

H          x = -0.077393  y = -1.943283  z = -1.753087 angstrom
           Maximum rank =  0   Radius =  0.325 angstrom
                   Q00  =   0.055347

H          x = -3.397393  y =  1.413717  z = -0.364087 angstrom
           Maximum rank =  0   Radius =  0.325 angstrom
                   Q00  =   0.065862

H          x = -0.529393  y =  0.002717  z = -3.204087 angstrom
           Maximum rank =  0   Radius =  0.325 angstrom
                   Q00  =   0.065423

H          x = -2.197393  y =  1.686717  z = -2.499087 angstrom
           Maximum rank =  0   Radius =  0.325 angstrom
                   Q00  =   0.062505

H          x = -1.729273  y = -3.450403  z =  0.414272 angstrom
           Maximum rank =  0   Radius =  0.325 angstrom
                   Q00  =   0.109798

Total multipoles referred to origin at
           x =   0.000000,  y =    0.000000,  z =    0.000000 angstrom
                   Q00  =  -0.000000

Finished at 23:17:46 on 27 Apr 2020

  DMA results are available in the Python driver through the
	  variable('DMA DISTRIBUTED MULTIPOLES')
  and
	  variable('DMA TOTAL MULTIPOLES')
  commands.

    Psi4 stopped on: Monday, 27 April 2020 11:17PM
    Psi4 wall time for execution: 0:02:43.37

*** Psi4 exiting successfully. Buy a developer a beer!
