                               Psi4 1.3.2 release

  ==> Input File <==

--------------------------------------------------------------------------
import numpy as np
set {scf_type pk
basis cc-pvdz
d_convergence 10
gdma_switch   0
gdma_limit    0
gdma_origin   [ 0.0,  0.0,  0.0 ]
}
molecule test {
    units Angstrom
    -1 1
    --
    -1 1
    C                2.201907253722639     0.716607341900232     0.099297471498590
    C                2.864907253722639    -0.590392658099767    -0.346702528501410
    C                2.962907253722638     1.984607341900233    -0.172702528501410
    H                1.238907253722639     0.782607341900233    -0.392702528501410
    H                2.029907253722639     0.635607341900232     1.176297471498590
    H                2.735907253722639    -0.685392658099768    -1.415702528501410
    H                2.294907253722638    -1.396392658099768     0.114297471498590
    H                3.981907253722639     1.910607341900233     0.219297471498590
    H                3.002907253722638     2.169607341900233    -1.251702528501410
    H                3.930097253722639    -0.675262658099767    -0.085619528501410
    H                2.406787253722638     2.775847341900232     0.351391471498590
    C               -1.203092746277361    -0.397392658099767     1.076297471498590
    C               -2.394092746277361    -0.919392658099767     1.819297471498590
    C               -1.434092746277361    -0.293392658099767    -0.412702528501410
    O               -1.902092746277361    -1.271392658099767    -1.047702528501410
    O               -1.121092746277361     0.781607341900233    -0.971702528501410
    H               -0.939092746277361     0.580607341900233     1.485297471498590
    H               -0.358092746277361    -1.059392658099767     1.258297471498590
    H               -2.168092746277361    -0.943392658099767     2.884297471498591
    H               -2.569092746277361    -1.948392658099767     1.502297471498590
    H               -3.308762746277361    -0.334492658099767     1.642451471498590

}
e, wfn = energy('scf', return_wfn=True)
gdma(wfn)
dmavals = variable('DMA DISTRIBUTED MULTIPOLES')
charges = np.array(dmavals)
print(charges)
np.save('SSI-015LYS-223GLU-1-dimer.npy', np.array(charges))--------------------------------------------------------------------------

*** tstart() called on ds3
*** at Tue Apr 28 03:36:41 2020

   => Loading Basis Set <=

    Name: CC-PVDZ
    Role: ORBITAL
    Keyword: BASIS
    atoms 1-3, 12-14  entry C          line   138 file /theoryfs2/ds/metcalf/miniconda2/envs/tf2gpu/share/psi4/basis/cc-pvdz.gbs
    atoms 4-11, 17-21 entry H          line    22 file /theoryfs2/ds/metcalf/miniconda2/envs/tf2gpu/share/psi4/basis/cc-pvdz.gbs
    atoms 15-16       entry O          line   198 file /theoryfs2/ds/metcalf/miniconda2/envs/tf2gpu/share/psi4/basis/cc-pvdz.gbs

         ---------------------------------------------------------
                                   SCF
               by Justin Turney, Rob Parrish, Andy Simmonett
                          and Daniel G. A. Smith
                              RHF Reference
                        1 Threads,    500 MiB Core
         ---------------------------------------------------------

  ==> Geometry <==

    Molecular point group: c1
    Full point group: C1

    Geometry (in Angstrom), charge = -1, multiplicity = 1:

       Center              X                  Y                   Z               Mass
    ------------   -----------------  -----------------  -----------------  -----------------
         C            2.201907253723     0.716607341900     0.099297471499    12.000000000000
         C            2.864907253723    -0.590392658100    -0.346702528501    12.000000000000
         C            2.962907253723     1.984607341900    -0.172702528501    12.000000000000
         H            1.238907253723     0.782607341900    -0.392702528501     1.007825032230
         H            2.029907253723     0.635607341900     1.176297471499     1.007825032230
         H            2.735907253723    -0.685392658100    -1.415702528501     1.007825032230
         H            2.294907253723    -1.396392658100     0.114297471499     1.007825032230
         H            3.981907253723     1.910607341900     0.219297471499     1.007825032230
         H            3.002907253723     2.169607341900    -1.251702528501     1.007825032230
         H            3.930097253723    -0.675262658100    -0.085619528501     1.007825032230
         H            2.406787253723     2.775847341900     0.351391471499     1.007825032230
         C           -1.203092746277    -0.397392658100     1.076297471499    12.000000000000
         C           -2.394092746277    -0.919392658100     1.819297471499    12.000000000000
         C           -1.434092746277    -0.293392658100    -0.412702528501    12.000000000000
         O           -1.902092746277    -1.271392658100    -1.047702528501    15.994914619570
         O           -1.121092746277     0.781607341900    -0.971702528501    15.994914619570
         H           -0.939092746277     0.580607341900     1.485297471499     1.007825032230
         H           -0.358092746277    -1.059392658100     1.258297471499     1.007825032230
         H           -2.168092746277    -0.943392658100     2.884297471499     1.007825032230
         H           -2.569092746277    -1.948392658100     1.502297471499     1.007825032230
         H           -3.308762746277    -0.334492658100     1.642451471499     1.007825032230

  Running in c1 symmetry.

  Rotational constants: A =      0.08985  B =      0.02491  C =      0.02390 [cm^-1]
  Rotational constants: A =   2693.76206  B =    746.79931  C =    716.60529 [MHz]
  Nuclear repulsion =  368.066226248005989

  Charge       = -1
  Multiplicity = 1
  Electrons    = 66
  Nalpha       = 33
  Nbeta        = 33

  ==> Algorithm <==

  SCF Algorithm Type is PK.
  DIIS enabled.
  MOM disabled.
  Fractional occupation disabled.
  Guess Type is SAD.
  Energy threshold   = 1.00e-06
  Density threshold  = 1.00e-10
  Integral threshold = 0.00e+00

  ==> Primary Basis <==

  Basis Set: CC-PVDZ
    Blend: CC-PVDZ
    Number of shells: 87
    Number of basis function: 177
    Number of Cartesian functions: 185
    Spherical Harmonics?: true
    Max angular momentum: 2

  ==> Pre-Iterations <==

   -------------------------------------------------------
    Irrep   Nso     Nmo     Nalpha   Nbeta   Ndocc  Nsocc
   -------------------------------------------------------
     A        177     177       0       0       0       0
   -------------------------------------------------------
    Total     177     177      33      33      33       0
   -------------------------------------------------------

  ==> Integral Setup <==

  Using integral reordering PK algorithm.
  Sizing the integral batches needed.
  Building batch lookup table.
   Calculation information:
      Number of atoms:                  21
      Number of AO shells:              87
      Number of primitives:            241
      Number of atomic orbitals:       185
      Number of basis functions:       177

      Integral cutoff                 1.00e-12
      Number of threads:                 1

	Batch   1 pq = [       0,    9405] index = [             0,44231715] size =     44231715
	Batch   2 pq = [    9405,   13301] index = [      44231715,88464951] size =     44233236
	Batch   3 pq = [   13301,   15753] index = [      88464951,124086381] size =     35621430
  Task number: 12
  Buffer size: 11059200
  Buffer per thread: 2
  We computed 6146823 shell quartets total.
  Whereas there are 7328706 unique shell quartets.

  ==> DiskJK: Disk-Based J/K Matrices <==

    J tasked:                  Yes
    K tasked:                  Yes
    wK tasked:                  No
    Memory [MiB]:              375
    Schwarz Cutoff:          1E-12

    OpenMP threads:              1

  Minimum eigenvalue in the overlap matrix is 3.9149635173E-03.
  Using Symmetric Orthogonalization.

  SCF Guess: Superposition of Atomic Densities via on-the-fly atomic UHF.

  ==> Iterations <==

                        Total Energy        Delta E     RMS |[F,P]|

   @RHF iter SAD:  -382.97636502502553   -3.82976e+02   0.00000e+00
   @RHF iter   1:  -384.21975967056886   -1.24339e+00   4.43550e-03 DIIS
   @RHF iter   2:  -384.47394674169129   -2.54187e-01   2.41013e-03 DIIS
   @RHF iter   3:  -384.54394574537957   -6.99990e-02   3.90961e-04 DIIS
   @RHF iter   4:  -384.54731592949173   -3.37018e-03   1.56157e-04 DIIS
   @RHF iter   5:  -384.54779649687129   -4.80567e-04   2.29772e-05 DIIS
   @RHF iter   6:  -384.54781127425156   -1.47774e-05   5.73926e-06 DIIS
   @RHF iter   7:  -384.54781214247532   -8.68224e-07   1.90199e-06 DIIS
   @RHF iter   8:  -384.54781221863925   -7.61639e-08   7.18620e-07 DIIS
   @RHF iter   9:  -384.54781222905990   -1.04206e-08   2.29277e-07 DIIS
   @RHF iter  10:  -384.54781223060922   -1.54932e-09   6.29101e-08 DIIS
   @RHF iter  11:  -384.54781223077401   -1.64789e-10   1.75108e-08 DIIS
   @RHF iter  12:  -384.54781223078908   -1.50635e-11   5.79922e-09 DIIS
   @RHF iter  13:  -384.54781223079164   -2.55795e-12   2.26245e-09 DIIS
   @RHF iter  14:  -384.54781223079141    2.27374e-13   7.82411e-10 DIIS
   @RHF iter  15:  -384.54781223079027    1.13687e-12   2.54538e-10 DIIS
   @RHF iter  16:  -384.54781223079010    1.70530e-13   9.12785e-11 DIIS
  Energy and wave function converged.

  ==> Post-Iterations <==

    Orbital Energies [Eh]
    ---------------------

    Doubly Occupied:

       1A    -20.263797     2A    -20.262011     3A    -11.115547
       4A    -11.107344     5A    -11.100778     6A    -11.087437
       7A    -11.075211     8A    -11.052371     9A     -1.151572
      10A     -1.036729    11A     -0.938396    12A     -0.883768
      13A     -0.816646    14A     -0.705436    15A     -0.672969
      16A     -0.516003    17A     -0.509989    18A     -0.480034
      19A     -0.461546    20A     -0.445614    21A     -0.434753
      22A     -0.425468    23A     -0.395332    24A     -0.370543
      25A     -0.365620    26A     -0.354111    27A     -0.347134
      28A     -0.342949    29A     -0.322711    30A     -0.301250
      31A     -0.185176    32A     -0.174137    33A     -0.162517

    Virtual:

      34A      0.288696    35A      0.320834    36A      0.330995
      37A      0.340729    38A      0.348890    39A      0.377420
      40A      0.382759    41A      0.394042    42A      0.402803
      43A      0.411775    44A      0.416599    45A      0.439106
      46A      0.462779    47A      0.492073    48A      0.499731
      49A      0.547553    50A      0.558742    51A      0.609081
      52A      0.685490    53A      0.689409    54A      0.712539
      55A      0.725847    56A      0.732083    57A      0.745276
      58A      0.747171    59A      0.771858    60A      0.828393
      61A      0.873059    62A      0.887018    63A      0.922848
      64A      0.966159    65A      0.968947    66A      0.982223
      67A      0.998431    68A      0.999908    69A      1.005730
      70A      1.011261    71A      1.017571    72A      1.028403
      73A      1.030001    74A      1.034701    75A      1.050319
      76A      1.054223    77A      1.055451    78A      1.063539
      79A      1.069184    80A      1.091945    81A      1.106693
      82A      1.140720    83A      1.153772    84A      1.175598
      85A      1.233848    86A      1.255209    87A      1.262377
      88A      1.302519    89A      1.305411    90A      1.341819
      91A      1.407497    92A      1.490078    93A      1.497079
      94A      1.528420    95A      1.572987    96A      1.600984
      97A      1.607083    98A      1.609431    99A      1.642379
     100A      1.655707   101A      1.660401   102A      1.673421
     103A      1.705174   104A      1.744202   105A      1.778981
     106A      1.788448   107A      1.804836   108A      1.817698
     109A      1.834945   110A      1.870810   111A      1.946994
     112A      1.966254   113A      1.985080   114A      1.999322
     115A      2.011607   116A      2.029410   117A      2.035999
     118A      2.046768   119A      2.062561   120A      2.071883
     121A      2.096018   122A      2.101903   123A      2.106667
     124A      2.114756   125A      2.130605   126A      2.136999
     127A      2.143851   128A      2.163031   129A      2.179849
     130A      2.193481   131A      2.213954   132A      2.252607
     133A      2.264679   134A      2.289329   135A      2.304420
     136A      2.364411   137A      2.384148   138A      2.391393
     139A      2.408225   140A      2.465933   141A      2.489995
     142A      2.500976   143A      2.516062   144A      2.535007
     145A      2.614431   146A      2.632080   147A      2.650397
     148A      2.663317   149A      2.687131   150A      2.720479
     151A      2.745187   152A      2.758331   153A      2.765894
     154A      2.844710   155A      2.860290   156A      2.876562
     157A      2.908283   158A      2.911702   159A      2.934361
     160A      2.997040   161A      3.034767   162A      3.037611
     163A      3.054531   164A      3.086143   165A      3.103961
     166A      3.131120   167A      3.196929   168A      3.255492
     169A      3.287478   170A      3.302370   171A      3.364747
     172A      3.639094   173A      3.789494   174A      3.821003
     175A      4.057422   176A      4.092105   177A      4.194706

    Final Occupation by Irrep:
              A
    DOCC [    33 ]

  @RHF Final Energy:  -384.54781223079010

   => Energetics <=

    Nuclear Repulsion Energy =            368.0662262480059894
    One-Electron Energy =               -1265.4982811230577227
    Two-Electron Energy =                 512.8842426442616897
    Total Energy =                       -384.5478122307901003

Computation Completed

Properties will be evaluated at   0.000000,   0.000000,   0.000000 [a0]

Properties computed using the SCF density matrix

  Nuclear Dipole Moment: [e a0]
     X:    11.4959      Y:     1.6965      Z:     7.0103

  Electronic Dipole Moment: [e a0]
     X:    -9.1150      Y:    -1.3222      Z:    -5.1243

  Dipole Moment: [e a0]
     X:     2.3809      Y:     0.3743      Z:     1.8859     Total:     3.0603

  Dipole Moment: [D]
     X:     6.0516      Y:     0.9513      Z:     4.7935     Total:     7.7785

*** tstop() called on ds3 at Tue Apr 28 03:37:41 2020
Module time:
	user time   =      42.41 seconds =       0.71 minutes
	system time =      19.42 seconds =       0.32 minutes
	total time  =         60 seconds =       1.00 minutes
Total time:
	user time   =      42.41 seconds =       0.71 minutes
	system time =      19.42 seconds =       0.32 minutes
	total time  =         60 seconds =       1.00 minutes
                                     G D M A

                                 by Anthony Stone

                           version 2.2.06, 22 June 2011

               Distributed Multipoles from Gaussian wavefunctions

Starting at 3:37:41 on 28 Apr 2020

Using SCF density matrix from file ./SSI/SSI-015LYS-223GLU-1-dimer.test.20222.fchk

                         Distributed Multipole Analysis

Standard DMA

Positions and radii in angstrom
Multipole moments in atomic units, ea_0^k for rank k

C          x =  2.201907  y =  0.716607  z =  0.099297 angstrom
           Maximum rank =  0   Radius =  0.650 angstrom
                   Q00  =  -0.014946

C          x =  2.864907  y = -0.590393  z = -0.346703 angstrom
           Maximum rank =  0   Radius =  0.650 angstrom
                   Q00  =  -0.274244

C          x =  2.962907  y =  1.984607  z = -0.172703 angstrom
           Maximum rank =  0   Radius =  0.650 angstrom
                   Q00  =  -0.235914

H          x =  1.238907  y =  0.782607  z = -0.392703 angstrom
           Maximum rank =  0   Radius =  0.325 angstrom
                   Q00  =   0.083947

H          x =  2.029907  y =  0.635607  z =  1.176297 angstrom
           Maximum rank =  0   Radius =  0.325 angstrom
                   Q00  =   0.015658

H          x =  2.735907  y = -0.685393  z = -1.415703 angstrom
           Maximum rank =  0   Radius =  0.325 angstrom
                   Q00  =   0.082288

H          x =  2.294907  y = -1.396393  z =  0.114297 angstrom
           Maximum rank =  0   Radius =  0.325 angstrom
                   Q00  =   0.092086

H          x =  3.981907  y =  1.910607  z =  0.219297 angstrom
           Maximum rank =  0   Radius =  0.325 angstrom
                   Q00  =   0.039728

H          x =  3.002907  y =  2.169607  z = -1.251703 angstrom
           Maximum rank =  0   Radius =  0.325 angstrom
                   Q00  =   0.072447

H          x =  3.930097  y = -0.675263  z = -0.085620 angstrom
           Maximum rank =  0   Radius =  0.325 angstrom
                   Q00  =   0.039623

H          x =  2.406787  y =  2.775847  z =  0.351391 angstrom
           Maximum rank =  0   Radius =  0.325 angstrom
                   Q00  =   0.079513

C          x = -1.203093  y = -0.397393  z =  1.076297 angstrom
           Maximum rank =  0   Radius =  0.650 angstrom
                   Q00  =  -0.132608

C          x = -2.394093  y = -0.919393  z =  1.819297 angstrom
           Maximum rank =  0   Radius =  0.650 angstrom
                   Q00  =  -0.188866

C          x = -1.434093  y = -0.293393  z = -0.412703 angstrom
           Maximum rank =  0   Radius =  0.650 angstrom
                   Q00  =   0.988482

O          x = -1.902093  y = -1.271393  z = -1.047703 angstrom
           Maximum rank =  0   Radius =  0.650 angstrom
                   Q00  =  -0.947608

O          x = -1.121093  y =  0.781607  z = -0.971703 angstrom
           Maximum rank =  0   Radius =  0.650 angstrom
                   Q00  =  -0.927197

H          x = -0.939093  y =  0.580607  z =  1.485297 angstrom
           Maximum rank =  0   Radius =  0.325 angstrom
                   Q00  =   0.020790

H          x = -0.358093  y = -1.059393  z =  1.258297 angstrom
           Maximum rank =  0   Radius =  0.325 angstrom
                   Q00  =   0.042799

H          x = -2.168093  y = -0.943393  z =  2.884297 angstrom
           Maximum rank =  0   Radius =  0.325 angstrom
                   Q00  =   0.018245

H          x = -2.569093  y = -1.948393  z =  1.502297 angstrom
           Maximum rank =  0   Radius =  0.325 angstrom
                   Q00  =   0.078677

H          x = -3.308763  y = -0.334493  z =  1.642451 angstrom
           Maximum rank =  0   Radius =  0.325 angstrom
                   Q00  =   0.067100

Total multipoles referred to origin at
           x =   0.000000,  y =    0.000000,  z =    0.000000 angstrom
                   Q00  =  -1.000000

Finished at 3:37:41 on 28 Apr 2020

  DMA results are available in the Python driver through the
	  variable('DMA DISTRIBUTED MULTIPOLES')
  and
	  variable('DMA TOTAL MULTIPOLES')
  commands.

    Psi4 stopped on: Tuesday, 28 April 2020 03:37AM
    Psi4 wall time for execution: 0:01:00.07

*** Psi4 exiting successfully. Buy a developer a beer!
