                               Psi4 1.3.2 release

  ==> Input File <==

--------------------------------------------------------------------------
import numpy as np
set {scf_type pk
basis cc-pvdz
d_convergence 10
gdma_switch   0
gdma_limit    0
gdma_origin   [ 0.0,  0.0,  0.0 ]
}
molecule test {
    units Angstrom
    0 1
    --
    0 1
    C                4.093058578273229     0.221051510321644    -0.751716545758352
    C               -0.190941421726771     0.185051510322644    -1.009716545758352
    C                0.567058578273229     0.615051510321644    -2.112716545758352
    C                0.452058578273229    -0.224948489678356     0.154283454241648
    C                1.968058578273229     0.623051510321644    -2.030716545758352
    C                1.853058578273229    -0.217948489678356     0.217283454241648
    C                2.608058578273230     0.202051510321644    -0.862716545758352
    H               -1.271941421726771     0.169051510321644    -1.057716545758352
    H                0.069058578273229     0.938051510321644    -3.019716545758352
    H               -0.125941421726771    -0.549948489677356     1.007283454241648
    H                2.561058578273229     0.957051510321644    -2.870716545758352
    H                2.363058578273229    -0.537948489678356     1.114283454241648
    H                4.486058578273230     0.031051510321644    -1.745716545758352
    H                4.377058578273230    -0.605948489678356    -0.096716545758352
    H                4.484938578273230     1.177851510321644    -0.376286545758352
    C               -3.048941421726771    -0.181948489678356     1.567283454241648
    C               -4.436941421726771    -0.585948489678356     1.048283454241648
    C               -2.917941421726771    -0.474948489678356     3.069283454241648
    H               -2.290941421726771    -0.739948489678356     1.022283454241648
    H               -2.900941421726771     0.884051510321644     1.393283454241648
    H               -5.189941421726770    -0.191948489678356     1.733283454241648
    H               -3.165941421726771    -1.520948489678356     3.257283454241648
    H               -1.887941421726771    -0.293948489678356     3.372283454241648
    H               -4.526460421726770    -1.681238489678356     1.000143454241648
    H               -4.664445421726771    -0.118108489678356     0.079073454241648
    H               -3.587570421726771     0.171651510321644     3.655393454241648

}
e, wfn = energy('scf', return_wfn=True)
gdma(wfn)
dmavals = variable('DMA DISTRIBUTED MULTIPOLES')
charges = np.array(dmavals)
print(charges)
np.save('SSI-236PHE-282GLU-1-dimer.npy', np.array(charges))--------------------------------------------------------------------------

*** tstart() called on ds3
*** at Mon Apr 27 16:53:12 2020

   => Loading Basis Set <=

    Name: CC-PVDZ
    Role: ORBITAL
    Keyword: BASIS
    atoms 1-7, 16-18  entry C          line   138 file /theoryfs2/ds/metcalf/miniconda2/envs/tf2gpu/share/psi4/basis/cc-pvdz.gbs
    atoms 8-15, 19-26 entry H          line    22 file /theoryfs2/ds/metcalf/miniconda2/envs/tf2gpu/share/psi4/basis/cc-pvdz.gbs

         ---------------------------------------------------------
                                   SCF
               by Justin Turney, Rob Parrish, Andy Simmonett
                          and Daniel G. A. Smith
                              RHF Reference
                        1 Threads,    500 MiB Core
         ---------------------------------------------------------

  ==> Geometry <==

    Molecular point group: c1
    Full point group: C1

    Geometry (in Angstrom), charge = 0, multiplicity = 1:

       Center              X                  Y                   Z               Mass
    ------------   -----------------  -----------------  -----------------  -----------------
         C            4.093058578273     0.221051510322    -0.751716545758    12.000000000000
         C           -0.190941421727     0.185051510323    -1.009716545758    12.000000000000
         C            0.567058578273     0.615051510322    -2.112716545758    12.000000000000
         C            0.452058578273    -0.224948489678     0.154283454242    12.000000000000
         C            1.968058578273     0.623051510322    -2.030716545758    12.000000000000
         C            1.853058578273    -0.217948489678     0.217283454242    12.000000000000
         C            2.608058578273     0.202051510322    -0.862716545758    12.000000000000
         H           -1.271941421727     0.169051510322    -1.057716545758     1.007825032230
         H            0.069058578273     0.938051510322    -3.019716545758     1.007825032230
         H           -0.125941421727    -0.549948489677     1.007283454242     1.007825032230
         H            2.561058578273     0.957051510322    -2.870716545758     1.007825032230
         H            2.363058578273    -0.537948489678     1.114283454242     1.007825032230
         H            4.486058578273     0.031051510322    -1.745716545758     1.007825032230
         H            4.377058578273    -0.605948489678    -0.096716545758     1.007825032230
         H            4.484938578273     1.177851510322    -0.376286545758     1.007825032230
         C           -3.048941421727    -0.181948489678     1.567283454242    12.000000000000
         C           -4.436941421727    -0.585948489678     1.048283454242    12.000000000000
         C           -2.917941421727    -0.474948489678     3.069283454242    12.000000000000
         H           -2.290941421727    -0.739948489678     1.022283454242     1.007825032230
         H           -2.900941421727     0.884051510322     1.393283454242     1.007825032230
         H           -5.189941421727    -0.191948489678     1.733283454242     1.007825032230
         H           -3.165941421727    -1.520948489678     3.257283454242     1.007825032230
         H           -1.887941421727    -0.293948489678     3.372283454242     1.007825032230
         H           -4.526460421727    -1.681238489678     1.000143454242     1.007825032230
         H           -4.664445421727    -0.118108489678     0.079073454242     1.007825032230
         H           -3.587570421727     0.171651510322     3.655393454242     1.007825032230

  Running in c1 symmetry.

  Rotational constants: A =      0.09399  B =      0.01374  C =      0.01218 [cm^-1]
  Rotational constants: A =   2817.84784  B =    411.92134  C =    365.06315 [MHz]
  Nuclear repulsion =  471.389485367849318

  Charge       = 0
  Multiplicity = 1
  Electrons    = 76
  Nalpha       = 38
  Nbeta        = 38

  ==> Algorithm <==

  SCF Algorithm Type is PK.
  DIIS enabled.
  MOM disabled.
  Fractional occupation disabled.
  Guess Type is SAD.
  Energy threshold   = 1.00e-06
  Density threshold  = 1.00e-10
  Integral threshold = 0.00e+00

  ==> Primary Basis <==

  Basis Set: CC-PVDZ
    Blend: CC-PVDZ
    Number of shells: 108
    Number of basis function: 220
    Number of Cartesian functions: 230
    Spherical Harmonics?: true
    Max angular momentum: 2

  ==> Pre-Iterations <==

   -------------------------------------------------------
    Irrep   Nso     Nmo     Nalpha   Nbeta   Ndocc  Nsocc
   -------------------------------------------------------
     A        220     220       0       0       0       0
   -------------------------------------------------------
    Total     220     220      38      38      38       0
   -------------------------------------------------------

  ==> Integral Setup <==

  Using integral reordering PK algorithm.
  Sizing the integral batches needed.
  Building batch lookup table.
   Calculation information:
      Number of atoms:                  26
      Number of AO shells:             108
      Number of primitives:            300
      Number of atomic orbitals:       230
      Number of basis functions:       220

      Integral cutoff                 1.00e-12
      Number of threads:                 1

	Batch   1 pq = [       0,    9405] index = [             0,44231715] size =     44231715
	Batch   2 pq = [    9405,   13301] index = [      44231715,88464951] size =     44233236
	Batch   3 pq = [   13301,   16290] index = [      88464951,132690195] size =     44225244
	Batch   4 pq = [   16290,   18810] index = [     132690195,176917455] size =     44227260
	Batch   5 pq = [   18810,   21030] index = [     176917455,221140965] size =     44223510
	Batch   6 pq = [   21030,   23037] index = [     221140965,265363203] size =     44222238
	Batch   7 pq = [   23037,   24310] index = [     265363203,295500205] size =     30137002
  Task number: 27
  Buffer size: 11059200
  Buffer per thread: 2
  We computed 12823139 shell quartets total.
  Whereas there are 17325441 unique shell quartets.

  ==> DiskJK: Disk-Based J/K Matrices <==

    J tasked:                  Yes
    K tasked:                  Yes
    wK tasked:                  No
    Memory [MiB]:              375
    Schwarz Cutoff:          1E-12

    OpenMP threads:              1

  Minimum eigenvalue in the overlap matrix is 3.1179792086E-04.
  Using Symmetric Orthogonalization.

  SCF Guess: Superposition of Atomic Densities via on-the-fly atomic UHF.

  ==> Iterations <==

                        Total Energy        Delta E     RMS |[F,P]|

   @RHF iter SAD:  -386.86296827677609   -3.86863e+02   0.00000e+00
   @RHF iter   1:  -387.77068020887532   -9.07712e-01   2.73886e-03 DIIS
   @RHF iter   2:  -387.98878577557531   -2.18106e-01   1.14678e-03 DIIS
   @RHF iter   3:  -388.02348938526171   -3.47036e-02   2.52858e-04 DIIS
   @RHF iter   4:  -388.02638518518017   -2.89580e-03   6.00148e-05 DIIS
   @RHF iter   5:  -388.02649623392949   -1.11049e-04   1.92788e-05 DIIS
   @RHF iter   6:  -388.02650780482628   -1.15709e-05   5.06929e-06 DIIS
   @RHF iter   7:  -388.02650876029259   -9.55466e-07   1.12941e-06 DIIS
   @RHF iter   8:  -388.02650882488922   -6.45966e-08   3.24489e-07 DIIS
   @RHF iter   9:  -388.02650883549029   -1.06011e-08   1.39969e-07 DIIS
   @RHF iter  10:  -388.02650883822719   -2.73690e-09   7.33655e-08 DIIS
   @RHF iter  11:  -388.02650883910144   -8.74252e-10   2.59674e-08 DIIS
   @RHF iter  12:  -388.02650883921558   -1.14142e-10   1.04495e-08 DIIS
   @RHF iter  13:  -388.02650883922149   -5.91172e-12   3.85011e-09 DIIS
   @RHF iter  14:  -388.02650883922382   -2.33058e-12   1.00190e-09 DIIS
   @RHF iter  15:  -388.02650883922496   -1.13687e-12   2.86768e-10 DIIS
   @RHF iter  16:  -388.02650883922547   -5.11591e-13   9.76927e-11 DIIS
  Energy and wave function converged.

  ==> Post-Iterations <==

    Orbital Energies [Eh]
    ---------------------

    Doubly Occupied:

       1A    -11.238797     2A    -11.236599     3A    -11.235607
       4A    -11.232191     5A    -11.231670     6A    -11.228447
       7A    -11.227147     8A    -11.222058     9A    -11.218631
      10A    -11.218389    11A     -1.150361    12A     -1.053823
      13A     -1.046075    14A     -1.007724    15A     -0.929911
      16A     -0.923274    17A     -0.826393    18A     -0.799506
      19A     -0.791408    20A     -0.688531    21A     -0.633176
      22A     -0.630873    23A     -0.626550    24A     -0.595876
      25A     -0.580841    26A     -0.579966    27A     -0.560678
      28A     -0.546151    29A     -0.535255    30A     -0.534338
      31A     -0.485478    32A     -0.484171    33A     -0.480339
      34A     -0.473139    35A     -0.471138    36A     -0.467413
      37A     -0.329311    38A     -0.321071

    Virtual:

      39A      0.133267    40A      0.141938    41A      0.172150
      42A      0.190684    43A      0.201975    44A      0.210715
      45A      0.222710    46A      0.233452    47A      0.242740
      48A      0.253522    49A      0.264323    50A      0.268530
      51A      0.275613    52A      0.285594    53A      0.289132
      54A      0.302154    55A      0.320855    56A      0.346731
      57A      0.365629    58A      0.376990    59A      0.385061
      60A      0.416462    61A      0.450027    62A      0.464870
      63A      0.482529    64A      0.491414    65A      0.564264
      66A      0.580209    67A      0.593658    68A      0.605901
      69A      0.618155    70A      0.634642    71A      0.644827
      72A      0.658306    73A      0.692917    74A      0.697632
      75A      0.710933    76A      0.727468    77A      0.741683
      78A      0.744458    79A      0.747571    80A      0.756256
      81A      0.769689    82A      0.776535    83A      0.784584
      84A      0.799170    85A      0.818318    86A      0.836663
      87A      0.849430    88A      0.863462    89A      0.867057
      90A      0.875649    91A      0.880252    92A      0.890752
      93A      0.893665    94A      0.895431    95A      0.902106
      96A      0.904879    97A      0.910085    98A      0.922906
      99A      0.924462   100A      0.929015   101A      0.938673
     102A      0.943983   103A      0.951244   104A      0.979669
     105A      0.991846   106A      1.016117   107A      1.034245
     108A      1.060038   109A      1.106899   110A      1.117472
     111A      1.140844   112A      1.149872   113A      1.155818
     114A      1.176462   115A      1.205291   116A      1.216773
     117A      1.242747   118A      1.248800   119A      1.253156
     120A      1.279164   121A      1.304074   122A      1.309877
     123A      1.321209   124A      1.330530   125A      1.395894
     126A      1.411321   127A      1.462520   128A      1.475293
     129A      1.516171   130A      1.524022   131A      1.554941
     132A      1.567473   133A      1.615103   134A      1.636503
     135A      1.672067   136A      1.679232   137A      1.686573
     138A      1.700688   139A      1.719065   140A      1.732163
     141A      1.745907   142A      1.755694   143A      1.793596
     144A      1.805856   145A      1.850050   146A      1.864384
     147A      1.871333   148A      1.880053   149A      1.888119
     150A      1.896592   151A      1.905396   152A      1.911056
     153A      1.917171   154A      1.918576   155A      1.925068
     156A      1.939171   157A      1.944750   158A      1.953057
     159A      1.964509   160A      1.974090   161A      1.983012
     162A      1.984196   163A      1.997987   164A      2.000041
     165A      2.008083   166A      2.016633   167A      2.036910
     168A      2.042978   169A      2.067975   170A      2.069762
     171A      2.107178   172A      2.142390   173A      2.145113
     174A      2.152422   175A      2.155598   176A      2.176399
     177A      2.186771   178A      2.212059   179A      2.261646
     180A      2.272542   181A      2.277709   182A      2.281836
     183A      2.302318   184A      2.308493   185A      2.318839
     186A      2.320491   187A      2.337555   188A      2.354409
     189A      2.472213   190A      2.484537   191A      2.488325
     192A      2.501614   193A      2.529372   194A      2.547767
     195A      2.566972   196A      2.605525   197A      2.624263
     198A      2.644714   199A      2.740444   200A      2.751736
     201A      2.762109   202A      2.766676   203A      2.776886
     204A      2.780551   205A      2.793567   206A      2.813277
     207A      2.828916   208A      2.845464   209A      2.882028
     210A      2.894760   211A      2.956795   212A      2.965883
     213A      2.974986   214A      2.996763   215A      3.023359
     216A      3.065751   217A      3.143560   218A      3.194430
     219A      3.296969   220A      3.956866

    Final Occupation by Irrep:
              A
    DOCC [    38 ]

  @RHF Final Energy:  -388.02650883922547

   => Energetics <=

    Nuclear Repulsion Energy =            471.3894853678493178
    One-Electron Energy =               -1457.1473768945984375
    Two-Electron Energy =                 597.7313826875235918
    Total Energy =                       -388.0265088392254711

Computation Completed

Properties will be evaluated at   0.000000,   0.000000,   0.000000 [a0]

Properties computed using the SCF density matrix

  Nuclear Dipole Moment: [e a0]
     X:   -10.5661      Y:    -1.7917      Z:     7.9382

  Electronic Dipole Moment: [e a0]
     X:    10.6958      Y:     1.8276      Z:    -7.9313

  Dipole Moment: [e a0]
     X:     0.1297      Y:     0.0359      Z:     0.0069     Total:     0.1347

  Dipole Moment: [D]
     X:     0.3297      Y:     0.0911      Z:     0.0175     Total:     0.3425

*** tstop() called on ds3 at Mon Apr 27 16:55:57 2020
Module time:
	user time   =      91.84 seconds =       1.53 minutes
	system time =      40.13 seconds =       0.67 minutes
	total time  =        165 seconds =       2.75 minutes
Total time:
	user time   =      91.84 seconds =       1.53 minutes
	system time =      40.13 seconds =       0.67 minutes
	total time  =        165 seconds =       2.75 minutes
                                     G D M A

                                 by Anthony Stone

                           version 2.2.06, 22 June 2011

               Distributed Multipoles from Gaussian wavefunctions

Starting at 16:55:57 on 27 Apr 2020

Using SCF density matrix from file ./SSI/SSI-236PHE-282GLU-1-dimer.test.28420.fchk

                         Distributed Multipole Analysis

Standard DMA

Positions and radii in angstrom
Multipole moments in atomic units, ea_0^k for rank k

C          x =  4.093059  y =  0.221052  z = -0.751717 angstrom
           Maximum rank =  0   Radius =  0.650 angstrom
                   Q00  =  -0.189907

C          x = -0.190941  y =  0.185052  z = -1.009717 angstrom
           Maximum rank =  0   Radius =  0.650 angstrom
                   Q00  =  -0.092098

C          x =  0.567059  y =  0.615052  z = -2.112717 angstrom
           Maximum rank =  0   Radius =  0.650 angstrom
                   Q00  =  -0.077611

C          x =  0.452059  y = -0.224948  z =  0.154283 angstrom
           Maximum rank =  0   Radius =  0.650 angstrom
                   Q00  =  -0.079084

C          x =  1.968059  y =  0.623052  z = -2.030717 angstrom
           Maximum rank =  0   Radius =  0.650 angstrom
                   Q00  =  -0.058607

C          x =  1.853059  y = -0.217948  z =  0.217283 angstrom
           Maximum rank =  0   Radius =  0.650 angstrom
                   Q00  =  -0.005037

C          x =  2.608059  y =  0.202052  z = -0.862717 angstrom
           Maximum rank =  0   Radius =  0.650 angstrom
                   Q00  =  -0.100953

H          x = -1.271941  y =  0.169052  z = -1.057717 angstrom
           Maximum rank =  0   Radius =  0.325 angstrom
                   Q00  =   0.063468

H          x =  0.069059  y =  0.938052  z = -3.019717 angstrom
           Maximum rank =  0   Radius =  0.325 angstrom
                   Q00  =   0.067842

H          x = -0.125941  y = -0.549948  z =  1.007283 angstrom
           Maximum rank =  0   Radius =  0.325 angstrom
                   Q00  =   0.065073

H          x =  2.561059  y =  0.957052  z = -2.870717 angstrom
           Maximum rank =  0   Radius =  0.325 angstrom
                   Q00  =   0.058297

H          x =  2.363059  y = -0.537948  z =  1.114283 angstrom
           Maximum rank =  0   Radius =  0.325 angstrom
                   Q00  =   0.054928

H          x =  4.486059  y =  0.031052  z = -1.745717 angstrom
           Maximum rank =  0   Radius =  0.325 angstrom
                   Q00  =   0.095763

H          x =  4.377059  y = -0.605948  z = -0.096717 angstrom
           Maximum rank =  0   Radius =  0.325 angstrom
                   Q00  =   0.095185

H          x =  4.484939  y =  1.177852  z = -0.376287 angstrom
           Maximum rank =  0   Radius =  0.325 angstrom
                   Q00  =   0.105396

C          x = -3.048941  y = -0.181948  z =  1.567283 angstrom
           Maximum rank =  0   Radius =  0.650 angstrom
                   Q00  =  -0.085661

C          x = -4.436941  y = -0.585948  z =  1.048283 angstrom
           Maximum rank =  0   Radius =  0.650 angstrom
                   Q00  =  -0.239146

C          x = -2.917941  y = -0.474948  z =  3.069283 angstrom
           Maximum rank =  0   Radius =  0.650 angstrom
                   Q00  =  -0.249824

H          x = -2.290941  y = -0.739948  z =  1.022283 angstrom
           Maximum rank =  0   Radius =  0.325 angstrom
                   Q00  =   0.042802

H          x = -2.900941  y =  0.884052  z =  1.393283 angstrom
           Maximum rank =  0   Radius =  0.325 angstrom
                   Q00  =   0.052705

H          x = -5.189941  y = -0.191948  z =  1.733283 angstrom
           Maximum rank =  0   Radius =  0.325 angstrom
                   Q00  =   0.073083

H          x = -3.165941  y = -1.520948  z =  3.257283 angstrom
           Maximum rank =  0   Radius =  0.325 angstrom
                   Q00  =   0.076852

H          x = -1.887941  y = -0.293948  z =  3.372283 angstrom
           Maximum rank =  0   Radius =  0.325 angstrom
                   Q00  =   0.082019

H          x = -4.526460  y = -1.681238  z =  1.000143 angstrom
           Maximum rank =  0   Radius =  0.325 angstrom
                   Q00  =   0.080417

H          x = -4.664445  y = -0.118108  z =  0.079073 angstrom
           Maximum rank =  0   Radius =  0.325 angstrom
                   Q00  =   0.082571

H          x = -3.587570  y =  0.171652  z =  3.655393 angstrom
           Maximum rank =  0   Radius =  0.325 angstrom
                   Q00  =   0.081529

Total multipoles referred to origin at
           x =   0.000000,  y =    0.000000,  z =    0.000000 angstrom
                   Q00  =  -0.000000

Finished at 16:55:57 on 27 Apr 2020

  DMA results are available in the Python driver through the
	  variable('DMA DISTRIBUTED MULTIPOLES')
  and
	  variable('DMA TOTAL MULTIPOLES')
  commands.

    Psi4 stopped on: Monday, 27 April 2020 04:55PM
    Psi4 wall time for execution: 0:02:45.21

*** Psi4 exiting successfully. Buy a developer a beer!
