                               Psi4 1.3.2 release

  ==> Input File <==

--------------------------------------------------------------------------
import numpy as np
set {scf_type pk
basis cc-pvdz
d_convergence 10
gdma_switch   0
gdma_limit    0
gdma_origin   [ 0.0,  0.0,  0.0 ]
}
molecule test {
    units Angstrom
    0 1
    --
    0 1
    C                2.145952139669607     0.107572307363675     1.900725225422596
    C                3.225952139669607    -0.664427692636325     1.155725225422596
    H                2.502952139669607     0.445572307363675     2.870725225422596
    H                1.901952139669607     0.994572307363675     1.328725225422597
    H                1.255952139669607    -0.506427692636325     2.039725225422596
    H                3.991952139669607     0.033572307363675     0.820725225422597
    H                3.693467139669607    -1.404959692636325     1.821335225422597
    H                2.807321139669607    -1.168802692636325     0.272345225422596
    C               -0.710047860330393    -1.774427692636325    -2.084274774577403
    C               -1.007047860330393     1.497572307363675     0.705725225422597
    C               -1.925047860330393     0.455572307363675     0.748725225422596
    C                0.008952139669607     1.485572307363675    -0.242274774577404
    C               -1.827047860330393    -0.596427692636325    -0.163274774577404
    C                0.108952139669607     0.425572307363675    -1.147274774577403
    C               -0.808047860330393    -0.624427692636325    -1.110274774577404
    H               -1.086047860330393     2.318572307363675     1.406725225422596
    H               -2.720047860330393     0.463572307363675     1.483725225422597
    H                0.713952139669607     2.304572307363675    -0.289274774577404
    H               -2.549047860330393    -1.400427692636325    -0.123274774577404
    H                0.888952139669607     0.440572307363675    -1.895274774577403
    H               -1.214047860330393    -2.643427692636325    -1.656274774577404
    H                0.339952139669607    -2.032427692636325    -2.195274774577404
    H               -1.151458860330393    -1.561258692636325    -3.069014774577404

}
e, wfn = energy('scf', return_wfn=True)
gdma(wfn)
dmavals = variable('DMA DISTRIBUTED MULTIPOLES')
charges = np.array(dmavals)
print(charges)
np.save('SSI-036LEU-046PHE-1-dimer.npy', np.array(charges))--------------------------------------------------------------------------

*** tstart() called on ds3
*** at Mon Apr 27 06:58:29 2020

   => Loading Basis Set <=

    Name: CC-PVDZ
    Role: ORBITAL
    Keyword: BASIS
    atoms 1-2, 9-15  entry C          line   138 file /theoryfs2/ds/metcalf/miniconda2/envs/tf2gpu/share/psi4/basis/cc-pvdz.gbs
    atoms 3-8, 16-23 entry H          line    22 file /theoryfs2/ds/metcalf/miniconda2/envs/tf2gpu/share/psi4/basis/cc-pvdz.gbs

         ---------------------------------------------------------
                                   SCF
               by Justin Turney, Rob Parrish, Andy Simmonett
                          and Daniel G. A. Smith
                              RHF Reference
                        1 Threads,    500 MiB Core
         ---------------------------------------------------------

  ==> Geometry <==

    Molecular point group: c1
    Full point group: C1

    Geometry (in Angstrom), charge = 0, multiplicity = 1:

       Center              X                  Y                   Z               Mass
    ------------   -----------------  -----------------  -----------------  -----------------
         C            2.145952139670     0.107572307364     1.900725225423    12.000000000000
         C            3.225952139670    -0.664427692636     1.155725225423    12.000000000000
         H            2.502952139670     0.445572307364     2.870725225423     1.007825032230
         H            1.901952139670     0.994572307364     1.328725225423     1.007825032230
         H            1.255952139670    -0.506427692636     2.039725225423     1.007825032230
         H            3.991952139670     0.033572307364     0.820725225423     1.007825032230
         H            3.693467139670    -1.404959692636     1.821335225423     1.007825032230
         H            2.807321139670    -1.168802692636     0.272345225423     1.007825032230
         C           -0.710047860330    -1.774427692636    -2.084274774577    12.000000000000
         C           -1.007047860330     1.497572307364     0.705725225423    12.000000000000
         C           -1.925047860330     0.455572307364     0.748725225423    12.000000000000
         C            0.008952139670     1.485572307364    -0.242274774577    12.000000000000
         C           -1.827047860330    -0.596427692636    -0.163274774577    12.000000000000
         C            0.108952139670     0.425572307364    -1.147274774577    12.000000000000
         C           -0.808047860330    -0.624427692636    -1.110274774577    12.000000000000
         H           -1.086047860330     2.318572307364     1.406725225423     1.007825032230
         H           -2.720047860330     0.463572307364     1.483725225423     1.007825032230
         H            0.713952139670     2.304572307364    -0.289274774577     1.007825032230
         H           -2.549047860330    -1.400427692636    -0.123274774577     1.007825032230
         H            0.888952139670     0.440572307364    -1.895274774577     1.007825032230
         H           -1.214047860330    -2.643427692636    -1.656274774577     1.007825032230
         H            0.339952139670    -2.032427692636    -2.195274774577     1.007825032230
         H           -1.151458860330    -1.561258692636    -3.069014774577     1.007825032230

  Running in c1 symmetry.

  Rotational constants: A =      0.06100  B =      0.03411  C =      0.02672 [cm^-1]
  Rotational constants: A =   1828.68938  B =   1022.60019  C =    801.05670 [MHz]
  Nuclear repulsion =  419.499385453846173

  Charge       = 0
  Multiplicity = 1
  Electrons    = 68
  Nalpha       = 34
  Nbeta        = 34

  ==> Algorithm <==

  SCF Algorithm Type is PK.
  DIIS enabled.
  MOM disabled.
  Fractional occupation disabled.
  Guess Type is SAD.
  Energy threshold   = 1.00e-06
  Density threshold  = 1.00e-10
  Integral threshold = 0.00e+00

  ==> Primary Basis <==

  Basis Set: CC-PVDZ
    Blend: CC-PVDZ
    Number of shells: 96
    Number of basis function: 196
    Number of Cartesian functions: 205
    Spherical Harmonics?: true
    Max angular momentum: 2

  ==> Pre-Iterations <==

   -------------------------------------------------------
    Irrep   Nso     Nmo     Nalpha   Nbeta   Ndocc  Nsocc
   -------------------------------------------------------
     A        196     196       0       0       0       0
   -------------------------------------------------------
    Total     196     196      34      34      34       0
   -------------------------------------------------------

  ==> Integral Setup <==

  Using integral reordering PK algorithm.
  Sizing the integral batches needed.
  Building batch lookup table.
   Calculation information:
      Number of atoms:                  23
      Number of AO shells:              96
      Number of primitives:            268
      Number of atomic orbitals:       205
      Number of basis functions:       196

      Integral cutoff                 1.00e-12
      Number of threads:                 1

	Batch   1 pq = [       0,    9405] index = [             0,44231715] size =     44231715
	Batch   2 pq = [    9405,   13301] index = [      44231715,88464951] size =     44233236
	Batch   3 pq = [   13301,   16290] index = [      88464951,132690195] size =     44225244
	Batch   4 pq = [   16290,   18810] index = [     132690195,176917455] size =     44227260
	Batch   5 pq = [   18810,   19306] index = [     176917455,186370471] size =      9453016
  Task number: 17
  Buffer size: 11059200
  Buffer per thread: 2
  We computed 10522967 shell quartets total.
  Whereas there are 10841496 unique shell quartets.

  ==> DiskJK: Disk-Based J/K Matrices <==

    J tasked:                  Yes
    K tasked:                  Yes
    wK tasked:                  No
    Memory [MiB]:              375
    Schwarz Cutoff:          1E-12

    OpenMP threads:              1

  Minimum eigenvalue in the overlap matrix is 3.0978315288E-04.
  Using Symmetric Orthogonalization.

  SCF Guess: Superposition of Atomic Densities via on-the-fly atomic UHF.

  ==> Iterations <==

                        Total Energy        Delta E     RMS |[F,P]|

   @RHF iter SAD:  -347.89550512981106   -3.47896e+02   0.00000e+00
   @RHF iter   1:  -348.76237050761091   -8.66865e-01   2.90639e-03 DIIS
   @RHF iter   2:  -348.95544601214152   -1.93076e-01   1.21341e-03 DIIS
   @RHF iter   3:  -348.98616333153234   -3.07173e-02   2.60755e-04 DIIS
   @RHF iter   4:  -348.98865741794316   -2.49409e-03   5.62607e-05 DIIS
   @RHF iter   5:  -348.98873858430312   -8.11664e-05   1.91138e-05 DIIS
   @RHF iter   6:  -348.98874753276510   -8.94846e-06   5.07718e-06 DIIS
   @RHF iter   7:  -348.98874829085702   -7.58092e-07   1.30537e-06 DIIS
   @RHF iter   8:  -348.98874835646239   -6.56054e-08   3.93769e-07 DIIS
   @RHF iter   9:  -348.98874836885602   -1.23936e-08   1.81665e-07 DIIS
   @RHF iter  10:  -348.98874837235456   -3.49854e-09   9.39702e-08 DIIS
   @RHF iter  11:  -348.98874837335609   -1.00152e-09   3.27105e-08 DIIS
   @RHF iter  12:  -348.98874837344988   -9.37916e-11   1.39329e-08 DIIS
   @RHF iter  13:  -348.98874837345937   -9.49285e-12   4.62902e-09 DIIS
   @RHF iter  14:  -348.98874837346176   -2.38742e-12   1.20151e-09 DIIS
   @RHF iter  15:  -348.98874837346045    1.30740e-12   4.89826e-10 DIIS
   @RHF iter  16:  -348.98874837346114   -6.82121e-13   2.27623e-10 DIIS
   @RHF iter  17:  -348.98874837345807    3.06954e-12   8.10941e-11 DIIS
  Energy and wave function converged.

  ==> Post-Iterations <==

    Orbital Energies [Eh]
    ---------------------

    Doubly Occupied:

       1A    -11.241429     2A    -11.236169     3A    -11.236051
       4A    -11.231160     5A    -11.230691     6A    -11.230509
       7A    -11.230035     8A    -11.211594     9A    -11.203407
      10A     -1.152678    11A     -1.044673    12A     -1.013079
      13A     -1.008991    14A     -0.931631    15A     -0.829909
      16A     -0.824447    17A     -0.795282    18A     -0.690810
      19A     -0.631627    20A     -0.630203    21A     -0.592530
      22A     -0.590195    23A     -0.581514    24A     -0.577377
      25A     -0.562221    26A     -0.535167    27A     -0.497865
      28A     -0.488910    29A     -0.485550    30A     -0.481178
      31A     -0.477269    32A     -0.469124    33A     -0.330387
      34A     -0.322890

    Virtual:

      35A      0.132550    36A      0.140521    37A      0.172479
      38A      0.196295    39A      0.201645    40A      0.222268
      41A      0.239213    42A      0.240242    43A      0.255705
      44A      0.260452    45A      0.262649    46A      0.278983
      47A      0.285510    48A      0.289924    49A      0.321052
      50A      0.339103    51A      0.365318    52A      0.374603
      53A      0.412640    54A      0.452066    55A      0.460947
      56A      0.477489    57A      0.491970    58A      0.561071
      59A      0.572768    60A      0.591810    61A      0.604041
      62A      0.612562    63A      0.644310    64A      0.657673
      65A      0.676577    66A      0.686087    67A      0.692583
      68A      0.705936    69A      0.738749    70A      0.740488
      71A      0.742339    72A      0.758331    73A      0.762870
      74A      0.777629    75A      0.795292    76A      0.827970
      77A      0.847081    78A      0.857614    79A      0.860696
      80A      0.868160    81A      0.883799    82A      0.893759
      83A      0.895341    84A      0.900708    85A      0.904605
      86A      0.913593    87A      0.919897    88A      0.930691
      89A      0.941436    90A      0.956918    91A      0.962108
      92A      0.980191    93A      0.991878    94A      1.009490
      95A      1.019899    96A      1.063838    97A      1.116456
      98A      1.124093    99A      1.131349   100A      1.142117
     101A      1.154989   102A      1.187288   103A      1.205530
     104A      1.217341   105A      1.239323   106A      1.252160
     107A      1.268155   108A      1.289337   109A      1.302017
     110A      1.313602   111A      1.328546   112A      1.334788
     113A      1.411389   114A      1.485659   115A      1.492783
     116A      1.507311   117A      1.522527   118A      1.554205
     119A      1.584454   120A      1.617286   121A      1.675099
     122A      1.691732   123A      1.696803   124A      1.708618
     125A      1.735662   126A      1.752487   127A      1.781531
     128A      1.795261   129A      1.816486   130A      1.858227
     131A      1.871965   132A      1.880616   133A      1.889336
     134A      1.896271   135A      1.908315   136A      1.914595
     137A      1.925022   138A      1.927783   139A      1.941330
     140A      1.947070   141A      1.949982   142A      1.952631
     143A      1.966008   144A      1.975522   145A      1.985874
     146A      1.988572   147A      1.996844   148A      2.017787
     149A      2.048456   150A      2.067328   151A      2.090805
     152A      2.110176   153A      2.130441   154A      2.139203
     155A      2.154518   156A      2.168756   157A      2.169783
     158A      2.178131   159A      2.183270   160A      2.256835
     161A      2.278213   162A      2.292123   163A      2.301997
     164A      2.312181   165A      2.315829   166A      2.334099
     167A      2.342877   168A      2.453831   169A      2.464349
     170A      2.468113   171A      2.486789   172A      2.498617
     173A      2.542287   174A      2.594374   175A      2.598944
     176A      2.621600   177A      2.735047   178A      2.756078
     179A      2.765125   180A      2.778900   181A      2.785776
     182A      2.805280   183A      2.821699   184A      2.849831
     185A      2.865980   186A      2.871406   187A      2.876712
     188A      2.971590   189A      2.978858   190A      2.990226
     191A      3.021295   192A      3.043646   193A      3.151616
     194A      3.197810   195A      3.295062   196A      3.966725

    Final Occupation by Irrep:
              A
    DOCC [    34 ]

  @RHF Final Energy:  -348.98874837345807

   => Energetics <=

    Nuclear Repulsion Energy =            419.4993854538461733
    One-Electron Energy =               -1301.7831551762706113
    Two-Electron Energy =                 533.2950213489664293
    Total Energy =                       -348.9887483734580655

Computation Completed

Properties will be evaluated at   0.000000,   0.000000,   0.000000 [a0]

Properties computed using the SCF density matrix

  Nuclear Dipole Moment: [e a0]
     X:     8.7895      Y:    -3.4843      Z:     2.6396

  Electronic Dipole Moment: [e a0]
     X:    -8.8645      Y:     3.4310      Z:    -2.7446

  Dipole Moment: [e a0]
     X:    -0.0750      Y:    -0.0534      Z:    -0.1050     Total:     0.1396

  Dipole Moment: [D]
     X:    -0.1907      Y:    -0.1356      Z:    -0.2669     Total:     0.3550

*** tstop() called on ds3 at Mon Apr 27 07:01:05 2020
Module time:
	user time   =      74.86 seconds =       1.25 minutes
	system time =      25.13 seconds =       0.42 minutes
	total time  =        156 seconds =       2.60 minutes
Total time:
	user time   =      74.86 seconds =       1.25 minutes
	system time =      25.13 seconds =       0.42 minutes
	total time  =        156 seconds =       2.60 minutes
                                     G D M A

                                 by Anthony Stone

                           version 2.2.06, 22 June 2011

               Distributed Multipoles from Gaussian wavefunctions

Starting at 7:1:5 on 27 Apr 2020

Using SCF density matrix from file ./SSI/SSI-036LEU-046PHE-1-dimer.test.15387.fchk

                         Distributed Multipole Analysis

Standard DMA

Positions and radii in angstrom
Multipole moments in atomic units, ea_0^k for rank k

C          x =  2.145952  y =  0.107572  z =  1.900725 angstrom
           Maximum rank =  0   Radius =  0.650 angstrom
                   Q00  =  -0.230076

C          x =  3.225952  y = -0.664428  z =  1.155725 angstrom
           Maximum rank =  0   Radius =  0.650 angstrom
                   Q00  =  -0.228511

H          x =  2.502952  y =  0.445572  z =  2.870725 angstrom
           Maximum rank =  0   Radius =  0.325 angstrom
                   Q00  =   0.069940

H          x =  1.901952  y =  0.994572  z =  1.328725 angstrom
           Maximum rank =  0   Radius =  0.325 angstrom
                   Q00  =   0.077499

H          x =  1.255952  y = -0.506428  z =  2.039725 angstrom
           Maximum rank =  0   Radius =  0.325 angstrom
                   Q00  =   0.084220

H          x =  3.991952  y =  0.033572  z =  0.820725 angstrom
           Maximum rank =  0   Radius =  0.325 angstrom
                   Q00  =   0.071673

H          x =  3.693467  y = -1.404960  z =  1.821335 angstrom
           Maximum rank =  0   Radius =  0.325 angstrom
                   Q00  =   0.074708

H          x =  2.807321  y = -1.168803  z =  0.272345 angstrom
           Maximum rank =  0   Radius =  0.325 angstrom
                   Q00  =   0.077722

C          x = -0.710048  y = -1.774428  z = -2.084275 angstrom
           Maximum rank =  0   Radius =  0.650 angstrom
                   Q00  =  -0.202843

C          x = -1.007048  y =  1.497572  z =  0.705725 angstrom
           Maximum rank =  0   Radius =  0.650 angstrom
                   Q00  =  -0.086150

C          x = -1.925048  y =  0.455572  z =  0.748725 angstrom
           Maximum rank =  0   Radius =  0.650 angstrom
                   Q00  =  -0.069487

C          x =  0.008952  y =  1.485572  z = -0.242275 angstrom
           Maximum rank =  0   Radius =  0.650 angstrom
                   Q00  =  -0.053212

C          x = -1.827048  y = -0.596428  z = -0.163275 angstrom
           Maximum rank =  0   Radius =  0.650 angstrom
                   Q00  =   0.002687

C          x =  0.108952  y =  0.425572  z = -1.147275 angstrom
           Maximum rank =  0   Radius =  0.650 angstrom
                   Q00  =  -0.098800

C          x = -0.808048  y = -0.624428  z = -1.110275 angstrom
           Maximum rank =  0   Radius =  0.650 angstrom
                   Q00  =  -0.097247

H          x = -1.086048  y =  2.318572  z =  1.406725 angstrom
           Maximum rank =  0   Radius =  0.325 angstrom
                   Q00  =   0.061160

H          x = -2.720048  y =  0.463572  z =  1.483725 angstrom
           Maximum rank =  0   Radius =  0.325 angstrom
                   Q00  =   0.065467

H          x =  0.713952  y =  2.304572  z = -0.289275 angstrom
           Maximum rank =  0   Radius =  0.325 angstrom
                   Q00  =   0.064479

H          x = -2.549048  y = -1.400428  z = -0.123275 angstrom
           Maximum rank =  0   Radius =  0.325 angstrom
                   Q00  =   0.057206

H          x =  0.888952  y =  0.440572  z = -1.895275 angstrom
           Maximum rank =  0   Radius =  0.325 angstrom
                   Q00  =   0.057028

H          x = -1.214048  y = -2.643428  z = -1.656275 angstrom
           Maximum rank =  0   Radius =  0.325 angstrom
                   Q00  =   0.097121

H          x =  0.339952  y = -2.032428  z = -2.195275 angstrom
           Maximum rank =  0   Radius =  0.325 angstrom
                   Q00  =   0.099459

H          x = -1.151459  y = -1.561259  z = -3.069015 angstrom
           Maximum rank =  0   Radius =  0.325 angstrom
                   Q00  =   0.105955

Total multipoles referred to origin at
           x =   0.000000,  y =    0.000000,  z =    0.000000 angstrom
                   Q00  =  -0.000000

Finished at 7:1:5 on 27 Apr 2020

  DMA results are available in the Python driver through the
	  variable('DMA DISTRIBUTED MULTIPOLES')
  and
	  variable('DMA TOTAL MULTIPOLES')
  commands.

    Psi4 stopped on: Monday, 27 April 2020 07:01AM
    Psi4 wall time for execution: 0:02:36.31

*** Psi4 exiting successfully. Buy a developer a beer!
