                               Psi4 1.3.2 release

  ==> Input File <==

--------------------------------------------------------------------------
import numpy as np
set {scf_type pk
basis cc-pvdz
d_convergence 10
gdma_switch   0
gdma_limit    0
gdma_origin   [ 0.0,  0.0,  0.0 ]
}
molecule test {
    units Angstrom
    -1 1
    --
    -1 1
    C               -4.177465576550530     0.635376708191142     0.045435006214678
    C               -2.654465576550530     0.741376708191142     0.181435006214678
    O               -2.069465576550529    -0.095623291808858     0.901435006214678
    O               -2.040465576550529     1.636376708191142    -0.443564993785322
    H               -4.633465576550529     0.534376708191142     1.032435006214679
    H               -4.413465576550529    -0.267623291808858    -0.517564993785322
    H               -4.611611576550528     1.500073708191141    -0.477834993785322
    C                3.576534423449471    -1.219623291808859    -1.469564993785322
    C                1.468534423449471     0.311376708191142     1.059435006214678
    C                1.139534423449471    -1.112623291808859    -0.584564993785322
    C                2.455534423449471    -0.775623291808858    -0.576564993785322
    N                0.549534423449471    -0.420623291808858     0.445435006214678
    N                2.639534423449471     0.120376708191142     0.458435006214678
    H               -0.449465576550529    -0.385623291808858     0.646435006214678
    H                1.284534423449471     0.972376708191142     1.899435006214679
    H                0.657534423449471    -1.787623291808859    -1.273564993785322
    H                4.015534423449471    -0.332623291808858    -1.919564993785322
    H                3.172534423449471    -1.839623291808858    -2.271564993785322
    H                4.365415423449472    -1.770256291808858    -0.936204993785322

}
e, wfn = energy('scf', return_wfn=True)
gdma(wfn)
dmavals = variable('DMA DISTRIBUTED MULTIPOLES')
charges = np.array(dmavals)
print(charges)
np.save('SSI-129ASP-140HIE-1-dimer.npy', np.array(charges))--------------------------------------------------------------------------

*** tstart() called on ds3
*** at Mon Apr 27 14:34:25 2020

   => Loading Basis Set <=

    Name: CC-PVDZ
    Role: ORBITAL
    Keyword: BASIS
    atoms 1-2, 8-11  entry C          line   138 file /theoryfs2/ds/metcalf/miniconda2/envs/tf2gpu/share/psi4/basis/cc-pvdz.gbs
    atoms 3-4        entry O          line   198 file /theoryfs2/ds/metcalf/miniconda2/envs/tf2gpu/share/psi4/basis/cc-pvdz.gbs
    atoms 5-7, 14-19 entry H          line    22 file /theoryfs2/ds/metcalf/miniconda2/envs/tf2gpu/share/psi4/basis/cc-pvdz.gbs
    atoms 12-13      entry N          line   168 file /theoryfs2/ds/metcalf/miniconda2/envs/tf2gpu/share/psi4/basis/cc-pvdz.gbs

         ---------------------------------------------------------
                                   SCF
               by Justin Turney, Rob Parrish, Andy Simmonett
                          and Daniel G. A. Smith
                              RHF Reference
                        1 Threads,    500 MiB Core
         ---------------------------------------------------------

  ==> Geometry <==

    Molecular point group: c1
    Full point group: C1

    Geometry (in Angstrom), charge = -1, multiplicity = 1:

       Center              X                  Y                   Z               Mass
    ------------   -----------------  -----------------  -----------------  -----------------
         C           -4.177465576551     0.635376708191     0.045435006215    12.000000000000
         C           -2.654465576551     0.741376708191     0.181435006215    12.000000000000
         O           -2.069465576551    -0.095623291809     0.901435006215    15.994914619570
         O           -2.040465576551     1.636376708191    -0.443564993785    15.994914619570
         H           -4.633465576551     0.534376708191     1.032435006215     1.007825032230
         H           -4.413465576551    -0.267623291809    -0.517564993785     1.007825032230
         H           -4.611611576551     1.500073708191    -0.477834993785     1.007825032230
         C            3.576534423449    -1.219623291809    -1.469564993785    12.000000000000
         C            1.468534423449     0.311376708191     1.059435006215    12.000000000000
         C            1.139534423449    -1.112623291809    -0.584564993785    12.000000000000
         C            2.455534423449    -0.775623291809    -0.576564993785    12.000000000000
         N            0.549534423449    -0.420623291809     0.445435006215    14.003074004430
         N            2.639534423449     0.120376708191     0.458435006215    14.003074004430
         H           -0.449465576551    -0.385623291809     0.646435006215     1.007825032230
         H            1.284534423449     0.972376708191     1.899435006215     1.007825032230
         H            0.657534423449    -1.787623291809    -1.273564993785     1.007825032230
         H            4.015534423449    -0.332623291809    -1.919564993785     1.007825032230
         H            3.172534423449    -1.839623291809    -2.271564993785     1.007825032230
         H            4.365415423449    -1.770256291809    -0.936204993785     1.007825032230

  Running in c1 symmetry.

  Rotational constants: A =      0.12488  B =      0.01646  C =      0.01597 [cm^-1]
  Rotational constants: A =   3743.81369  B =    493.44245  C =    478.73793 [MHz]
  Nuclear repulsion =  489.132068329591277

  Charge       = -1
  Multiplicity = 1
  Electrons    = 76
  Nalpha       = 38
  Nbeta        = 38

  ==> Algorithm <==

  SCF Algorithm Type is PK.
  DIIS enabled.
  MOM disabled.
  Fractional occupation disabled.
  Guess Type is SAD.
  Energy threshold   = 1.00e-06
  Density threshold  = 1.00e-10
  Integral threshold = 0.00e+00

  ==> Primary Basis <==

  Basis Set: CC-PVDZ
    Blend: CC-PVDZ
    Number of shells: 87
    Number of basis function: 185
    Number of Cartesian functions: 195
    Spherical Harmonics?: true
    Max angular momentum: 2

  ==> Pre-Iterations <==

   -------------------------------------------------------
    Irrep   Nso     Nmo     Nalpha   Nbeta   Ndocc  Nsocc
   -------------------------------------------------------
     A        185     185       0       0       0       0
   -------------------------------------------------------
    Total     185     185      38      38      38       0
   -------------------------------------------------------

  ==> Integral Setup <==

  Using integral reordering PK algorithm.
  Sizing the integral batches needed.
  Building batch lookup table.
   Calculation information:
      Number of atoms:                  19
      Number of AO shells:              87
      Number of primitives:            265
      Number of atomic orbitals:       195
      Number of basis functions:       185

      Integral cutoff                 1.00e-12
      Number of threads:                 1

	Batch   1 pq = [       0,    9405] index = [             0,44231715] size =     44231715
	Batch   2 pq = [    9405,   13301] index = [      44231715,88464951] size =     44233236
	Batch   3 pq = [   13301,   16290] index = [      88464951,132690195] size =     44225244
	Batch   4 pq = [   16290,   17205] index = [     132690195,148014615] size =     15324420
  Task number: 14
  Buffer size: 11059200
  Buffer per thread: 2
  We computed 5243712 shell quartets total.
  Whereas there are 7328706 unique shell quartets.

  ==> DiskJK: Disk-Based J/K Matrices <==

    J tasked:                  Yes
    K tasked:                  Yes
    wK tasked:                  No
    Memory [MiB]:              375
    Schwarz Cutoff:          1E-12

    OpenMP threads:              1

  Minimum eigenvalue in the overlap matrix is 1.2031366390E-03.
  Using Symmetric Orthogonalization.

  SCF Guess: Superposition of Atomic Densities via on-the-fly atomic UHF.

  ==> Iterations <==

                        Total Energy        Delta E     RMS |[F,P]|

   @RHF iter SAD:  -489.79628094591061   -4.89796e+02   0.00000e+00
   @RHF iter   1:  -490.85745700045447   -1.06118e+00   4.10400e-03 DIIS
   @RHF iter   2:  -491.08104581101082   -2.23589e-01   2.29705e-03 DIIS
   @RHF iter   3:  -491.14845200778518   -6.74062e-02   3.92031e-04 DIIS
   @RHF iter   4:  -491.15174554969343   -3.29354e-03   1.54271e-04 DIIS
   @RHF iter   5:  -491.15224416996801   -4.98620e-04   3.33718e-05 DIIS
   @RHF iter   6:  -491.15226978848386   -2.56185e-05   1.40782e-05 DIIS
   @RHF iter   7:  -491.15227478385975   -4.99538e-06   3.60523e-06 DIIS
   @RHF iter   8:  -491.15227557425447   -7.90395e-07   1.87196e-06 DIIS
   @RHF iter   9:  -491.15227577889556   -2.04641e-07   7.49440e-07 DIIS
   @RHF iter  10:  -491.15227581664635   -3.77508e-08   2.01193e-07 DIIS
   @RHF iter  11:  -491.15227581912387   -2.47752e-09   6.14236e-08 DIIS
   @RHF iter  12:  -491.15227581925524   -1.31365e-10   3.34615e-08 DIIS
   @RHF iter  13:  -491.15227581928883   -3.35945e-11   1.10931e-08 DIIS
   @RHF iter  14:  -491.15227581929571   -6.87805e-12   4.56772e-09 DIIS
   @RHF iter  15:  -491.15227581929867   -2.95586e-12   1.51722e-09 DIIS
   @RHF iter  16:  -491.15227581929724    1.42109e-12   6.45904e-10 DIIS
   @RHF iter  17:  -491.15227581929594    1.30740e-12   2.26875e-10 DIIS
   @RHF iter  18:  -491.15227581929406    1.87583e-12   6.28907e-11 DIIS
  Energy and wave function converged.

  ==> Post-Iterations <==

    Orbital Energies [Eh]
    ---------------------

    Doubly Occupied:

       1A    -20.303803     2A    -20.291903     3A    -15.443183
       4A    -15.386695     5A    -11.153401     6A    -11.144507
       7A    -11.117225     8A    -11.108810     9A    -11.104901
      10A    -11.076748    11A     -1.192867    12A     -1.185415
      13A     -1.074645    14A     -1.000914    15A     -0.900185
      16A     -0.821917    17A     -0.812150    18A     -0.664345
      19A     -0.618314    20A     -0.598067    21A     -0.533665
      22A     -0.474262    23A     -0.469155    24A     -0.454479
      25A     -0.442220    26A     -0.437513    27A     -0.435704
      28A     -0.424014    29A     -0.412197    30A     -0.400854
      31A     -0.372886    32A     -0.340294    33A     -0.275014
      34A     -0.231489    35A     -0.220507    36A     -0.207222
      37A     -0.201151    38A     -0.170796

    Virtual:

      39A      0.301972    40A      0.333339    41A      0.339415
      42A      0.341751    43A      0.346185    44A      0.351792
      45A      0.373956    46A      0.384374    47A      0.396549
      48A      0.413955    49A      0.452403    50A      0.480889
      51A      0.496960    52A      0.535508    53A      0.543339
      54A      0.604772    55A      0.617451    56A      0.633000
      57A      0.669854    58A      0.719271    59A      0.734087
      60A      0.748295    61A      0.756304    62A      0.795345
      63A      0.799503    64A      0.832007    65A      0.841826
      66A      0.853896    67A      0.882888    68A      0.897952
      69A      0.918790    70A      0.924485    71A      0.943639
      72A      0.947132    73A      0.961374    74A      0.981435
      75A      0.991316    76A      1.011253    77A      1.013579
      78A      1.017152    79A      1.020103    80A      1.032155
      81A      1.051768    82A      1.074031    83A      1.088860
      84A      1.106412    85A      1.115673    86A      1.183762
      87A      1.201650    88A      1.224453    89A      1.231683
      90A      1.262688    91A      1.274036    92A      1.287275
      93A      1.304544    94A      1.319861    95A      1.335969
      96A      1.385311    97A      1.425212    98A      1.435113
      99A      1.455361   100A      1.466354   101A      1.479751
     102A      1.520726   103A      1.543903   104A      1.560516
     105A      1.569380   106A      1.585735   107A      1.608304
     108A      1.619952   109A      1.638921   110A      1.658628
     111A      1.699416   112A      1.720285   113A      1.739913
     114A      1.772444   115A      1.790840   116A      1.816370
     117A      1.820678   118A      1.837383   119A      1.900983
     120A      1.920428   121A      1.937500   122A      1.965675
     123A      1.997372   124A      2.023924   125A      2.032143
     126A      2.053413   127A      2.056309   128A      2.065675
     129A      2.071811   130A      2.097823   131A      2.117815
     132A      2.127895   133A      2.149821   134A      2.164389
     135A      2.190878   136A      2.216588   137A      2.241215
     138A      2.247813   139A      2.277428   140A      2.302627
     141A      2.322858   142A      2.339489   143A      2.369627
     144A      2.397894   145A      2.409020   146A      2.459171
     147A      2.494850   148A      2.516195   149A      2.544215
     150A      2.597295   151A      2.611517   152A      2.615553
     153A      2.675420   154A      2.690770   155A      2.730777
     156A      2.757403   157A      2.781764   158A      2.812155
     159A      2.862301   160A      2.888633   161A      2.890520
     162A      2.900697   163A      2.931306   164A      2.944053
     165A      2.960126   166A      2.972410   167A      3.016386
     168A      3.023973   169A      3.060349   170A      3.095677
     171A      3.209693   172A      3.217713   173A      3.245721
     174A      3.290413   175A      3.342898   176A      3.383080
     177A      3.464644   178A      3.599107   179A      3.627702
     180A      3.741404   181A      3.785537   182A      4.012088
     183A      4.029832   184A      4.090505   185A      4.187570

    Final Occupation by Irrep:
              A
    DOCC [    38 ]

  @RHF Final Energy:  -491.15227581929406

   => Energetics <=

    Nuclear Repulsion Energy =            489.1320683295912772
    One-Electron Energy =               -1653.5618510718004472
    Two-Electron Energy =                 673.2775069229151086
    Total Energy =                       -491.1522758192941183

Computation Completed

Properties will be evaluated at   0.000000,   0.000000,   0.000000 [a0]

Properties computed using the SCF density matrix

  Nuclear Dipole Moment: [e a0]
     X:    -0.6032      Y:    -3.1571      Z:    -3.5797

  Electronic Dipole Moment: [e a0]
     X:     1.5084      Y:     1.8045      Z:     3.2601

  Dipole Moment: [e a0]
     X:     0.9052      Y:    -1.3526      Z:    -0.3195     Total:     1.6587

  Dipole Moment: [D]
     X:     2.3009      Y:    -3.4380      Z:    -0.8122     Total:     4.2159

*** tstop() called on ds3 at Mon Apr 27 14:36:22 2020
Module time:
	user time   =      46.40 seconds =       0.77 minutes
	system time =      21.97 seconds =       0.37 minutes
	total time  =        117 seconds =       1.95 minutes
Total time:
	user time   =      46.40 seconds =       0.77 minutes
	system time =      21.97 seconds =       0.37 minutes
	total time  =        117 seconds =       1.95 minutes
                                     G D M A

                                 by Anthony Stone

                           version 2.2.06, 22 June 2011

               Distributed Multipoles from Gaussian wavefunctions

Starting at 14:36:22 on 27 Apr 2020

Using SCF density matrix from file ./SSI/SSI-129ASP-140HIE-1-dimer.test.9374.fchk

                         Distributed Multipole Analysis

Standard DMA

Positions and radii in angstrom
Multipole moments in atomic units, ea_0^k for rank k

C          x = -4.177466  y =  0.635377  z =  0.045435 angstrom
           Maximum rank =  0   Radius =  0.650 angstrom
                   Q00  =  -0.265327

C          x = -2.654466  y =  0.741377  z =  0.181435 angstrom
           Maximum rank =  0   Radius =  0.650 angstrom
                   Q00  =   0.918697

O          x = -2.069466  y = -0.095623  z =  0.901435 angstrom
           Maximum rank =  0   Radius =  0.650 angstrom
                   Q00  =  -0.954566

O          x = -2.040466  y =  1.636377  z = -0.443565 angstrom
           Maximum rank =  0   Radius =  0.650 angstrom
                   Q00  =  -0.894060

H          x = -4.633466  y =  0.534377  z =  1.032435 angstrom
           Maximum rank =  0   Radius =  0.325 angstrom
                   Q00  =   0.072107

H          x = -4.413466  y = -0.267623  z = -0.517565 angstrom
           Maximum rank =  0   Radius =  0.325 angstrom
                   Q00  =   0.081593

H          x = -4.611612  y =  1.500074  z = -0.477835 angstrom
           Maximum rank =  0   Radius =  0.325 angstrom
                   Q00  =   0.062002

C          x =  3.576534  y = -1.219623  z = -1.469565 angstrom
           Maximum rank =  0   Radius =  0.650 angstrom
                   Q00  =  -0.185564

C          x =  1.468534  y =  0.311377  z =  1.059435 angstrom
           Maximum rank =  0   Radius =  0.650 angstrom
                   Q00  =   0.488110

C          x =  1.139534  y = -1.112623  z = -0.584565 angstrom
           Maximum rank =  0   Radius =  0.650 angstrom
                   Q00  =   0.051251

C          x =  2.455534  y = -0.775623  z = -0.576565 angstrom
           Maximum rank =  0   Radius =  0.650 angstrom
                   Q00  =   0.172886

N          x =  0.549534  y = -0.420623  z =  0.445435 angstrom
           Maximum rank =  0   Radius =  0.650 angstrom
                   Q00  =  -0.528171

N          x =  2.639534  y =  0.120377  z =  0.458435 angstrom
           Maximum rank =  0   Radius =  0.650 angstrom
                   Q00  =  -0.804221

H          x = -0.449466  y = -0.385623  z =  0.646435 angstrom
           Maximum rank =  0   Radius =  0.325 angstrom
                   Q00  =   0.361059

H          x =  1.284534  y =  0.972377  z =  1.899435 angstrom
           Maximum rank =  0   Radius =  0.325 angstrom
                   Q00  =   0.107890

H          x =  0.657534  y = -1.787623  z = -1.273565 angstrom
           Maximum rank =  0   Radius =  0.325 angstrom
                   Q00  =   0.069336

H          x =  4.015534  y = -0.332623  z = -1.919565 angstrom
           Maximum rank =  0   Radius =  0.325 angstrom
                   Q00  =   0.089801

H          x =  3.172534  y = -1.839623  z = -2.271565 angstrom
           Maximum rank =  0   Radius =  0.325 angstrom
                   Q00  =   0.076825

H          x =  4.365415  y = -1.770256  z = -0.936205 angstrom
           Maximum rank =  0   Radius =  0.325 angstrom
                   Q00  =   0.080349

Total multipoles referred to origin at
           x =   0.000000,  y =    0.000000,  z =    0.000000 angstrom
                   Q00  =  -1.000000

Finished at 14:36:22 on 27 Apr 2020

  DMA results are available in the Python driver through the
	  variable('DMA DISTRIBUTED MULTIPOLES')
  and
	  variable('DMA TOTAL MULTIPOLES')
  commands.

    Psi4 stopped on: Monday, 27 April 2020 02:36PM
    Psi4 wall time for execution: 0:01:56.81

*** Psi4 exiting successfully. Buy a developer a beer!
