                               Psi4 1.3.2 release

  ==> Input File <==

--------------------------------------------------------------------------
import numpy as np
set {scf_type pk
basis cc-pvdz
d_convergence 10
gdma_switch   0
gdma_limit    0
gdma_origin   [ 0.0,  0.0,  0.0 ]
}
molecule test {
    units Angstrom
    0 1
    --
    0 1
    C                1.136065891656780    -0.611443689228104    -2.017704681841126
    C               -0.058934108343220    -0.982443689228104    -2.889704681841126
    C                1.021065891656780     0.702556310771896    -1.285704681841126
    C               -0.025934108343220     0.937556310771896    -0.382704681841125
    C                1.966065891656780     1.725556310771896    -1.440704681841126
    C               -0.146934108343220     2.129556310771896     0.319295318158875
    C                1.845065891656780     2.928556310771896    -0.745704681841125
    C                0.794065891656780     3.139556310771896     0.147295318158875
    O                0.639065891656780     4.315556310771896     0.843295318158874
    H                1.275065891656780    -1.389443689228104    -1.265704681841126
    H                2.035065891656780    -0.597443689228104    -2.634704681841125
    H               -0.966934108343220    -0.891443689228104    -2.294704681841126
    H               -0.767934108343220     0.167556310771896    -0.239704681841125
    H                2.797065891656780     1.584556310771896    -2.120704681841126
    H               -0.971934108343220     2.256556310771896     1.007295318158874
    H                2.577065891656780     3.711556310771896    -0.887704681841125
    H               -0.172934108343220     4.299556310771896     1.351295318158874
    H                0.039665891656780    -2.029653689228104    -3.211634681841125
    H               -0.141414108343220    -0.292903689228104    -3.742772681841125
    C                0.259065891656780    -1.075443689228104     2.892295318158874
    C               -0.682934108343220    -3.295443689228104    -0.042704681841125
    C                0.045065891656780    -2.709443689228104     0.994295318158875
    C               -1.992934108343220    -2.915443689228104    -0.276704681841125
    C               -0.530934108343220    -1.717443689228104     1.779295318158875
    C               -2.576934108343220    -1.939443689228104     0.506295318158875
    C               -1.855934108343220    -1.343443689228104     1.536295318158875
    H               -0.233934108343220    -4.076443689228104    -0.627704681841126
    H                1.062065891656780    -3.027443689228103     1.177295318158875
    H               -2.565934108343220    -3.394443689228104    -1.057704681841126
    H               -3.607934108343220    -1.673443689228104     0.360295318158875
    H                0.071065891656780    -0.005443689228104     2.873295318158874
    H                1.319065891656780    -1.225443689228104     2.693295318158874
    H               -2.323934108343220    -0.580443689228104     2.142295318158874
    H                0.019455891656780    -1.475273689228104     3.888645318158875

}
e, wfn = energy('scf', return_wfn=True)
gdma(wfn)
dmavals = variable('DMA DISTRIBUTED MULTIPOLES')
charges = np.array(dmavals)
print(charges)
np.save('SSI-142TYR-160PHE-1-dimer.npy', np.array(charges))--------------------------------------------------------------------------

*** tstart() called on ds3
*** at Sun Apr 26 20:08:00 2020

   => Loading Basis Set <=

    Name: CC-PVDZ
    Role: ORBITAL
    Keyword: BASIS
    atoms 1-8, 20-26   entry C          line   138 file /theoryfs2/ds/metcalf/miniconda2/envs/tf2gpu/share/psi4/basis/cc-pvdz.gbs
    atoms 9            entry O          line   198 file /theoryfs2/ds/metcalf/miniconda2/envs/tf2gpu/share/psi4/basis/cc-pvdz.gbs
    atoms 10-19, 27-34 entry H          line    22 file /theoryfs2/ds/metcalf/miniconda2/envs/tf2gpu/share/psi4/basis/cc-pvdz.gbs

         ---------------------------------------------------------
                                   SCF
               by Justin Turney, Rob Parrish, Andy Simmonett
                          and Daniel G. A. Smith
                              RHF Reference
                        1 Threads,    500 MiB Core
         ---------------------------------------------------------

  ==> Geometry <==

    Molecular point group: c1
    Full point group: C1

    Geometry (in Angstrom), charge = 0, multiplicity = 1:

       Center              X                  Y                   Z               Mass
    ------------   -----------------  -----------------  -----------------  -----------------
         C            1.136065891657    -0.611443689228    -2.017704681841    12.000000000000
         C           -0.058934108343    -0.982443689228    -2.889704681841    12.000000000000
         C            1.021065891657     0.702556310772    -1.285704681841    12.000000000000
         C           -0.025934108343     0.937556310772    -0.382704681841    12.000000000000
         C            1.966065891657     1.725556310772    -1.440704681841    12.000000000000
         C           -0.146934108343     2.129556310772     0.319295318159    12.000000000000
         C            1.845065891657     2.928556310772    -0.745704681841    12.000000000000
         C            0.794065891657     3.139556310772     0.147295318159    12.000000000000
         O            0.639065891657     4.315556310772     0.843295318159    15.994914619570
         H            1.275065891657    -1.389443689228    -1.265704681841     1.007825032230
         H            2.035065891657    -0.597443689228    -2.634704681841     1.007825032230
         H           -0.966934108343    -0.891443689228    -2.294704681841     1.007825032230
         H           -0.767934108343     0.167556310772    -0.239704681841     1.007825032230
         H            2.797065891657     1.584556310772    -2.120704681841     1.007825032230
         H           -0.971934108343     2.256556310772     1.007295318159     1.007825032230
         H            2.577065891657     3.711556310772    -0.887704681841     1.007825032230
         H           -0.172934108343     4.299556310772     1.351295318159     1.007825032230
         H            0.039665891657    -2.029653689228    -3.211634681841     1.007825032230
         H           -0.141414108343    -0.292903689228    -3.742772681841     1.007825032230
         C            0.259065891657    -1.075443689228     2.892295318159    12.000000000000
         C           -0.682934108343    -3.295443689228    -0.042704681841    12.000000000000
         C            0.045065891657    -2.709443689228     0.994295318159    12.000000000000
         C           -1.992934108343    -2.915443689228    -0.276704681841    12.000000000000
         C           -0.530934108343    -1.717443689228     1.779295318159    12.000000000000
         C           -2.576934108343    -1.939443689228     0.506295318159    12.000000000000
         C           -1.855934108343    -1.343443689228     1.536295318159    12.000000000000
         H           -0.233934108343    -4.076443689228    -0.627704681841     1.007825032230
         H            1.062065891657    -3.027443689228     1.177295318159     1.007825032230
         H           -2.565934108343    -3.394443689228    -1.057704681841     1.007825032230
         H           -3.607934108343    -1.673443689228     0.360295318159     1.007825032230
         H            0.071065891657    -0.005443689228     2.873295318159     1.007825032230
         H            1.319065891657    -1.225443689228     2.693295318159     1.007825032230
         H           -2.323934108343    -0.580443689228     2.142295318159     1.007825032230
         H            0.019455891657    -1.475273689228     3.888645318159     1.007825032230

  Running in c1 symmetry.

  Rotational constants: A =      0.02526  B =      0.01114  C =      0.00914 [cm^-1]
  Rotational constants: A =    757.41255  B =    333.90965  C =    274.06619 [MHz]
  Nuclear repulsion = 1035.945577075370466

  Charge       = 0
  Multiplicity = 1
  Electrons    = 116
  Nalpha       = 58
  Nbeta        = 58

  ==> Algorithm <==

  SCF Algorithm Type is PK.
  DIIS enabled.
  MOM disabled.
  Fractional occupation disabled.
  Guess Type is SAD.
  Energy threshold   = 1.00e-06
  Density threshold  = 1.00e-10
  Integral threshold = 0.00e+00

  ==> Primary Basis <==

  Basis Set: CC-PVDZ
    Blend: CC-PVDZ
    Number of shells: 150
    Number of basis function: 314
    Number of Cartesian functions: 330
    Spherical Harmonics?: true
    Max angular momentum: 2

  ==> Pre-Iterations <==

   -------------------------------------------------------
    Irrep   Nso     Nmo     Nalpha   Nbeta   Ndocc  Nsocc
   -------------------------------------------------------
     A        314     314       0       0       0       0
   -------------------------------------------------------
    Total     314     314      58      58      58       0
   -------------------------------------------------------

  ==> Integral Setup <==

  Using integral reordering PK algorithm.
  Sizing the integral batches needed.
  Building batch lookup table.
   Calculation information:
      Number of atoms:                  34
      Number of AO shells:             150
      Number of primitives:            442
      Number of atomic orbitals:       330
      Number of basis functions:       314

      Integral cutoff                 1.00e-12
      Number of threads:                 1

	Batch   1 pq = [       0,    9405] index = [             0,44231715] size =     44231715
	Batch   2 pq = [    9405,   13301] index = [      44231715,88464951] size =     44233236
	Batch   3 pq = [   13301,   16290] index = [      88464951,132690195] size =     44225244
	Batch   4 pq = [   16290,   18810] index = [     132690195,176917455] size =     44227260
	Batch   5 pq = [   18810,   21030] index = [     176917455,221140965] size =     44223510
	Batch   6 pq = [   21030,   23037] index = [     221140965,265363203] size =     44222238
	Batch   7 pq = [   23037,   24883] index = [     265363203,309594286] size =     44231083
	Batch   8 pq = [   24883,   26601] index = [     309594286,353819901] size =     44225615
	Batch   9 pq = [   26601,   28214] index = [     353819901,398029005] size =     44209104
	Batch  10 pq = [   28214,   29740] index = [     398029005,442248670] size =     44219665
	Batch  11 pq = [   29740,   31191] index = [     442248670,486454836] size =     44206166
	Batch  12 pq = [   31191,   32578] index = [     486454836,530679331] size =     44224495
	Batch  13 pq = [   32578,   33908] index = [     530679331,574893186] size =     44213855
	Batch  14 pq = [   33908,   35188] index = [     574893186,619115266] size =     44222080
	Batch  15 pq = [   35188,   36423] index = [     619115266,663335676] size =     44220410
	Batch  16 pq = [   36423,   37617] index = [     663335676,707538153] size =     44202477
	Batch  17 pq = [   37617,   38775] index = [     707538153,751769700] size =     44231547
	Batch  18 pq = [   38775,   39899] index = [     751769700,795985050] size =     44215350
	Batch  19 pq = [   39899,   40992] index = [     795985050,840192528] size =     44207478
	Batch  20 pq = [   40992,   42057] index = [     840192528,884416653] size =     44224125
	Batch  21 pq = [   42057,   43095] index = [     884416653,928611060] size =     44194407
	Batch  22 pq = [   43095,   44109] index = [     928611060,972823995] size =     44212935
	Batch  23 pq = [   44109,   45100] index = [     972823995,1017027550] size =     44203555
	Batch  24 pq = [   45100,   46070] index = [    1017027550,1061245485] size =     44217935
	Batch  25 pq = [   46070,   47020] index = [    1061245485,1105463710] size =     44218225
	Batch  26 pq = [   47020,   47951] index = [    1105463710,1149673176] size =     44209466
	Batch  27 pq = [   47951,   48864] index = [    1149673176,1193869680] size =     44196504
	Batch  28 pq = [   48864,   49455] index = [    1193869680,1222923240] size =     29053560
  Task number: 111
  Buffer size: 11059200
  Buffer per thread: 2
  We computed 80768643 shell quartets total.
  Whereas there are 64133475 unique shell quartets.
    25.94 percent of shell quartets recomputed by reordering.

  ==> DiskJK: Disk-Based J/K Matrices <==

    J tasked:                  Yes
    K tasked:                  Yes
    wK tasked:                  No
    Memory [MiB]:              375
    Schwarz Cutoff:          1E-12

    OpenMP threads:              1

  Minimum eigenvalue in the overlap matrix is 2.9591088715E-04.
  Using Symmetric Orthogonalization.

  SCF Guess: Superposition of Atomic Densities via on-the-fly atomic UHF.

  ==> Iterations <==

                        Total Energy        Delta E     RMS |[F,P]|

   @RHF iter SAD:  -652.26072425438656   -6.52261e+02   0.00000e+00
   @RHF iter   1:  -653.06638281870892   -8.05659e-01   2.28459e-03 DIIS
   @RHF iter   2:  -653.36284001380386   -2.96457e-01   9.68740e-04 DIIS
   @RHF iter   3:  -653.40995478730542   -4.71148e-02   2.40196e-04 DIIS
   @RHF iter   4:  -653.41411566897204   -4.16088e-03   1.02642e-04 DIIS
   @RHF iter   5:  -653.41472053842074   -6.04869e-04   1.64885e-05 DIIS
   @RHF iter   6:  -653.41474458167954   -2.40433e-05   5.39888e-06 DIIS
   @RHF iter   7:  -653.41474715277127   -2.57109e-06   1.71078e-06 DIIS
   @RHF iter   8:  -653.41474751842713   -3.65656e-07   6.19643e-07 DIIS
   @RHF iter   9:  -653.41474758445520   -6.60281e-08   2.76228e-07 DIIS
   @RHF iter  10:  -653.41474759806033   -1.36051e-08   1.24681e-07 DIIS
   @RHF iter  11:  -653.41474760262281   -4.56248e-09   5.29900e-08 DIIS
   @RHF iter  12:  -653.41474760340748   -7.84667e-10   2.37165e-08 DIIS
   @RHF iter  13:  -653.41474760351389   -1.06411e-10   7.07831e-09 DIIS
   @RHF iter  14:  -653.41474760352094   -7.04858e-12   2.39217e-09 DIIS
   @RHF iter  15:  -653.41474760351582    5.11591e-12   7.88422e-10 DIIS
   @RHF iter  16:  -653.41474760352150   -5.68434e-12   3.89711e-10 DIIS
   @RHF iter  17:  -653.41474760352105    4.54747e-13   2.00815e-10 DIIS
   @RHF iter  18:  -653.41474760351059    1.04592e-11   8.17708e-11 DIIS
  Energy and wave function converged.

  ==> Post-Iterations <==

    Orbital Energies [Eh]
    ---------------------

    Doubly Occupied:

       1A    -20.579820     2A    -11.296257     3A    -11.245376
       4A    -11.240103     5A    -11.239838     6A    -11.236036
       7A    -11.235658     8A    -11.235089     9A    -11.234555
      10A    -11.229533    11A    -11.229022    12A    -11.227638
      13A    -11.226252    14A    -11.226117    15A    -11.220585
      16A    -11.215169    17A     -1.392972    18A     -1.160584
      19A     -1.144620    20A     -1.052411    21A     -1.050273
      22A     -1.018522    23A     -1.010620    24A     -0.971174
      25A     -0.935320    26A     -0.854873    27A     -0.836220
      28A     -0.832045    29A     -0.801071    30A     -0.783759
      31A     -0.725600    32A     -0.697731    33A     -0.667691
      34A     -0.637669    35A     -0.637185    36A     -0.635730
      37A     -0.607879    38A     -0.593556    39A     -0.589023
      40A     -0.581859    41A     -0.577376    42A     -0.573231
      43A     -0.572985    44A     -0.566233    45A     -0.538160
      46A     -0.534241    47A     -0.514246    48A     -0.499221
      49A     -0.491012    50A     -0.487460    51A     -0.485025
      52A     -0.472569    53A     -0.463589    54A     -0.457151
      55A     -0.338495    56A     -0.334628    57A     -0.326388
      58A     -0.296181

    Virtual:

      59A      0.124509    60A      0.131532    61A      0.141802
      62A      0.155259    63A      0.170618    64A      0.181925
      65A      0.198444    66A      0.203366    67A      0.204344
      68A      0.227779    69A      0.236441    70A      0.238405
      71A      0.250160    72A      0.256119    73A      0.267218
      74A      0.274610    75A      0.280334    76A      0.289825
      77A      0.299496    78A      0.304297    79A      0.309094
      80A      0.356248    81A      0.362321    82A      0.366623
      83A      0.375451    84A      0.390301    85A      0.418651
      86A      0.431203    87A      0.449395    88A      0.457843
      89A      0.470403    90A      0.483633    91A      0.491240
      92A      0.497980    93A      0.501929    94A      0.528905
      95A      0.558752    96A      0.577845    97A      0.595971
      98A      0.611779    99A      0.618647   100A      0.627587
     101A      0.650896   102A      0.662665   103A      0.673620
     104A      0.681226   105A      0.685583   106A      0.696050
     107A      0.701755   108A      0.714007   109A      0.722034
     110A      0.727383   111A      0.730414   112A      0.736305
     113A      0.745564   114A      0.747515   115A      0.754786
     116A      0.765540   117A      0.779418   118A      0.782896
     119A      0.791119   120A      0.795421   121A      0.800708
     122A      0.815249   123A      0.827663   124A      0.842013
     125A      0.849561   126A      0.855301   127A      0.857385
     128A      0.860230   129A      0.865737   130A      0.877154
     131A      0.887223   132A      0.892879   133A      0.895025
     134A      0.898223   135A      0.907531   136A      0.916781
     137A      0.919344   138A      0.925787   139A      0.932900
     140A      0.939269   141A      0.947552   142A      0.952301
     143A      0.971305   144A      0.978317   145A      0.985653
     146A      0.989410   147A      1.000679   148A      1.001677
     149A      1.023092   150A      1.030276   151A      1.051363
     152A      1.072420   153A      1.079297   154A      1.122251
     155A      1.127772   156A      1.133673   157A      1.144680
     158A      1.152446   159A      1.158605   160A      1.165997
     161A      1.181660   162A      1.193624   163A      1.204783
     164A      1.221583   165A      1.227543   166A      1.242885
     167A      1.254400   168A      1.264165   169A      1.269379
     170A      1.280010   171A      1.283435   172A      1.290799
     173A      1.298728   174A      1.308352   175A      1.314948
     176A      1.319944   177A      1.328964   178A      1.342906
     179A      1.352297   180A      1.361625   181A      1.375379
     182A      1.388755   183A      1.417300   184A      1.450426
     185A      1.462059   186A      1.493956   187A      1.506854
     188A      1.519812   189A      1.540054   190A      1.548586
     191A      1.564869   192A      1.591692   193A      1.608887
     194A      1.621733   195A      1.647034   196A      1.675027
     197A      1.690240   198A      1.690739   199A      1.702919
     200A      1.715180   201A      1.743539   202A      1.753649
     203A      1.759013   204A      1.770989   205A      1.793513
     206A      1.803604   207A      1.809205   208A      1.825302
     209A      1.827666   210A      1.845446   211A      1.859583
     212A      1.879734   213A      1.886592   214A      1.893657
     215A      1.901353   216A      1.905855   217A      1.913053
     218A      1.917619   219A      1.925075   220A      1.931340
     221A      1.934233   222A      1.941173   223A      1.948124
     224A      1.950546   225A      1.952641   226A      1.960523
     227A      1.968573   228A      1.977372   229A      1.987070
     230A      1.993690   231A      2.003093   232A      2.008316
     233A      2.015293   234A      2.022108   235A      2.041852
     236A      2.047558   237A      2.061805   238A      2.065988
     239A      2.082040   240A      2.088446   241A      2.094115
     242A      2.099508   243A      2.104871   244A      2.125852
     245A      2.133904   246A      2.142959   247A      2.155662
     248A      2.160991   249A      2.175955   250A      2.181007
     251A      2.184722   252A      2.211276   253A      2.218140
     254A      2.247842   255A      2.250421   256A      2.267634
     257A      2.278186   258A      2.283360   259A      2.296064
     260A      2.309993   261A      2.318733   262A      2.329175
     263A      2.338306   264A      2.346881   265A      2.365177
     266A      2.369591   267A      2.435245   268A      2.463454
     269A      2.467881   270A      2.472697   271A      2.479782
     272A      2.501037   273A      2.519273   274A      2.534873
     275A      2.539339   276A      2.550584   277A      2.567926
     278A      2.607071   279A      2.624263   280A      2.645926
     281A      2.653474   282A      2.755340   283A      2.758185
     284A      2.764710   285A      2.779965   286A      2.786357
     287A      2.794826   288A      2.809632   289A      2.813961
     290A      2.845986   291A      2.855837   292A      2.872341
     293A      2.890902   294A      2.892258   295A      2.932929
     296A      2.960544   297A      2.988349   298A      2.996052
     299A      3.027493   300A      3.033586   301A      3.063576
     302A      3.090837   303A      3.154797   304A      3.172189
     305A      3.205564   306A      3.259550   307A      3.297997
     308A      3.307047   309A      3.342117   310A      3.578617
     311A      3.657596   312A      3.973432   313A      3.980455
     314A      4.184758

    Final Occupation by Irrep:
              A
    DOCC [    58 ]

  @RHF Final Energy:  -653.41474760351059

   => Energetics <=

    Nuclear Repulsion Energy =           1035.9455770753704655
    One-Electron Energy =               -2942.9933982689344703
    Two-Electron Energy =                1253.6330735900533000
    Total Energy =                       -653.4147476035107047

Computation Completed

Properties will be evaluated at   0.000000,   0.000000,   0.000000 [a0]

Properties computed using the SCF density matrix

  Nuclear Dipole Moment: [e a0]
     X:    -0.5194      Y:    -8.0785      Z:    -2.4234

  Electronic Dipole Moment: [e a0]
     X:     0.0633      Y:     7.5415      Z:     2.6990

  Dipole Moment: [e a0]
     X:    -0.4561      Y:    -0.5370      Z:     0.2757     Total:     0.7566

  Dipole Moment: [D]
     X:    -1.1593      Y:    -1.3650      Z:     0.7006     Total:     1.9231

*** tstop() called on ds3 at Sun Apr 26 20:23:23 2020
Module time:
	user time   =     679.61 seconds =      11.33 minutes
	system time =     189.92 seconds =       3.17 minutes
	total time  =        923 seconds =      15.38 minutes
Total time:
	user time   =     679.61 seconds =      11.33 minutes
	system time =     189.92 seconds =       3.17 minutes
	total time  =        923 seconds =      15.38 minutes
                                     G D M A

                                 by Anthony Stone

                           version 2.2.06, 22 June 2011

               Distributed Multipoles from Gaussian wavefunctions

Starting at 20:23:23 on 26 Apr 2020

Using SCF density matrix from file ./SSI/SSI-142TYR-160PHE-1-dimer.test.12099.fchk

                         Distributed Multipole Analysis

Standard DMA

Positions and radii in angstrom
Multipole moments in atomic units, ea_0^k for rank k

C          x =  1.136066  y = -0.611444  z = -2.017705 angstrom
           Maximum rank =  0   Radius =  0.650 angstrom
                   Q00  =  -0.039144

C          x = -0.058934  y = -0.982444  z = -2.889705 angstrom
           Maximum rank =  0   Radius =  0.650 angstrom
                   Q00  =  -0.228589

C          x =  1.021066  y =  0.702556  z = -1.285705 angstrom
           Maximum rank =  0   Radius =  0.650 angstrom
                   Q00  =  -0.150371

C          x = -0.025934  y =  0.937556  z = -0.382705 angstrom
           Maximum rank =  0   Radius =  0.650 angstrom
                   Q00  =   0.050956

C          x =  1.966066  y =  1.725556  z = -1.440705 angstrom
           Maximum rank =  0   Radius =  0.650 angstrom
                   Q00  =  -0.044714

C          x = -0.146934  y =  2.129556  z =  0.319295 angstrom
           Maximum rank =  0   Radius =  0.650 angstrom
                   Q00  =  -0.182279

C          x =  1.845066  y =  2.928556  z = -0.745705 angstrom
           Maximum rank =  0   Radius =  0.650 angstrom
                   Q00  =  -0.084098

C          x =  0.794066  y =  3.139556  z =  0.147295 angstrom
           Maximum rank =  0   Radius =  0.650 angstrom
                   Q00  =   0.258096

O          x =  0.639066  y =  4.315556  z =  0.843295 angstrom
           Maximum rank =  0   Radius =  0.650 angstrom
                   Q00  =  -0.647658

H          x =  1.275066  y = -1.389444  z = -1.265705 angstrom
           Maximum rank =  0   Radius =  0.325 angstrom
                   Q00  =   0.077052

H          x =  2.035066  y = -0.597444  z = -2.634705 angstrom
           Maximum rank =  0   Radius =  0.325 angstrom
                   Q00  =   0.056806

H          x = -0.966934  y = -0.891444  z = -2.294705 angstrom
           Maximum rank =  0   Radius =  0.325 angstrom
                   Q00  =   0.087792

H          x = -0.767934  y =  0.167556  z = -0.239705 angstrom
           Maximum rank =  0   Radius =  0.325 angstrom
                   Q00  =   0.079817

H          x =  2.797066  y =  1.584556  z = -2.120705 angstrom
           Maximum rank =  0   Radius =  0.325 angstrom
                   Q00  =   0.063505

H          x = -0.971934  y =  2.256556  z =  1.007295 angstrom
           Maximum rank =  0   Radius =  0.325 angstrom
                   Q00  =   0.061056

H          x =  2.577066  y =  3.711556  z = -0.887705 angstrom
           Maximum rank =  0   Radius =  0.325 angstrom
                   Q00  =   0.076669

H          x = -0.172934  y =  4.299556  z =  1.351295 angstrom
           Maximum rank =  0   Radius =  0.325 angstrom
                   Q00  =   0.403632

H          x =  0.039666  y = -2.029654  z = -3.211635 angstrom
           Maximum rank =  0   Radius =  0.325 angstrom
                   Q00  =   0.079432

H          x = -0.141414  y = -0.292904  z = -3.742773 angstrom
           Maximum rank =  0   Radius =  0.325 angstrom
                   Q00  =   0.078092

C          x =  0.259066  y = -1.075444  z =  2.892295 angstrom
           Maximum rank =  0   Radius =  0.650 angstrom
                   Q00  =  -0.198914

C          x = -0.682934  y = -3.295444  z = -0.042705 angstrom
           Maximum rank =  0   Radius =  0.650 angstrom
                   Q00  =  -0.051289

C          x =  0.045066  y = -2.709444  z =  0.994295 angstrom
           Maximum rank =  0   Radius =  0.650 angstrom
                   Q00  =  -0.084209

C          x = -1.992934  y = -2.915444  z = -0.276705 angstrom
           Maximum rank =  0   Radius =  0.650 angstrom
                   Q00  =  -0.087800

C          x = -0.530934  y = -1.717444  z =  1.779295 angstrom
           Maximum rank =  0   Radius =  0.650 angstrom
                   Q00  =  -0.092190

C          x = -2.576934  y = -1.939444  z =  0.506295 angstrom
           Maximum rank =  0   Radius =  0.650 angstrom
                   Q00  =  -0.043352

C          x = -1.855934  y = -1.343444  z =  1.536295 angstrom
           Maximum rank =  0   Radius =  0.650 angstrom
                   Q00  =  -0.054535

H          x = -0.233934  y = -4.076444  z = -0.627705 angstrom
           Maximum rank =  0   Radius =  0.325 angstrom
                   Q00  =   0.065823

H          x =  1.062066  y = -3.027444  z =  1.177295 angstrom
           Maximum rank =  0   Radius =  0.325 angstrom
                   Q00  =   0.061538

H          x = -2.565934  y = -3.394444  z = -1.057705 angstrom
           Maximum rank =  0   Radius =  0.325 angstrom
                   Q00  =   0.061699

H          x = -3.607934  y = -1.673444  z =  0.360295 angstrom
           Maximum rank =  0   Radius =  0.325 angstrom
                   Q00  =   0.064804

H          x =  0.071066  y = -0.005444  z =  2.873295 angstrom
           Maximum rank =  0   Radius =  0.325 angstrom
                   Q00  =   0.102896

H          x =  1.319066  y = -1.225444  z =  2.693295 angstrom
           Maximum rank =  0   Radius =  0.325 angstrom
                   Q00  =   0.102000

H          x = -2.323934  y = -0.580444  z =  2.142295 angstrom
           Maximum rank =  0   Radius =  0.325 angstrom
                   Q00  =   0.054371

H          x =  0.019456  y = -1.475274  z =  3.888645 angstrom
           Maximum rank =  0   Radius =  0.325 angstrom
                   Q00  =   0.103106

Total multipoles referred to origin at
           x =   0.000000,  y =    0.000000,  z =    0.000000 angstrom
                   Q00  =  -0.000000

Finished at 20:23:23 on 26 Apr 2020

  DMA results are available in the Python driver through the
	  variable('DMA DISTRIBUTED MULTIPOLES')
  and
	  variable('DMA TOTAL MULTIPOLES')
  commands.

    Psi4 stopped on: Sunday, 26 April 2020 08:23PM
    Psi4 wall time for execution: 0:15:23.24

*** Psi4 exiting successfully. Buy a developer a beer!
