                               Psi4 1.3.2 release

  ==> Input File <==

--------------------------------------------------------------------------
import numpy as np
set {scf_type pk
basis cc-pvdz
d_convergence 10
gdma_switch   0
gdma_limit    0
gdma_origin   [ 0.0,  0.0,  0.0 ]
}
molecule test {
    units Angstrom
    0 1
    --
    0 1
    C                0.369303121911139    -2.912419086878836    -1.427721908980823
    C               -0.089696878088861     0.685580913121164    -0.335721908980823
    C                0.493303121911139    -0.500419086878836    -0.770721908980823
    C               -1.438696878088861     0.742580913121164    -0.104721908980823
    C               -0.272696878088861    -1.650419086878836    -0.942721908980823
    C               -2.221696878088861    -0.404419086878836    -0.246721908980823
    C               -1.634696878088861    -1.594419086878836    -0.681721908980823
    O               -1.968696878088861     1.934580913121164     0.302278091019177
    H                0.522303121911139     1.565580913121164    -0.200721908980823
    H                1.554303121911139    -0.555419086878836    -0.949721908980823
    H               -1.298696878088861     2.622580913121164     0.368278091019177
    H               -3.277696878088861    -0.357419086878836    -0.027721908980823
    H               -0.215696878088861    -3.761419086878836    -1.073721908980823
    H                1.355303121911139    -2.990419086878836    -0.964721908980823
    H               -2.245696878088861    -2.477419086878835    -0.808721908980823
    H                0.488423121911139    -2.992309086878836    -2.518330908980823
    C                2.599303121911139     1.263580913121164     2.382278091019177
    C                3.544303121911139     1.779580913121164     1.322278091019177
    H                2.154303121911139     2.087580913121164     2.941278091019177
    H                1.801303121911139     0.696580913121164     1.902278091019177
    H                3.115303121911139     0.583580913121164     3.051278091019177
    H                2.915303121911139     2.151580913121165     0.513278091019177
    H                4.132303121911138     0.957580913121164     0.916278091019177
    H                4.184513121911139     2.614010913121164     1.644538091019177

}
e, wfn = energy('scf', return_wfn=True)
gdma(wfn)
dmavals = variable('DMA DISTRIBUTED MULTIPOLES')
charges = np.array(dmavals)
print(charges)
np.save('SSI-173TYR-245ILE-1-dimer.npy', np.array(charges))--------------------------------------------------------------------------

*** tstart() called on ds3
*** at Mon Apr 27 07:49:08 2020

   => Loading Basis Set <=

    Name: CC-PVDZ
    Role: ORBITAL
    Keyword: BASIS
    atoms 1-7, 17-18  entry C          line   138 file /theoryfs2/ds/metcalf/miniconda2/envs/tf2gpu/share/psi4/basis/cc-pvdz.gbs
    atoms 8           entry O          line   198 file /theoryfs2/ds/metcalf/miniconda2/envs/tf2gpu/share/psi4/basis/cc-pvdz.gbs
    atoms 9-16, 19-24 entry H          line    22 file /theoryfs2/ds/metcalf/miniconda2/envs/tf2gpu/share/psi4/basis/cc-pvdz.gbs

         ---------------------------------------------------------
                                   SCF
               by Justin Turney, Rob Parrish, Andy Simmonett
                          and Daniel G. A. Smith
                              RHF Reference
                        1 Threads,    500 MiB Core
         ---------------------------------------------------------

  ==> Geometry <==

    Molecular point group: c1
    Full point group: C1

    Geometry (in Angstrom), charge = 0, multiplicity = 1:

       Center              X                  Y                   Z               Mass
    ------------   -----------------  -----------------  -----------------  -----------------
         C            0.369303121911    -2.912419086879    -1.427721908981    12.000000000000
         C           -0.089696878089     0.685580913121    -0.335721908981    12.000000000000
         C            0.493303121911    -0.500419086879    -0.770721908981    12.000000000000
         C           -1.438696878089     0.742580913121    -0.104721908981    12.000000000000
         C           -0.272696878089    -1.650419086879    -0.942721908981    12.000000000000
         C           -2.221696878089    -0.404419086879    -0.246721908981    12.000000000000
         C           -1.634696878089    -1.594419086879    -0.681721908981    12.000000000000
         O           -1.968696878089     1.934580913121     0.302278091019    15.994914619570
         H            0.522303121911     1.565580913121    -0.200721908981     1.007825032230
         H            1.554303121911    -0.555419086879    -0.949721908981     1.007825032230
         H           -1.298696878089     2.622580913121     0.368278091019     1.007825032230
         H           -3.277696878089    -0.357419086879    -0.027721908981     1.007825032230
         H           -0.215696878089    -3.761419086879    -1.073721908981     1.007825032230
         H            1.355303121911    -2.990419086879    -0.964721908981     1.007825032230
         H           -2.245696878089    -2.477419086879    -0.808721908981     1.007825032230
         H            0.488423121911    -2.992309086879    -2.518330908981     1.007825032230
         C            2.599303121911     1.263580913121     2.382278091019    12.000000000000
         C            3.544303121911     1.779580913121     1.322278091019    12.000000000000
         H            2.154303121911     2.087580913121     2.941278091019     1.007825032230
         H            1.801303121911     0.696580913121     1.902278091019     1.007825032230
         H            3.115303121911     0.583580913121     3.051278091019     1.007825032230
         H            2.915303121911     2.151580913121     0.513278091019     1.007825032230
         H            4.132303121911     0.957580913121     0.916278091019     1.007825032230
         H            4.184513121911     2.614010913121     1.644538091019     1.007825032230

  Running in c1 symmetry.

  Rotational constants: A =      0.04544  B =      0.02380  C =      0.01682 [cm^-1]
  Rotational constants: A =   1362.17984  B =    713.44049  C =    504.28619 [MHz]
  Nuclear repulsion =  492.939259338883289

  Charge       = 0
  Multiplicity = 1
  Electrons    = 76
  Nalpha       = 38
  Nbeta        = 38

  ==> Algorithm <==

  SCF Algorithm Type is PK.
  DIIS enabled.
  MOM disabled.
  Fractional occupation disabled.
  Guess Type is SAD.
  Energy threshold   = 1.00e-06
  Density threshold  = 1.00e-10
  Integral threshold = 0.00e+00

  ==> Primary Basis <==

  Basis Set: CC-PVDZ
    Blend: CC-PVDZ
    Number of shells: 102
    Number of basis function: 210
    Number of Cartesian functions: 220
    Spherical Harmonics?: true
    Max angular momentum: 2

  ==> Pre-Iterations <==

   -------------------------------------------------------
    Irrep   Nso     Nmo     Nalpha   Nbeta   Ndocc  Nsocc
   -------------------------------------------------------
     A        210     210       0       0       0       0
   -------------------------------------------------------
    Total     210     210      38      38      38       0
   -------------------------------------------------------

  ==> Integral Setup <==

  Using integral reordering PK algorithm.
  Sizing the integral batches needed.
  Building batch lookup table.
   Calculation information:
      Number of atoms:                  24
      Number of AO shells:             102
      Number of primitives:            290
      Number of atomic orbitals:       220
      Number of basis functions:       210

      Integral cutoff                 1.00e-12
      Number of threads:                 1

	Batch   1 pq = [       0,    9405] index = [             0,44231715] size =     44231715
	Batch   2 pq = [    9405,   13301] index = [      44231715,88464951] size =     44233236
	Batch   3 pq = [   13301,   16290] index = [      88464951,132690195] size =     44225244
	Batch   4 pq = [   16290,   18810] index = [     132690195,176917455] size =     44227260
	Batch   5 pq = [   18810,   21030] index = [     176917455,221140965] size =     44223510
	Batch   6 pq = [   21030,   22155] index = [     221140965,245433090] size =     24292125
  Task number: 23
  Buffer size: 11059200
  Buffer per thread: 2
  We computed 11481033 shell quartets total.
  Whereas there are 13799631 unique shell quartets.

  ==> DiskJK: Disk-Based J/K Matrices <==

    J tasked:                  Yes
    K tasked:                  Yes
    wK tasked:                  No
    Memory [MiB]:              375
    Schwarz Cutoff:          1E-12

    OpenMP threads:              1

  Minimum eigenvalue in the overlap matrix is 3.1908720158E-04.
  Using Symmetric Orthogonalization.

  SCF Guess: Superposition of Atomic Densities via on-the-fly atomic UHF.

  ==> Iterations <==

                        Total Energy        Delta E     RMS |[F,P]|

   @RHF iter SAD:  -422.78516603605487   -4.22785e+02   0.00000e+00
   @RHF iter   1:  -423.59497649983456   -8.09810e-01   3.00118e-03 DIIS
   @RHF iter   2:  -423.81370152518559   -2.18725e-01   1.26830e-03 DIIS
   @RHF iter   3:  -423.84918504729103   -3.54835e-02   2.84246e-04 DIIS
   @RHF iter   4:  -423.85205516094817   -2.87011e-03   1.17497e-04 DIIS
   @RHF iter   5:  -423.85240965903967   -3.54498e-04   2.07854e-05 DIIS
   @RHF iter   6:  -423.85242716138191   -1.75023e-05   6.31928e-06 DIIS
   @RHF iter   7:  -423.85242876412349   -1.60274e-06   2.01092e-06 DIIS
   @RHF iter   8:  -423.85242897400821   -2.09885e-07   7.37549e-07 DIIS
   @RHF iter   9:  -423.85242900491340   -3.09052e-08   2.80220e-07 DIIS
   @RHF iter  10:  -423.85242901010895   -5.19555e-09   1.11713e-07 DIIS
   @RHF iter  11:  -423.85242901159870   -1.48975e-09   5.04371e-08 DIIS
   @RHF iter  12:  -423.85242901192737   -3.28669e-10   2.47948e-08 DIIS
   @RHF iter  13:  -423.85242901198859   -6.12204e-11   7.70943e-09 DIIS
   @RHF iter  14:  -423.85242901199223   -3.63798e-12   2.07343e-09 DIIS
   @RHF iter  15:  -423.85242901199047    1.76215e-12   6.89086e-10 DIIS
   @RHF iter  16:  -423.85242901199115   -6.82121e-13   2.38070e-10 DIIS
   @RHF iter  17:  -423.85242901199359   -2.44427e-12   1.05161e-10 DIIS
   @RHF iter  18:  -423.85242901199211    1.47793e-12   5.52550e-11 DIIS
  Energy and wave function converged.

  ==> Post-Iterations <==

    Orbital Energies [Eh]
    ---------------------

    Doubly Occupied:

       1A    -20.580975     2A    -11.297816     3A    -11.238914
       4A    -11.237925     5A    -11.232817     6A    -11.232059
       7A    -11.230883     8A    -11.227539     9A    -11.221009
      10A    -11.215923    11A     -1.397703    12A     -1.154403
      13A     -1.041524    14A     -1.026697    15A     -1.018744
      16A     -0.927527    17A     -0.847141    18A     -0.839628
      19A     -0.802993    20A     -0.732161    21A     -0.671475
      22A     -0.643899    23A     -0.609111    24A     -0.606266
      25A     -0.601967    26A     -0.586581    27A     -0.585439
      28A     -0.570606    29A     -0.566027    30A     -0.526134
      31A     -0.509409    32A     -0.499054    33A     -0.491906
      34A     -0.486663    35A     -0.481020    36A     -0.467233
      37A     -0.339196    38A     -0.304001

    Virtual:

      39A      0.128540    40A      0.151747    41A      0.164082
      42A      0.183316    43A      0.201319    44A      0.214582
      45A      0.223900    46A      0.240447    47A      0.245382
      48A      0.254017    49A      0.258214    50A      0.276280
      51A      0.288383    52A      0.296324    53A      0.303123
      54A      0.353666    55A      0.372745    56A      0.379522
      57A      0.401195    58A      0.432880    59A      0.458725
      60A      0.480189    61A      0.503636    62A      0.508776
      63A      0.595368    64A      0.599184    65A      0.609855
      66A      0.611342    67A      0.640099    68A      0.646713
      69A      0.661275    70A      0.667347    71A      0.680620
      72A      0.701115    73A      0.709516    74A      0.715068
      75A      0.726625    76A      0.742643    77A      0.764443
      78A      0.774570    79A      0.781344    80A      0.793166
      81A      0.798328    82A      0.833696    83A      0.848276
      84A      0.850655    85A      0.873250    86A      0.880816
      87A      0.883150    88A      0.883787    89A      0.891118
      90A      0.899461    91A      0.905624    92A      0.913836
      93A      0.927984    94A      0.936181    95A      0.941068
      96A      0.947525    97A      0.955053    98A      0.965174
      99A      0.989930   100A      1.021605   101A      1.053397
     102A      1.058816   103A      1.109217   104A      1.118792
     105A      1.129826   106A      1.145463   107A      1.156871
     108A      1.195457   109A      1.201699   110A      1.240346
     111A      1.253079   112A      1.260702   113A      1.284409
     114A      1.287138   115A      1.307085   116A      1.311910
     117A      1.325564   118A      1.356115   119A      1.360789
     120A      1.393217   121A      1.463690   122A      1.480077
     123A      1.495937   124A      1.512697   125A      1.529569
     126A      1.554713   127A      1.582846   128A      1.619576
     129A      1.625454   130A      1.685961   131A      1.686403
     132A      1.696060   133A      1.706904   134A      1.733398
     135A      1.747022   136A      1.782388   137A      1.799101
     138A      1.808646   139A      1.854234   140A      1.861751
     141A      1.870673   142A      1.885978   143A      1.895062
     144A      1.905670   145A      1.915809   146A      1.919385
     147A      1.925193   148A      1.941521   149A      1.943244
     150A      1.951498   151A      1.953383   152A      1.961793
     153A      1.967448   154A      1.979092   155A      1.989737
     156A      1.995233   157A      2.033804   158A      2.047998
     159A      2.055143   160A      2.068359   161A      2.078698
     162A      2.116447   163A      2.139857   164A      2.147839
     165A      2.167208   166A      2.177302   167A      2.209892
     168A      2.231461   169A      2.263592   170A      2.276235
     171A      2.301778   172A      2.315663   173A      2.323109
     174A      2.326777   175A      2.367115   176A      2.425093
     177A      2.429996   178A      2.451531   179A      2.462078
     180A      2.482590   181A      2.499154   182A      2.534319
     183A      2.543706   184A      2.576754   185A      2.599371
     186A      2.607755   187A      2.662418   188A      2.757829
     189A      2.768238   190A      2.777529   191A      2.790012
     192A      2.801683   193A      2.817749   194A      2.843672
     195A      2.849618   196A      2.881337   197A      2.905379
     198A      2.948169   199A      2.960305   200A      2.968708
     201A      3.007157   202A      3.093764   203A      3.116782
     204A      3.252778   205A      3.293148   206A      3.346735
     207A      3.578371   208A      3.664755   209A      4.005341
     210A      4.185950

    Final Occupation by Irrep:
              A
    DOCC [    38 ]

  @RHF Final Energy:  -423.85242901199211

   => Energetics <=

    Nuclear Repulsion Energy =            492.9392593388832893
    One-Electron Energy =               -1551.4826398797681577
    Two-Electron Energy =                 634.6909515288926968
    Total Energy =                       -423.8524290119920579

Computation Completed

Properties will be evaluated at   0.000000,   0.000000,   0.000000 [a0]

Properties computed using the SCF density matrix

  Nuclear Dipole Moment: [e a0]
     X:    14.2266      Y:     0.1449      Z:     4.4953

  Electronic Dipole Moment: [e a0]
     X:   -13.6928      Y:    -0.1397      Z:    -4.5884

  Dipole Moment: [e a0]
     X:     0.5338      Y:     0.0053      Z:    -0.0932     Total:     0.5419

  Dipole Moment: [D]
     X:     1.3567      Y:     0.0133      Z:    -0.2368     Total:     1.3773

*** tstop() called on ds3 at Mon Apr 27 07:51:08 2020
Module time:
	user time   =      87.48 seconds =       1.46 minutes
	system time =      38.43 seconds =       0.64 minutes
	total time  =        120 seconds =       2.00 minutes
Total time:
	user time   =      87.48 seconds =       1.46 minutes
	system time =      38.43 seconds =       0.64 minutes
	total time  =        120 seconds =       2.00 minutes
                                     G D M A

                                 by Anthony Stone

                           version 2.2.06, 22 June 2011

               Distributed Multipoles from Gaussian wavefunctions

Starting at 7:51:8 on 27 Apr 2020

Using SCF density matrix from file ./SSI/SSI-173TYR-245ILE-1-dimer.test.32709.fchk

                         Distributed Multipole Analysis

Standard DMA

Positions and radii in angstrom
Multipole moments in atomic units, ea_0^k for rank k

C          x =  0.369303  y = -2.912419  z = -1.427722 angstrom
           Maximum rank =  0   Radius =  0.650 angstrom
                   Q00  =  -0.197601

C          x = -0.089697  y =  0.685581  z = -0.335722 angstrom
           Maximum rank =  0   Radius =  0.650 angstrom
                   Q00  =  -0.184596

C          x =  0.493303  y = -0.500419  z = -0.770722 angstrom
           Maximum rank =  0   Radius =  0.650 angstrom
                   Q00  =   0.063102

C          x = -1.438697  y =  0.742581  z = -0.104722 angstrom
           Maximum rank =  0   Radius =  0.650 angstrom
                   Q00  =   0.289466

C          x = -0.272697  y = -1.650419  z = -0.942722 angstrom
           Maximum rank =  0   Radius =  0.650 angstrom
                   Q00  =  -0.139689

C          x = -2.221697  y = -0.404419  z = -0.246722 angstrom
           Maximum rank =  0   Radius =  0.650 angstrom
                   Q00  =  -0.103977

C          x = -1.634697  y = -1.594419  z = -0.681722 angstrom
           Maximum rank =  0   Radius =  0.650 angstrom
                   Q00  =  -0.049001

O          x = -1.968697  y =  1.934581  z =  0.302278 angstrom
           Maximum rank =  0   Radius =  0.650 angstrom
                   Q00  =  -0.653468

H          x =  0.522303  y =  1.565581  z = -0.200722 angstrom
           Maximum rank =  0   Radius =  0.325 angstrom
                   Q00  =   0.065500

H          x =  1.554303  y = -0.555419  z = -0.949722 angstrom
           Maximum rank =  0   Radius =  0.325 angstrom
                   Q00  =   0.066941

H          x = -1.298697  y =  2.622581  z =  0.368278 angstrom
           Maximum rank =  0   Radius =  0.325 angstrom
                   Q00  =   0.407446

H          x = -3.277697  y = -0.357419  z = -0.027722 angstrom
           Maximum rank =  0   Radius =  0.325 angstrom
                   Q00  =   0.082764

H          x = -0.215697  y = -3.761419  z = -1.073722 angstrom
           Maximum rank =  0   Radius =  0.325 angstrom
                   Q00  =   0.095031

H          x =  1.355303  y = -2.990419  z = -0.964722 angstrom
           Maximum rank =  0   Radius =  0.325 angstrom
                   Q00  =   0.092976

H          x = -2.245697  y = -2.477419  z = -0.808722 angstrom
           Maximum rank =  0   Radius =  0.325 angstrom
                   Q00  =   0.064944

H          x =  0.488423  y = -2.992309  z = -2.518331 angstrom
           Maximum rank =  0   Radius =  0.325 angstrom
                   Q00  =   0.100960

C          x =  2.599303  y =  1.263581  z =  2.382278 angstrom
           Maximum rank =  0   Radius =  0.650 angstrom
                   Q00  =  -0.236912

C          x =  3.544303  y =  1.779581  z =  1.322278 angstrom
           Maximum rank =  0   Radius =  0.650 angstrom
                   Q00  =  -0.239202

H          x =  2.154303  y =  2.087581  z =  2.941278 angstrom
           Maximum rank =  0   Radius =  0.325 angstrom
                   Q00  =   0.076532

H          x =  1.801303  y =  0.696581  z =  1.902278 angstrom
           Maximum rank =  0   Radius =  0.325 angstrom
                   Q00  =   0.090658

H          x =  3.115303  y =  0.583581  z =  3.051278 angstrom
           Maximum rank =  0   Radius =  0.325 angstrom
                   Q00  =   0.079037

H          x =  2.915303  y =  2.151581  z =  0.513278 angstrom
           Maximum rank =  0   Radius =  0.325 angstrom
                   Q00  =   0.066113

H          x =  4.132303  y =  0.957581  z =  0.916278 angstrom
           Maximum rank =  0   Radius =  0.325 angstrom
                   Q00  =   0.080168

H          x =  4.184513  y =  2.614011  z =  1.644538 angstrom
           Maximum rank =  0   Radius =  0.325 angstrom
                   Q00  =   0.082809

Total multipoles referred to origin at
           x =   0.000000,  y =    0.000000,  z =    0.000000 angstrom
                   Q00  =  -0.000000

Finished at 7:51:8 on 27 Apr 2020

  DMA results are available in the Python driver through the
	  variable('DMA DISTRIBUTED MULTIPOLES')
  and
	  variable('DMA TOTAL MULTIPOLES')
  commands.

    Psi4 stopped on: Monday, 27 April 2020 07:51AM
    Psi4 wall time for execution: 0:02:00.35

*** Psi4 exiting successfully. Buy a developer a beer!
