                               Psi4 1.3.2 release

  ==> Input File <==

--------------------------------------------------------------------------
import numpy as np
set {scf_type pk
basis cc-pvdz
d_convergence 10
gdma_switch   0
gdma_limit    0
gdma_origin   [ 0.0,  0.0,  0.0 ]
}
molecule test {
    units Angstrom
    0 1
    --
    0 1
    C               -1.217240943443763    -2.535928227470059     3.338867062349316
    C               -0.716240943443763    -1.003928227470060     1.429867062349317
    N               -0.849240943443763    -0.764928227470060     0.150867062349317
    N               -1.295240943443764    -2.082928227470060     1.939867062349317
    N                0.007759056556237    -0.183928227470060     2.155867062349317
    H               -1.409240943443763    -1.373928227470060    -0.432132937650684
    H               -0.391240943443763     0.048071772529940    -0.280132937650684
    H               -1.779240943443763    -2.678928227470060     1.271867062349316
    H                0.116759056556237    -0.335928227470060     3.145867062349316
    H                0.437759056556237     0.623071772529940     1.725867062349316
    H               -0.300240943443763    -2.183928227470060     3.815867062349317
    H               -1.187240943443764    -3.627928227470060     3.353867062349316
    H               -2.088050943443764    -2.199788227470060     3.920842162349316
    C                1.414759056556236     2.960071772529941    -2.636132937650684
    C                1.015759056556237     1.567071772529940    -2.231132937650684
    O                0.350759056556237     1.422071772529940    -1.179132937650683
    O                1.272759056556236     0.607071772529940    -2.992132937650683
    H                1.761759056556236     2.979071772529940    -3.669132937650684
    H                2.255759056556237     3.248071772529940    -2.003132937650683
    H                0.587059056556237     3.667381772529940    -2.479192937650684

}
e, wfn = energy('scf', return_wfn=True)
gdma(wfn)
dmavals = variable('DMA DISTRIBUTED MULTIPOLES')
charges = np.array(dmavals)
print(charges)
np.save('SSI-027ARG-094ASP-1-dimer.npy', np.array(charges))--------------------------------------------------------------------------

*** tstart() called on ds3
*** at Sun Apr 26 18:06:19 2020

   => Loading Basis Set <=

    Name: CC-PVDZ
    Role: ORBITAL
    Keyword: BASIS
    atoms 1-2, 14-15  entry C          line   138 file /theoryfs2/ds/metcalf/miniconda2/envs/tf2gpu/share/psi4/basis/cc-pvdz.gbs
    atoms 3-5         entry N          line   168 file /theoryfs2/ds/metcalf/miniconda2/envs/tf2gpu/share/psi4/basis/cc-pvdz.gbs
    atoms 6-13, 18-20 entry H          line    22 file /theoryfs2/ds/metcalf/miniconda2/envs/tf2gpu/share/psi4/basis/cc-pvdz.gbs
    atoms 16-17       entry O          line   198 file /theoryfs2/ds/metcalf/miniconda2/envs/tf2gpu/share/psi4/basis/cc-pvdz.gbs

         ---------------------------------------------------------
                                   SCF
               by Justin Turney, Rob Parrish, Andy Simmonett
                          and Daniel G. A. Smith
                              RHF Reference
                        1 Threads,    500 MiB Core
         ---------------------------------------------------------

  ==> Geometry <==

    Molecular point group: c1
    Full point group: C1

    Geometry (in Angstrom), charge = 0, multiplicity = 1:

       Center              X                  Y                   Z               Mass
    ------------   -----------------  -----------------  -----------------  -----------------
         C           -1.217240943444    -2.535928227470     3.338867062349    12.000000000000
         C           -0.716240943444    -1.003928227470     1.429867062349    12.000000000000
         N           -0.849240943444    -0.764928227470     0.150867062349    14.003074004430
         N           -1.295240943444    -2.082928227470     1.939867062349    14.003074004430
         N            0.007759056556    -0.183928227470     2.155867062349    14.003074004430
         H           -1.409240943444    -1.373928227470    -0.432132937651     1.007825032230
         H           -0.391240943444     0.048071772530    -0.280132937651     1.007825032230
         H           -1.779240943444    -2.678928227470     1.271867062349     1.007825032230
         H            0.116759056556    -0.335928227470     3.145867062349     1.007825032230
         H            0.437759056556     0.623071772530     1.725867062349     1.007825032230
         H           -0.300240943444    -2.183928227470     3.815867062349     1.007825032230
         H           -1.187240943444    -3.627928227470     3.353867062349     1.007825032230
         H           -2.088050943444    -2.199788227470     3.920842162349     1.007825032230
         C            1.414759056556     2.960071772530    -2.636132937651    12.000000000000
         C            1.015759056556     1.567071772530    -2.231132937651    12.000000000000
         O            0.350759056556     1.422071772530    -1.179132937651    15.994914619570
         O            1.272759056556     0.607071772530    -2.992132937651    15.994914619570
         H            1.761759056556     2.979071772530    -3.669132937651     1.007825032230
         H            2.255759056556     3.248071772530    -2.003132937651     1.007825032230
         H            0.587059056556     3.667381772530    -2.479192937651     1.007825032230

  Running in c1 symmetry.

  Rotational constants: A =      0.16795  B =      0.01502  C =      0.01422 [cm^-1]
  Rotational constants: A =   5035.14121  B =    450.14022  C =    426.30359 [MHz]
  Nuclear repulsion =  438.854902651172551

  Charge       = 0
  Multiplicity = 1
  Electrons    = 72
  Nalpha       = 36
  Nbeta        = 36

  ==> Algorithm <==

  SCF Algorithm Type is PK.
  DIIS enabled.
  MOM disabled.
  Fractional occupation disabled.
  Guess Type is SAD.
  Energy threshold   = 1.00e-06
  Density threshold  = 1.00e-10
  Integral threshold = 0.00e+00

  ==> Primary Basis <==

  Basis Set: CC-PVDZ
    Blend: CC-PVDZ
    Number of shells: 87
    Number of basis function: 181
    Number of Cartesian functions: 190
    Spherical Harmonics?: true
    Max angular momentum: 2

  ==> Pre-Iterations <==

   -------------------------------------------------------
    Irrep   Nso     Nmo     Nalpha   Nbeta   Ndocc  Nsocc
   -------------------------------------------------------
     A        181     181       0       0       0       0
   -------------------------------------------------------
    Total     181     181      36      36      36       0
   -------------------------------------------------------

  ==> Integral Setup <==

  Using integral reordering PK algorithm.
  Sizing the integral batches needed.
  Building batch lookup table.
   Calculation information:
      Number of atoms:                  20
      Number of AO shells:              87
      Number of primitives:            253
      Number of atomic orbitals:       190
      Number of basis functions:       181

      Integral cutoff                 1.00e-12
      Number of threads:                 1

	Batch   1 pq = [       0,    9405] index = [             0,44231715] size =     44231715
	Batch   2 pq = [    9405,   13301] index = [      44231715,88464951] size =     44233236
	Batch   3 pq = [   13301,   16471] index = [      88464951,135655156] size =     47190205
  Task number: 13
  Buffer size: 11059200
  Buffer per thread: 2
  We computed 4928565 shell quartets total.
  Whereas there are 7328706 unique shell quartets.

  ==> DiskJK: Disk-Based J/K Matrices <==

    J tasked:                  Yes
    K tasked:                  Yes
    wK tasked:                  No
    Memory [MiB]:              375
    Schwarz Cutoff:          1E-12

    OpenMP threads:              1

  Minimum eigenvalue in the overlap matrix is 3.7666527453E-03.
  Using Symmetric Orthogonalization.

  SCF Guess: Superposition of Atomic Densities via on-the-fly atomic UHF.

  ==> Iterations <==

                        Total Energy        Delta E     RMS |[F,P]|

   @RHF iter SAD:  -469.70076548891535   -4.69701e+02   0.00000e+00
   @RHF iter   1:  -470.68480728578055   -9.84042e-01   4.25862e-03 DIIS
   @RHF iter   2:  -470.91237473198561   -2.27567e-01   2.23971e-03 DIIS
   @RHF iter   3:  -470.97170040551947   -5.93257e-02   3.97693e-04 DIIS
   @RHF iter   4:  -470.97500909884388   -3.30869e-03   1.47588e-04 DIIS
   @RHF iter   5:  -470.97543593664852   -4.26838e-04   2.94779e-05 DIIS
   @RHF iter   6:  -470.97546003510803   -2.40985e-05   1.56029e-05 DIIS
   @RHF iter   7:  -470.97546495452036   -4.91941e-06   3.86381e-06 DIIS
   @RHF iter   8:  -470.97546570322453   -7.48704e-07   1.75774e-06 DIIS
   @RHF iter   9:  -470.97546582233747   -1.19113e-07   6.21857e-07 DIIS
   @RHF iter  10:  -470.97546584333196   -2.09945e-08   1.96175e-07 DIIS
   @RHF iter  11:  -470.97546584513384   -1.80188e-09   4.84200e-08 DIIS
   @RHF iter  12:  -470.97546584521302   -7.91829e-11   1.79786e-08 DIIS
   @RHF iter  13:  -470.97546584522502   -1.19940e-11   5.75945e-09 DIIS
   @RHF iter  14:  -470.97546584522388    1.13687e-12   1.68254e-09 DIIS
   @RHF iter  15:  -470.97546584522684   -2.95586e-12   6.76418e-10 DIIS
   @RHF iter  16:  -470.97546584522593    9.09495e-13   2.05685e-10 DIIS
   @RHF iter  17:  -470.97546584522502    9.09495e-13   6.38558e-11 DIIS
  Energy and wave function converged.

  ==> Post-Iterations <==

    Orbital Energies [Eh]
    ---------------------

    Doubly Occupied:

       1A    -20.403071     2A    -20.381863     3A    -15.664781
       4A    -15.654828     5A    -15.617587     6A    -11.448024
       7A    -11.345121     8A    -11.242294     9A    -11.154265
      10A     -1.410752    11A     -1.283434    12A     -1.275279
      13A     -1.240996    14A     -1.165763    15A     -1.028555
      16A     -0.909148    17A     -0.906532    18A     -0.841709
      19A     -0.792964    20A     -0.729010    21A     -0.706351
      22A     -0.702682    23A     -0.673107    24A     -0.628466
      25A     -0.624688    26A     -0.618432    27A     -0.534018
      28A     -0.524525    29A     -0.521634    30A     -0.479953
      31A     -0.461398    32A     -0.450378    33A     -0.427555
      34A     -0.322383    35A     -0.297699    36A     -0.295128

    Virtual:

      37A      0.110241    38A      0.133037    39A      0.161670
      40A      0.171951    41A      0.198319    42A      0.212333
      43A      0.223774    44A      0.243194    45A      0.260853
      46A      0.282264    47A      0.294326    48A      0.325521
      49A      0.367016    50A      0.385526    51A      0.407463
      52A      0.459569    53A      0.470933    54A      0.472525
      55A      0.538398    56A      0.566391    57A      0.582803
      58A      0.615205    59A      0.628019    60A      0.663154
      61A      0.670469    62A      0.690600    63A      0.699377
      64A      0.704775    65A      0.720600    66A      0.772629
      67A      0.776651    68A      0.790007    69A      0.802868
      70A      0.819656    71A      0.828572    72A      0.856458
      73A      0.865425    74A      0.874938    75A      0.908238
      76A      0.925591    77A      0.931916    78A      0.934372
      79A      0.942864    80A      0.969196    81A      0.981931
      82A      0.998442    83A      1.021377    84A      1.031503
      85A      1.043064    86A      1.105135    87A      1.109194
      88A      1.128058    89A      1.188433    90A      1.227920
      91A      1.238788    92A      1.256469    93A      1.259923
      94A      1.285324    95A      1.320160    96A      1.327779
      97A      1.354106    98A      1.385764    99A      1.422446
     100A      1.442770   101A      1.466957   102A      1.475138
     103A      1.502814   104A      1.515565   105A      1.535291
     106A      1.577192   107A      1.610477   108A      1.618253
     109A      1.632721   110A      1.652433   111A      1.659734
     112A      1.696910   113A      1.737427   114A      1.746978
     115A      1.776335   116A      1.818141   117A      1.837440
     118A      1.846242   119A      1.850553   120A      1.869381
     121A      1.894513   122A      1.907300   123A      1.916326
     124A      1.930647   125A      1.970112   126A      1.971650
     127A      1.980138   128A      2.003975   129A      2.007805
     130A      2.073639   131A      2.097395   132A      2.119690
     133A      2.148607   134A      2.165295   135A      2.189923
     136A      2.226702   137A      2.237530   138A      2.262202
     139A      2.284809   140A      2.325282   141A      2.329622
     142A      2.379374   143A      2.409856   144A      2.431931
     145A      2.450486   146A      2.454611   147A      2.492747
     148A      2.508654   149A      2.556294   150A      2.569947
     151A      2.603528   152A      2.625100   153A      2.674726
     154A      2.677784   155A      2.699223   156A      2.712140
     157A      2.753918   158A      2.817585   159A      2.844564
     160A      2.853009   161A      2.888786   162A      2.889094
     163A      2.922382   164A      2.973643   165A      2.992050
     166A      3.018658   167A      3.106949   168A      3.139799
     169A      3.160261   170A      3.185482   171A      3.210880
     172A      3.252585   173A      3.308355   174A      3.506096
     175A      3.647207   176A      3.688475   177A      3.720874
     178A      3.820377   179A      3.943485   180A      3.963869
     181A      4.090778

    Final Occupation by Irrep:
              A
    DOCC [    36 ]

  @RHF Final Energy:  -470.97546584522502

   => Energetics <=

    Nuclear Repulsion Energy =            438.8549026511725515
    One-Electron Energy =               -1514.1319912447561364
    Two-Electron Energy =                 604.3016227483585681
    Total Energy =                       -470.9754658452250169

Computation Completed

Properties will be evaluated at   0.000000,   0.000000,   0.000000 [a0]

Properties computed using the SCF density matrix

  Nuclear Dipole Moment: [e a0]
     X:    -1.8573      Y:    -1.7015      Z:     7.8147

  Electronic Dipole Moment: [e a0]
     X:    -0.3788      Y:    -1.2614      Z:    -2.1930

  Dipole Moment: [e a0]
     X:    -2.2362      Y:    -2.9629      Z:     5.6217     Total:     6.7367

  Dipole Moment: [D]
     X:    -5.6837      Y:    -7.5309      Z:    14.2889     Total:    17.1229

*** tstop() called on ds3 at Sun Apr 26 18:07:17 2020
Module time:
	user time   =      39.16 seconds =       0.65 minutes
	system time =      20.24 seconds =       0.34 minutes
	total time  =         58 seconds =       0.97 minutes
Total time:
	user time   =      39.16 seconds =       0.65 minutes
	system time =      20.24 seconds =       0.34 minutes
	total time  =         58 seconds =       0.97 minutes
                                     G D M A

                                 by Anthony Stone

                           version 2.2.06, 22 June 2011

               Distributed Multipoles from Gaussian wavefunctions

Starting at 18:7:17 on 26 Apr 2020

Using SCF density matrix from file ./SSI/SSI-027ARG-094ASP-1-dimer.test.20173.fchk

                         Distributed Multipole Analysis

Standard DMA

Positions and radii in angstrom
Multipole moments in atomic units, ea_0^k for rank k

C          x = -1.217241  y = -2.535928  z =  3.338867 angstrom
           Maximum rank =  0   Radius =  0.650 angstrom
                   Q00  =  -0.108942

C          x = -0.716241  y = -1.003928  z =  1.429867 angstrom
           Maximum rank =  0   Radius =  0.650 angstrom
                   Q00  =   1.075939

N          x = -0.849241  y = -0.764928  z =  0.150867 angstrom
           Maximum rank =  0   Radius =  0.650 angstrom
                   Q00  =  -0.597572

N          x = -1.295241  y = -2.082928  z =  1.939867 angstrom
           Maximum rank =  0   Radius =  0.650 angstrom
                   Q00  =  -0.513065

N          x =  0.007759  y = -0.183928  z =  2.155867 angstrom
           Maximum rank =  0   Radius =  0.650 angstrom
                   Q00  =  -0.573548

H          x = -1.409241  y = -1.373928  z = -0.432133 angstrom
           Maximum rank =  0   Radius =  0.325 angstrom
                   Q00  =   0.238899

H          x = -0.391241  y =  0.048072  z = -0.280133 angstrom
           Maximum rank =  0   Radius =  0.325 angstrom
                   Q00  =   0.363773

H          x = -1.779241  y = -2.678928  z =  1.271867 angstrom
           Maximum rank =  0   Radius =  0.325 angstrom
                   Q00  =   0.219494

H          x =  0.116759  y = -0.335928  z =  3.145867 angstrom
           Maximum rank =  0   Radius =  0.325 angstrom
                   Q00  =   0.238293

H          x =  0.437759  y =  0.623072  z =  1.725867 angstrom
           Maximum rank =  0   Radius =  0.325 angstrom
                   Q00  =   0.279661

H          x = -0.300241  y = -2.183928  z =  3.815867 angstrom
           Maximum rank =  0   Radius =  0.325 angstrom
                   Q00  =   0.106407

H          x = -1.187241  y = -3.627928  z =  3.353867 angstrom
           Maximum rank =  0   Radius =  0.325 angstrom
                   Q00  =   0.136554

H          x = -2.088051  y = -2.199788  z =  3.920842 angstrom
           Maximum rank =  0   Radius =  0.325 angstrom
                   Q00  =   0.114568

C          x =  1.414759  y =  2.960072  z = -2.636133 angstrom
           Maximum rank =  0   Radius =  0.650 angstrom
                   Q00  =  -0.266525

C          x =  1.015759  y =  1.567072  z = -2.231133 angstrom
           Maximum rank =  0   Radius =  0.650 angstrom
                   Q00  =   0.939740

O          x =  0.350759  y =  1.422072  z = -1.179133 angstrom
           Maximum rank =  0   Radius =  0.650 angstrom
                   Q00  =  -1.005710

O          x =  1.272759  y =  0.607072  z = -2.992133 angstrom
           Maximum rank =  0   Radius =  0.650 angstrom
                   Q00  =  -0.897146

H          x =  1.761759  y =  2.979072  z = -3.669133 angstrom
           Maximum rank =  0   Radius =  0.325 angstrom
                   Q00  =   0.082794

H          x =  2.255759  y =  3.248072  z = -2.003133 angstrom
           Maximum rank =  0   Radius =  0.325 angstrom
                   Q00  =   0.086653

H          x =  0.587059  y =  3.667382  z = -2.479193 angstrom
           Maximum rank =  0   Radius =  0.325 angstrom
                   Q00  =   0.079733

Total multipoles referred to origin at
           x =   0.000000,  y =    0.000000,  z =    0.000000 angstrom
                   Q00  =  -0.000000

Finished at 18:7:17 on 26 Apr 2020

  DMA results are available in the Python driver through the
	  variable('DMA DISTRIBUTED MULTIPOLES')
  and
	  variable('DMA TOTAL MULTIPOLES')
  commands.

    Psi4 stopped on: Sunday, 26 April 2020 06:07PM
    Psi4 wall time for execution: 0:00:57.85

*** Psi4 exiting successfully. Buy a developer a beer!
