                               Psi4 1.3.2 release

  ==> Input File <==

--------------------------------------------------------------------------
import numpy as np
set {scf_type pk
basis cc-pvdz
d_convergence 10
gdma_switch   0
gdma_limit    0
gdma_origin   [ 0.0,  0.0,  0.0 ]
}
molecule test {
    units Angstrom
    0 1
    --
    0 1
    C                0.718849339440916    -0.301380135671684    -3.315606640790656
    C                0.676849339440916     0.266619864328316     0.281393359209343
    C                0.696849339440916    -0.425380135671684    -1.811606640790657
    C                0.709849339440916    -1.523380135671684    -0.998606640790657
    N                0.664849339440916     0.674619864328316    -0.982606640790657
    N                0.700849339440916    -1.061380135671684     0.300393359209343
    H                0.670849339440916     0.912619864328316     1.152393359209343
    H                0.685849339440916    -1.639380135671684     1.139393359209343
    H                0.728849339440916    -2.556380135671684    -1.308606640790657
    H                1.596849339440916    -0.830380135671684    -3.681606640790656
    H                0.825849339440916     0.750619864328316    -3.583606640790657
    H               -0.173960660559084    -0.713170135671684    -3.808886640790657
    C               -1.703150660559084     0.444619864328316     2.686393359209343
    C               -2.095150660559084     1.772619864328316     3.300393359209343
    H               -2.339150660559084    -0.355380135671684     3.055393359209343
    H               -1.838150660559084     0.489619864328316     1.605393359209343
    H               -0.662150660559084     0.216619864328316     2.914393359209343
    H               -3.174150660559084     1.885619864328316     3.201393359209344
    H               -1.814750660559084     1.839859864328316     4.361923359209343
    H               -1.623370660559084     2.590659864328316     2.736275359209344

}
e, wfn = energy('scf', return_wfn=True)
gdma(wfn)
dmavals = variable('DMA DISTRIBUTED MULTIPOLES')
charges = np.array(dmavals)
print(charges)
np.save('SSI-031HIE-109LEU-1-dimer.npy', np.array(charges))--------------------------------------------------------------------------

*** tstart() called on ds3
*** at Tue Apr 28 15:34:47 2020

   => Loading Basis Set <=

    Name: CC-PVDZ
    Role: ORBITAL
    Keyword: BASIS
    atoms 1-4, 13-14  entry C          line   138 file /theoryfs2/ds/metcalf/miniconda2/envs/tf2gpu/share/psi4/basis/cc-pvdz.gbs
    atoms 5-6         entry N          line   168 file /theoryfs2/ds/metcalf/miniconda2/envs/tf2gpu/share/psi4/basis/cc-pvdz.gbs
    atoms 7-12, 15-20 entry H          line    22 file /theoryfs2/ds/metcalf/miniconda2/envs/tf2gpu/share/psi4/basis/cc-pvdz.gbs

         ---------------------------------------------------------
                                   SCF
               by Justin Turney, Rob Parrish, Andy Simmonett
                          and Daniel G. A. Smith
                              RHF Reference
                        1 Threads,    500 MiB Core
         ---------------------------------------------------------

  ==> Geometry <==

    Molecular point group: c1
    Full point group: C1

    Geometry (in Angstrom), charge = 0, multiplicity = 1:

       Center              X                  Y                   Z               Mass
    ------------   -----------------  -----------------  -----------------  -----------------
         C            0.718849339441    -0.301380135672    -3.315606640791    12.000000000000
         C            0.676849339441     0.266619864328     0.281393359209    12.000000000000
         C            0.696849339441    -0.425380135672    -1.811606640791    12.000000000000
         C            0.709849339441    -1.523380135672    -0.998606640791    12.000000000000
         N            0.664849339441     0.674619864328    -0.982606640791    14.003074004430
         N            0.700849339441    -1.061380135672     0.300393359209    14.003074004430
         H            0.670849339441     0.912619864328     1.152393359209     1.007825032230
         H            0.685849339441    -1.639380135672     1.139393359209     1.007825032230
         H            0.728849339441    -2.556380135672    -1.308606640791     1.007825032230
         H            1.596849339441    -0.830380135672    -3.681606640791     1.007825032230
         H            0.825849339441     0.750619864328    -3.583606640791     1.007825032230
         H           -0.173960660559    -0.713170135672    -3.808886640791     1.007825032230
         C           -1.703150660559     0.444619864328     2.686393359209    12.000000000000
         C           -2.095150660559     1.772619864328     3.300393359209    12.000000000000
         H           -2.339150660559    -0.355380135672     3.055393359209     1.007825032230
         H           -1.838150660559     0.489619864328     1.605393359209     1.007825032230
         H           -0.662150660559     0.216619864328     2.914393359209     1.007825032230
         H           -3.174150660559     1.885619864328     3.201393359209     1.007825032230
         H           -1.814750660559     1.839859864328     4.361923359209     1.007825032230
         H           -1.623370660559     2.590659864328     2.736275359209     1.007825032230

  Running in c1 symmetry.

  Rotational constants: A =      0.15289  B =      0.02366  C =      0.02202 [cm^-1]
  Rotational constants: A =   4583.48019  B =    709.24410  C =    660.18361 [MHz]
  Nuclear repulsion =  351.046616400074470

  Charge       = 0
  Multiplicity = 1
  Electrons    = 62
  Nalpha       = 31
  Nbeta        = 31

  ==> Algorithm <==

  SCF Algorithm Type is PK.
  DIIS enabled.
  MOM disabled.
  Fractional occupation disabled.
  Guess Type is SAD.
  Energy threshold   = 1.00e-06
  Density threshold  = 1.00e-10
  Integral threshold = 0.00e+00

  ==> Primary Basis <==

  Basis Set: CC-PVDZ
    Blend: CC-PVDZ
    Number of shells: 84
    Number of basis function: 172
    Number of Cartesian functions: 180
    Spherical Harmonics?: true
    Max angular momentum: 2

  ==> Pre-Iterations <==

   -------------------------------------------------------
    Irrep   Nso     Nmo     Nalpha   Nbeta   Ndocc  Nsocc
   -------------------------------------------------------
     A        172     172       0       0       0       0
   -------------------------------------------------------
    Total     172     172      31      31      31       0
   -------------------------------------------------------

  ==> Integral Setup <==

  Using integral reordering PK algorithm.
  Sizing the integral batches needed.
  Building batch lookup table.
   Calculation information:
      Number of atoms:                  20
      Number of AO shells:              84
      Number of primitives:            236
      Number of atomic orbitals:       180
      Number of basis functions:       172

      Integral cutoff                 1.00e-12
      Number of threads:                 1

	Batch   1 pq = [       0,    9405] index = [             0,44231715] size =     44231715
	Batch   2 pq = [    9405,   13301] index = [      44231715,88464951] size =     44233236
	Batch   3 pq = [   13301,   14878] index = [      88464951,110684881] size =     22219930
  Task number: 11
  Buffer size: 11059200
  Buffer per thread: 2
  We computed 4945282 shell quartets total.
  Whereas there are 6374235 unique shell quartets.

  ==> DiskJK: Disk-Based J/K Matrices <==

    J tasked:                  Yes
    K tasked:                  Yes
    wK tasked:                  No
    Memory [MiB]:              375
    Schwarz Cutoff:          1E-12

    OpenMP threads:              1

  Minimum eigenvalue in the overlap matrix is 1.2298292153E-03.
  Using Symmetric Orthogonalization.

  SCF Guess: Superposition of Atomic Densities via on-the-fly atomic UHF.

  ==> Iterations <==

                        Total Energy        Delta E     RMS |[F,P]|

   @RHF iter SAD:  -342.21466740375433   -3.42215e+02   0.00000e+00
   @RHF iter   1:  -342.88496226196378   -6.70295e-01   3.36317e-03 DIIS
   @RHF iter   2:  -343.05718299218279   -1.72221e-01   1.70413e-03 DIIS
   @RHF iter   3:  -343.09784365410263   -4.06607e-02   4.34841e-04 DIIS
   @RHF iter   4:  -343.10133532570774   -3.49167e-03   1.82409e-04 DIIS
   @RHF iter   5:  -343.10190086429020   -5.65539e-04   2.65281e-05 DIIS
   @RHF iter   6:  -343.10192166077627   -2.07965e-05   1.13855e-05 DIIS
   @RHF iter   7:  -343.10192500060964   -3.33983e-06   3.98629e-06 DIIS
   @RHF iter   8:  -343.10192570908765   -7.08478e-07   1.58039e-06 DIIS
   @RHF iter   9:  -343.10192586198951   -1.52902e-07   5.66502e-07 DIIS
   @RHF iter  10:  -343.10192587735969   -1.53702e-08   1.76228e-07 DIIS
   @RHF iter  11:  -343.10192587915185   -1.79216e-09   8.13136e-08 DIIS
   @RHF iter  12:  -343.10192587940156   -2.49713e-10   3.15032e-08 DIIS
   @RHF iter  13:  -343.10192587944442   -4.28599e-11   8.88777e-09 DIIS
   @RHF iter  14:  -343.10192587944852   -4.09273e-12   3.22490e-09 DIIS
   @RHF iter  15:  -343.10192587944960   -1.08002e-12   1.34366e-09 DIIS
   @RHF iter  16:  -343.10192587944937    2.27374e-13   4.29354e-10 DIIS
   @RHF iter  17:  -343.10192587944812    1.25056e-12   1.22553e-10 DIIS
   @RHF iter  18:  -343.10192587944925   -1.13687e-12   4.58670e-11 DIIS
  Energy and wave function converged.

  ==> Post-Iterations <==

    Orbital Energies [Eh]
    ---------------------

    Doubly Occupied:

       1A    -15.620171     2A    -15.526057     3A    -11.288859
       4A    -11.248545     5A    -11.241712     6A    -11.222917
       7A    -11.222752     8A    -11.222272     9A     -1.338409
      10A     -1.150965    11A     -1.028897    12A     -1.025167
      13A     -0.938712    14A     -0.842940    15A     -0.814462
      16A     -0.760205    17A     -0.738268    18A     -0.612725
      19A     -0.606986    20A     -0.603656    21A     -0.597841
      22A     -0.593382    23A     -0.551247    24A     -0.537607
      25A     -0.518456    26A     -0.509947    27A     -0.492377
      28A     -0.487187    29A     -0.407812    30A     -0.377333
      31A     -0.305087

    Virtual:

      32A      0.164637    33A      0.179174    34A      0.188870
      35A      0.202682    36A      0.226630    37A      0.233542
      38A      0.238399    39A      0.248053    40A      0.253404
      41A      0.269156    42A      0.277161    43A      0.284503
      44A      0.299065    45A      0.319886    46A      0.376644
      47A      0.391084    48A      0.403705    49A      0.423430
      50A      0.485855    51A      0.490778    52A      0.591988
      53A      0.596532    54A      0.601561    55A      0.608797
      56A      0.642031    57A      0.657967    58A      0.663012
      59A      0.671401    60A      0.685219    61A      0.709529
      62A      0.732335    63A      0.755476    64A      0.774926
      65A      0.803974    66A      0.832576    67A      0.837071
      68A      0.849392    69A      0.878266    70A      0.881563
      71A      0.885243    72A      0.894376    73A      0.897017
      74A      0.905081    75A      0.914599    76A      0.924451
      77A      0.927764    78A      0.957404    79A      0.965814
      80A      0.969536    81A      0.985916    82A      1.026377
      83A      1.063135    84A      1.094026    85A      1.110420
      86A      1.116465    87A      1.135574    88A      1.146456
      89A      1.156380    90A      1.206059    91A      1.225480
      92A      1.243631    93A      1.273025    94A      1.301668
      95A      1.327965    96A      1.341678    97A      1.432470
      98A      1.449685    99A      1.464406   100A      1.476728
     101A      1.494983   102A      1.522970   103A      1.570407
     104A      1.597762   105A      1.623532   106A      1.655192
     107A      1.680702   108A      1.690437   109A      1.696497
     110A      1.719642   111A      1.791256   112A      1.810416
     113A      1.834536   114A      1.856813   115A      1.866173
     116A      1.882424   117A      1.899960   118A      1.906956
     119A      1.916444   120A      1.925835   121A      1.936484
     122A      1.939503   123A      1.946000   124A      1.949774
     125A      1.960157   126A      1.960848   127A      1.976424
     128A      1.986027   129A      2.029790   130A      2.079776
     131A      2.080853   132A      2.116985   133A      2.134754
     134A      2.152607   135A      2.205471   136A      2.237931
     137A      2.265875   138A      2.289311   139A      2.303745
     140A      2.313608   141A      2.359555   142A      2.369092
     143A      2.404905   144A      2.444138   145A      2.445049
     146A      2.469892   147A      2.487920   148A      2.564897
     149A      2.578810   150A      2.581716   151A      2.620135
     152A      2.670763   153A      2.732108   154A      2.756895
     155A      2.771661   156A      2.782522   157A      2.785737
     158A      2.797564   159A      2.816417   160A      2.843483
     161A      2.860245   162A      2.875426   163A      2.886653
     164A      2.932816   165A      2.958642   166A      2.967111
     167A      2.972374   168A      3.071028   169A      3.154592
     170A      3.229873   171A      3.466221   172A      3.795838

    Final Occupation by Irrep:
              A
    DOCC [    31 ]

  @RHF Final Energy:  -343.10192587944925

   => Energetics <=

    Nuclear Repulsion Energy =            351.0466164000744698
    One-Electron Energy =               -1159.4311782699091964
    Two-Electron Energy =                 465.2826359903854154
    Total Energy =                       -343.1019258794492544

Computation Completed

Properties will be evaluated at   0.000000,   0.000000,   0.000000 [a0]

Properties computed using the SCF density matrix

  Nuclear Dipole Moment: [e a0]
     X:    -6.6763      Y:     2.4300      Z:     7.2991

  Electronic Dipole Moment: [e a0]
     X:     6.6336      Y:    -3.4650      Z:    -6.4796

  Dipole Moment: [e a0]
     X:    -0.0427      Y:    -1.0349      Z:     0.8195     Total:     1.3208

  Dipole Moment: [D]
     X:    -0.1085      Y:    -2.6306      Z:     2.0830     Total:     3.3572

*** tstop() called on ds3 at Tue Apr 28 15:36:25 2020
Module time:
	user time   =      34.90 seconds =       0.58 minutes
	system time =      15.85 seconds =       0.26 minutes
	total time  =         98 seconds =       1.63 minutes
Total time:
	user time   =      34.90 seconds =       0.58 minutes
	system time =      15.85 seconds =       0.26 minutes
	total time  =         98 seconds =       1.63 minutes
                                     G D M A

                                 by Anthony Stone

                           version 2.2.06, 22 June 2011

               Distributed Multipoles from Gaussian wavefunctions

Starting at 15:36:25 on 28 Apr 2020

Using SCF density matrix from file ./SSI/SSI-031HIE-109LEU-1-dimer.test.2996.fchk

                         Distributed Multipole Analysis

Standard DMA

Positions and radii in angstrom
Multipole moments in atomic units, ea_0^k for rank k

C          x =  0.718849  y = -0.301380  z = -3.315607 angstrom
           Maximum rank =  0   Radius =  0.650 angstrom
                   Q00  =  -0.201694

C          x =  0.676849  y =  0.266620  z =  0.281393 angstrom
           Maximum rank =  0   Radius =  0.650 angstrom
                   Q00  =   0.459167

C          x =  0.696849  y = -0.425380  z = -1.811607 angstrom
           Maximum rank =  0   Radius =  0.650 angstrom
                   Q00  =   0.231010

C          x =  0.709849  y = -1.523380  z = -0.998607 angstrom
           Maximum rank =  0   Radius =  0.650 angstrom
                   Q00  =  -0.005442

N          x =  0.664849  y =  0.674620  z = -0.982607 angstrom
           Maximum rank =  0   Radius =  0.650 angstrom
                   Q00  =  -0.774185

N          x =  0.700849  y = -1.061380  z =  0.300393 angstrom
           Maximum rank =  0   Radius =  0.650 angstrom
                   Q00  =  -0.475426

H          x =  0.670849  y =  0.912620  z =  1.152393 angstrom
           Maximum rank =  0   Radius =  0.325 angstrom
                   Q00  =   0.124909

H          x =  0.685849  y = -1.639380  z =  1.139393 angstrom
           Maximum rank =  0   Radius =  0.325 angstrom
                   Q00  =   0.222355

H          x =  0.728849  y = -2.556380  z = -1.308607 angstrom
           Maximum rank =  0   Radius =  0.325 angstrom
                   Q00  =   0.098057

H          x =  1.596849  y = -0.830380  z = -3.681607 angstrom
           Maximum rank =  0   Radius =  0.325 angstrom
                   Q00  =   0.097900

H          x =  0.825849  y =  0.750620  z = -3.583607 angstrom
           Maximum rank =  0   Radius =  0.325 angstrom
                   Q00  =   0.123902

H          x = -0.173961  y = -0.713170  z = -3.808887 angstrom
           Maximum rank =  0   Radius =  0.325 angstrom
                   Q00  =   0.099192

C          x = -1.703151  y =  0.444620  z =  2.686393 angstrom
           Maximum rank =  0   Radius =  0.650 angstrom
                   Q00  =  -0.247072

C          x = -2.095151  y =  1.772620  z =  3.300393 angstrom
           Maximum rank =  0   Radius =  0.650 angstrom
                   Q00  =  -0.221975

H          x = -2.339151  y = -0.355380  z =  3.055393 angstrom
           Maximum rank =  0   Radius =  0.325 angstrom
                   Q00  =   0.079997

H          x = -1.838151  y =  0.489620  z =  1.605393 angstrom
           Maximum rank =  0   Radius =  0.325 angstrom
                   Q00  =   0.091870

H          x = -0.662151  y =  0.216620  z =  2.914393 angstrom
           Maximum rank =  0   Radius =  0.325 angstrom
                   Q00  =   0.057749

H          x = -3.174151  y =  1.885620  z =  3.201393 angstrom
           Maximum rank =  0   Radius =  0.325 angstrom
                   Q00  =   0.081805

H          x = -1.814751  y =  1.839860  z =  4.361923 angstrom
           Maximum rank =  0   Radius =  0.325 angstrom
                   Q00  =   0.078584

H          x = -1.623371  y =  2.590660  z =  2.736275 angstrom
           Maximum rank =  0   Radius =  0.325 angstrom
                   Q00  =   0.079297

Total multipoles referred to origin at
           x =   0.000000,  y =    0.000000,  z =    0.000000 angstrom
                   Q00  =  -0.000000

Finished at 15:36:25 on 28 Apr 2020

  DMA results are available in the Python driver through the
	  variable('DMA DISTRIBUTED MULTIPOLES')
  and
	  variable('DMA TOTAL MULTIPOLES')
  commands.

    Psi4 stopped on: Tuesday, 28 April 2020 03:36PM
    Psi4 wall time for execution: 0:01:38.66

*** Psi4 exiting successfully. Buy a developer a beer!
