                               Psi4 1.3.2 release

  ==> Input File <==

--------------------------------------------------------------------------
import numpy as np
set {scf_type pk
basis cc-pvdz
d_convergence 10
gdma_switch   0
gdma_limit    0
gdma_origin   [ 0.0,  0.0,  0.0 ]
}
molecule test {
    units Angstrom
    0 1
    --
    0 1
    C               -1.200906259170312     1.137377732443951     0.261983653711772
    C               -1.412906259170312     2.640377732443952     0.156983653711772
    H               -0.490906259170312     0.919377732443951     1.059983653711772
    H               -2.145906259170312     0.647377732443951     0.500983653711772
    H               -0.826906259170312     0.752377732443951    -0.686016346288228
    H               -1.758906259170312     2.988377732443952     1.130983653711772
    H               -0.490456259170312     3.173647732443952    -0.116360346288228
    H               -2.181566259170312     2.890267732443951    -0.589152346288228
    C                1.081093740829688    -1.434622267556049     0.349983653711772
    C                1.536093740829688    -2.340622267556048    -0.773016346288228
    H               -0.006906259170312    -1.370622267556049     0.352983653711772
    H                1.366093740829688    -1.865622267556049     1.301983653711772
    H                1.516093740829688    -0.441622267556048     0.236983653711772
    H                2.605093740829688    -2.198622267556048    -0.924016346288228
    H                0.988313740829688    -2.124852267556049    -1.702201346288228
    H                1.385773740829688    -3.399982267556048    -0.517749346288228

}
e, wfn = energy('scf', return_wfn=True)
gdma(wfn)
dmavals = variable('DMA DISTRIBUTED MULTIPOLES')
charges = np.array(dmavals)
print(charges)
np.save('SSI-087VAL-102LEU-1-dimer.npy', np.array(charges))--------------------------------------------------------------------------

*** tstart() called on ds3
*** at Tue Apr 28 04:01:05 2020

   => Loading Basis Set <=

    Name: CC-PVDZ
    Role: ORBITAL
    Keyword: BASIS
    atoms 1-2, 9-10  entry C          line   138 file /theoryfs2/ds/metcalf/miniconda2/envs/tf2gpu/share/psi4/basis/cc-pvdz.gbs
    atoms 3-8, 11-16 entry H          line    22 file /theoryfs2/ds/metcalf/miniconda2/envs/tf2gpu/share/psi4/basis/cc-pvdz.gbs

         ---------------------------------------------------------
                                   SCF
               by Justin Turney, Rob Parrish, Andy Simmonett
                          and Daniel G. A. Smith
                              RHF Reference
                        1 Threads,    500 MiB Core
         ---------------------------------------------------------

  ==> Geometry <==

    Molecular point group: c1
    Full point group: C1

    Geometry (in Angstrom), charge = 0, multiplicity = 1:

       Center              X                  Y                   Z               Mass
    ------------   -----------------  -----------------  -----------------  -----------------
         C           -1.200906259170     1.137377732444     0.261983653712    12.000000000000
         C           -1.412906259170     2.640377732444     0.156983653712    12.000000000000
         H           -0.490906259170     0.919377732444     1.059983653712     1.007825032230
         H           -2.145906259170     0.647377732444     0.500983653712     1.007825032230
         H           -0.826906259170     0.752377732444    -0.686016346288     1.007825032230
         H           -1.758906259170     2.988377732444     1.130983653712     1.007825032230
         H           -0.490456259170     3.173647732444    -0.116360346288     1.007825032230
         H           -2.181566259170     2.890267732444    -0.589152346288     1.007825032230
         C            1.081093740830    -1.434622267556     0.349983653712    12.000000000000
         C            1.536093740830    -2.340622267556    -0.773016346288    12.000000000000
         H           -0.006906259170    -1.370622267556     0.352983653712     1.007825032230
         H            1.366093740830    -1.865622267556     1.301983653712     1.007825032230
         H            1.516093740830    -0.441622267556     0.236983653712     1.007825032230
         H            2.605093740830    -2.198622267556    -0.924016346288     1.007825032230
         H            0.988313740830    -2.124852267556    -1.702201346288     1.007825032230
         H            1.385773740830    -3.399982267556    -0.517749346288     1.007825032230

  Running in c1 symmetry.

  Rotational constants: A =      0.67122  B =      0.04668  C =      0.04603 [cm^-1]
  Rotational constants: A =  20122.71922  B =   1399.55200  C =   1380.04915 [MHz]
  Nuclear repulsion =  123.016476599591755

  Charge       = 0
  Multiplicity = 1
  Electrons    = 36
  Nalpha       = 18
  Nbeta        = 18

  ==> Algorithm <==

  SCF Algorithm Type is PK.
  DIIS enabled.
  MOM disabled.
  Fractional occupation disabled.
  Guess Type is SAD.
  Energy threshold   = 1.00e-06
  Density threshold  = 1.00e-10
  Integral threshold = 0.00e+00

  ==> Primary Basis <==

  Basis Set: CC-PVDZ
    Blend: CC-PVDZ
    Number of shells: 60
    Number of basis function: 116
    Number of Cartesian functions: 120
    Spherical Harmonics?: true
    Max angular momentum: 2

  ==> Pre-Iterations <==

   -------------------------------------------------------
    Irrep   Nso     Nmo     Nalpha   Nbeta   Ndocc  Nsocc
   -------------------------------------------------------
     A        116     116       0       0       0       0
   -------------------------------------------------------
    Total     116     116      18      18      18       0
   -------------------------------------------------------

  ==> Integral Setup <==

  Using integral reordering PK algorithm.
  Sizing the integral batches needed.
  Building batch lookup table.
   Calculation information:
      Number of atoms:                  16
      Number of AO shells:              60
      Number of primitives:            148
      Number of atomic orbitals:       120
      Number of basis functions:       116

      Integral cutoff                 1.00e-12
      Number of threads:                 1

	Batch   1 pq = [       0,    6786] index = [             0,23028291] size =     23028291
  Task number: 3
  Buffer size: 11059200
  Buffer per thread: 2
  We computed 1425940 shell quartets total.
  Whereas there are 1675365 unique shell quartets.

  ==> DiskJK: Disk-Based J/K Matrices <==

    J tasked:                  Yes
    K tasked:                  Yes
    wK tasked:                  No
    Memory [MiB]:              375
    Schwarz Cutoff:          1E-12

    OpenMP threads:              1

  Minimum eigenvalue in the overlap matrix is 6.2327617915E-03.
  Using Symmetric Orthogonalization.

  SCF Guess: Superposition of Atomic Densities via on-the-fly atomic UHF.

  ==> Iterations <==

                        Total Energy        Delta E     RMS |[F,P]|

   @RHF iter SAD:  -157.40862538969856   -1.57409e+02   0.00000e+00
   @RHF iter   1:  -158.30204956831989   -8.93424e-01   4.24906e-03 DIIS
   @RHF iter   2:  -158.43766800034578   -1.35618e-01   1.81219e-03 DIIS
   @RHF iter   3:  -158.46147371620171   -2.38057e-02   3.53630e-04 DIIS
   @RHF iter   4:  -158.46335364450775   -1.87993e-03   3.99793e-05 DIIS
   @RHF iter   5:  -158.46337874554780   -2.51010e-05   7.40730e-06 DIIS
   @RHF iter   6:  -158.46337950001157   -7.54464e-07   1.58173e-06 DIIS
   @RHF iter   7:  -158.46337952410403   -2.40925e-08   3.46545e-07 DIIS
   @RHF iter   8:  -158.46337952546153   -1.35751e-09   5.34003e-08 DIIS
   @RHF iter   9:  -158.46337952551471   -5.31770e-11   1.17285e-08 DIIS
   @RHF iter  10:  -158.46337952551795   -3.24007e-12   3.17518e-09 DIIS
   @RHF iter  11:  -158.46337952551775    1.98952e-13   8.99593e-10 DIIS
   @RHF iter  12:  -158.46337952551781   -5.68434e-14   1.87940e-10 DIIS
   @RHF iter  13:  -158.46337952551775    5.68434e-14   3.07516e-11 DIIS
  Energy and wave function converged.

  ==> Post-Iterations <==

    Orbital Energies [Eh]
    ---------------------

    Doubly Occupied:

       1A    -11.217773     2A    -11.216484     3A    -11.215514
       4A    -11.212637     5A     -1.022267     6A     -1.018077
       7A     -0.840659     8A     -0.830552     9A     -0.602498
      10A     -0.599899    11A     -0.598007    12A     -0.593154
      13A     -0.510716    14A     -0.499440    15A     -0.487316
      16A     -0.483729    17A     -0.481329    18A     -0.474455

    Virtual:

      19A      0.176275    20A      0.194172    21A      0.228214
      22A      0.231974    23A      0.244720    24A      0.253163
      25A      0.263678    26A      0.280493    27A      0.287700
      28A      0.290996    29A      0.306916    30A      0.313678
      31A      0.412440    32A      0.414358    33A      0.577869
      34A      0.596742    35A      0.602331    36A      0.607340
      37A      0.614996    38A      0.643143    39A      0.670384
      40A      0.687850    41A      0.699025    42A      0.808590
      43A      0.863570    44A      0.874198    45A      0.886683
      46A      0.892235    47A      0.897217    48A      0.901116
      49A      0.905346    50A      0.911025    51A      0.916913
      52A      0.924083    53A      0.938167    54A      0.947662
      55A      0.965304    56A      0.984652    57A      1.115751
      58A      1.122413    59A      1.130067    60A      1.180160
      61A      1.232173    62A      1.250753    63A      1.467049
      64A      1.478772    65A      1.491191    66A      1.495761
      67A      1.575694    68A      1.592540    69A      1.684025
      70A      1.687501    71A      1.695381    72A      1.701889
      73A      1.857103    74A      1.864566    75A      1.869902
      76A      1.891253    77A      1.903020    78A      1.927465
      79A      1.929386    80A      1.932522    81A      1.940880
      82A      1.946231    83A      1.948628    84A      1.953976
      85A      1.965964    86A      1.989764    87A      2.017674
      88A      2.050811    89A      2.091559    90A      2.115146
      91A      2.138098    92A      2.154316    93A      2.301826
      94A      2.310337    95A      2.323434    96A      2.339419
      97A      2.434466    98A      2.454385    99A      2.466517
     100A      2.493559   101A      2.555283   102A      2.576888
     103A      2.587133   104A      2.599985   105A      2.756462
     106A      2.763343   107A      2.778661   108A      2.809451
     109A      2.850017   110A      2.856167   111A      2.859973
     112A      2.865100   113A      2.944518   114A      2.954904
     115A      2.968491   116A      2.977095

    Final Occupation by Irrep:
              A
    DOCC [    18 ]

  @RHF Final Energy:  -158.46337952551775

   => Energetics <=

    Nuclear Repulsion Energy =            123.0164765995917548
    One-Electron Energy =                -455.1507017985026096
    Two-Electron Energy =                 173.6708456733930745
    Total Energy =                       -158.4633795255177517

Computation Completed

Properties will be evaluated at   0.000000,   0.000000,   0.000000 [a0]

Properties computed using the SCF density matrix

  Nuclear Dipole Moment: [e a0]
     X:    -0.0377      Y:    -0.0280      Z:     0.0454

  Electronic Dipole Moment: [e a0]
     X:     0.0311      Y:     0.0198      Z:    -0.0208

  Dipole Moment: [e a0]
     X:    -0.0066      Y:    -0.0083      Z:     0.0245     Total:     0.0267

  Dipole Moment: [D]
     X:    -0.0168      Y:    -0.0210      Z:     0.0624     Total:     0.0679

*** tstop() called on ds3 at Tue Apr 28 04:01:18 2020
Module time:
	user time   =       7.32 seconds =       0.12 minutes
	system time =       2.81 seconds =       0.05 minutes
	total time  =         13 seconds =       0.22 minutes
Total time:
	user time   =       7.32 seconds =       0.12 minutes
	system time =       2.81 seconds =       0.05 minutes
	total time  =         13 seconds =       0.22 minutes
                                     G D M A

                                 by Anthony Stone

                           version 2.2.06, 22 June 2011

               Distributed Multipoles from Gaussian wavefunctions

Starting at 4:1:18 on 28 Apr 2020

Using SCF density matrix from file ./SSI/SSI-087VAL-102LEU-1-dimer.test.27172.fchk

                         Distributed Multipole Analysis

Standard DMA

Positions and radii in angstrom
Multipole moments in atomic units, ea_0^k for rank k

C          x = -1.200906  y =  1.137378  z =  0.261984 angstrom
           Maximum rank =  0   Radius =  0.650 angstrom
                   Q00  =  -0.232503

C          x = -1.412906  y =  2.640378  z =  0.156984 angstrom
           Maximum rank =  0   Radius =  0.650 angstrom
                   Q00  =  -0.234003

H          x = -0.490906  y =  0.919378  z =  1.059984 angstrom
           Maximum rank =  0   Radius =  0.325 angstrom
                   Q00  =   0.080901

H          x = -2.145906  y =  0.647378  z =  0.500984 angstrom
           Maximum rank =  0   Radius =  0.325 angstrom
                   Q00  =   0.078247

H          x = -0.826906  y =  0.752378  z = -0.686016 angstrom
           Maximum rank =  0   Radius =  0.325 angstrom
                   Q00  =   0.076247

H          x = -1.758906  y =  2.988378  z =  1.130984 angstrom
           Maximum rank =  0   Radius =  0.325 angstrom
                   Q00  =   0.076467

H          x = -0.490456  y =  3.173648  z = -0.116360 angstrom
           Maximum rank =  0   Radius =  0.325 angstrom
                   Q00  =   0.079245

H          x = -2.181566  y =  2.890268  z = -0.589152 angstrom
           Maximum rank =  0   Radius =  0.325 angstrom
                   Q00  =   0.077897

C          x =  1.081094  y = -1.434622  z =  0.349984 angstrom
           Maximum rank =  0   Radius =  0.650 angstrom
                   Q00  =  -0.232144

C          x =  1.536094  y = -2.340622  z = -0.773016 angstrom
           Maximum rank =  0   Radius =  0.650 angstrom
                   Q00  =  -0.231260

H          x = -0.006906  y = -1.370622  z =  0.352984 angstrom
           Maximum rank =  0   Radius =  0.325 angstrom
                   Q00  =   0.078769

H          x =  1.366094  y = -1.865622  z =  1.301984 angstrom
           Maximum rank =  0   Radius =  0.325 angstrom
                   Q00  =   0.077086

H          x =  1.516094  y = -0.441622  z =  0.236984 angstrom
           Maximum rank =  0   Radius =  0.325 angstrom
                   Q00  =   0.076818

H          x =  2.605094  y = -2.198622  z = -0.924016 angstrom
           Maximum rank =  0   Radius =  0.325 angstrom
                   Q00  =   0.075853

H          x =  0.988314  y = -2.124852  z = -1.702201 angstrom
           Maximum rank =  0   Radius =  0.325 angstrom
                   Q00  =   0.076285

H          x =  1.385774  y = -3.399982  z = -0.517749 angstrom
           Maximum rank =  0   Radius =  0.325 angstrom
                   Q00  =   0.076096

Total multipoles referred to origin at
           x =   0.000000,  y =    0.000000,  z =    0.000000 angstrom
                   Q00  =  -0.000000

Finished at 4:1:18 on 28 Apr 2020

  DMA results are available in the Python driver through the
	  variable('DMA DISTRIBUTED MULTIPOLES')
  and
	  variable('DMA TOTAL MULTIPOLES')
  commands.

    Psi4 stopped on: Tuesday, 28 April 2020 04:01AM
    Psi4 wall time for execution: 0:00:12.79

*** Psi4 exiting successfully. Buy a developer a beer!
