                               Psi4 1.3.2 release

  ==> Input File <==

--------------------------------------------------------------------------
import numpy as np
set {scf_type pk
basis cc-pvdz
d_convergence 10
gdma_switch   0
gdma_limit    0
gdma_origin   [ 0.0,  0.0,  0.0 ]
}
molecule test {
    units Angstrom
    0 1
    --
    0 1
    C                1.608985741015845    -2.309501470372160    -1.151344005937869
    C                0.927985741015845     1.074498529627840     0.423655994062131
    C                0.204985741015845     0.690498529627840     1.539655994062131
    C                1.363985741015845     0.091498529627840    -0.446344005937869
    C                1.132985741015845    -1.261501470372160    -0.176344005937869
    C               -0.026014258984155    -0.623501470372160     1.853655994062131
    C                0.433985741015845    -1.610501470372161     0.978655994062131
    H                1.104985741015845     2.119498529627839     0.209655994062131
    H               -0.179014258984155     1.455498529627840     2.199655994062132
    H                1.898985741015845     0.381498529627840    -1.341344005937869
    H               -0.573014258984155    -0.890501470372160     2.746655994062132
    H                2.182985741015845    -3.058501470372160    -0.602344005937869
    H                2.268985741015844    -1.857501470372161    -1.892344005937868
    H                0.244985741015845    -2.652501470372160     1.203655994062131
    H                0.765058741015845    -2.801553470372161    -1.656985005937869
    C               -1.988014258984155     2.351498529627840    -1.370344005937869
    C               -3.044014258984155     1.295498529627840    -1.101344005937869
    H               -2.457014258984155     3.327498529627840    -1.487344005937869
    H               -1.291014258984155     2.392498529627840    -0.536344005937869
    H               -1.439014258984155     2.101498529627840    -2.277344005937869
    H               -2.538014258984155     0.335498529627840    -1.061344005937869
    H               -3.774901258984155     1.292626529627839    -1.923412005937869
    H               -3.535172258984155     1.444509529627840    -0.128431005937869

}
e, wfn = energy('scf', return_wfn=True)
gdma(wfn)
dmavals = variable('DMA DISTRIBUTED MULTIPOLES')
charges = np.array(dmavals)
print(charges)
np.save('SSI-044PHE-048LEU-1-dimer.npy', np.array(charges))--------------------------------------------------------------------------

*** tstart() called on ds3
*** at Sun Apr 26 18:00:59 2020

   => Loading Basis Set <=

    Name: CC-PVDZ
    Role: ORBITAL
    Keyword: BASIS
    atoms 1-7, 16-17  entry C          line   138 file /theoryfs2/ds/metcalf/miniconda2/envs/tf2gpu/share/psi4/basis/cc-pvdz.gbs
    atoms 8-15, 18-23 entry H          line    22 file /theoryfs2/ds/metcalf/miniconda2/envs/tf2gpu/share/psi4/basis/cc-pvdz.gbs

         ---------------------------------------------------------
                                   SCF
               by Justin Turney, Rob Parrish, Andy Simmonett
                          and Daniel G. A. Smith
                              RHF Reference
                        1 Threads,    500 MiB Core
         ---------------------------------------------------------

  ==> Geometry <==

    Molecular point group: c1
    Full point group: C1

    Geometry (in Angstrom), charge = 0, multiplicity = 1:

       Center              X                  Y                   Z               Mass
    ------------   -----------------  -----------------  -----------------  -----------------
         C            1.608985741016    -2.309501470372    -1.151344005938    12.000000000000
         C            0.927985741016     1.074498529628     0.423655994062    12.000000000000
         C            0.204985741016     0.690498529628     1.539655994062    12.000000000000
         C            1.363985741016     0.091498529628    -0.446344005938    12.000000000000
         C            1.132985741016    -1.261501470372    -0.176344005938    12.000000000000
         C           -0.026014258984    -0.623501470372     1.853655994062    12.000000000000
         C            0.433985741016    -1.610501470372     0.978655994062    12.000000000000
         H            1.104985741016     2.119498529628     0.209655994062     1.007825032230
         H           -0.179014258984     1.455498529628     2.199655994062     1.007825032230
         H            1.898985741016     0.381498529628    -1.341344005938     1.007825032230
         H           -0.573014258984    -0.890501470372     2.746655994062     1.007825032230
         H            2.182985741016    -3.058501470372    -0.602344005938     1.007825032230
         H            2.268985741016    -1.857501470372    -1.892344005938     1.007825032230
         H            0.244985741016    -2.652501470372     1.203655994062     1.007825032230
         H            0.765058741016    -2.801553470372    -1.656985005938     1.007825032230
         C           -1.988014258984     2.351498529628    -1.370344005938    12.000000000000
         C           -3.044014258984     1.295498529628    -1.101344005938    12.000000000000
         H           -2.457014258984     3.327498529628    -1.487344005938     1.007825032230
         H           -1.291014258984     2.392498529628    -0.536344005938     1.007825032230
         H           -1.439014258984     2.101498529628    -2.277344005938     1.007825032230
         H           -2.538014258984     0.335498529628    -1.061344005938     1.007825032230
         H           -3.774901258984     1.292626529628    -1.923412005938     1.007825032230
         H           -3.535172258984     1.444509529628    -0.128431005938     1.007825032230

  Running in c1 symmetry.

  Rotational constants: A =      0.06576  B =      0.02810  C =      0.02542 [cm^-1]
  Rotational constants: A =   1971.36569  B =    842.32191  C =    761.97112 [MHz]
  Nuclear repulsion =  413.638724981364021

  Charge       = 0
  Multiplicity = 1
  Electrons    = 68
  Nalpha       = 34
  Nbeta        = 34

  ==> Algorithm <==

  SCF Algorithm Type is PK.
  DIIS enabled.
  MOM disabled.
  Fractional occupation disabled.
  Guess Type is SAD.
  Energy threshold   = 1.00e-06
  Density threshold  = 1.00e-10
  Integral threshold = 0.00e+00

  ==> Primary Basis <==

  Basis Set: CC-PVDZ
    Blend: CC-PVDZ
    Number of shells: 96
    Number of basis function: 196
    Number of Cartesian functions: 205
    Spherical Harmonics?: true
    Max angular momentum: 2

  ==> Pre-Iterations <==

   -------------------------------------------------------
    Irrep   Nso     Nmo     Nalpha   Nbeta   Ndocc  Nsocc
   -------------------------------------------------------
     A        196     196       0       0       0       0
   -------------------------------------------------------
    Total     196     196      34      34      34       0
   -------------------------------------------------------

  ==> Integral Setup <==

  Using integral reordering PK algorithm.
  Sizing the integral batches needed.
  Building batch lookup table.
   Calculation information:
      Number of atoms:                  23
      Number of AO shells:              96
      Number of primitives:            268
      Number of atomic orbitals:       205
      Number of basis functions:       196

      Integral cutoff                 1.00e-12
      Number of threads:                 1

	Batch   1 pq = [       0,    9405] index = [             0,44231715] size =     44231715
	Batch   2 pq = [    9405,   13301] index = [      44231715,88464951] size =     44233236
	Batch   3 pq = [   13301,   16290] index = [      88464951,132690195] size =     44225244
	Batch   4 pq = [   16290,   18810] index = [     132690195,176917455] size =     44227260
	Batch   5 pq = [   18810,   19306] index = [     176917455,186370471] size =      9453016
  Task number: 17
  Buffer size: 11059200
  Buffer per thread: 2
  We computed 10137479 shell quartets total.
  Whereas there are 10841496 unique shell quartets.

  ==> DiskJK: Disk-Based J/K Matrices <==

    J tasked:                  Yes
    K tasked:                  Yes
    wK tasked:                  No
    Memory [MiB]:              375
    Schwarz Cutoff:          1E-12

    OpenMP threads:              1

  Minimum eigenvalue in the overlap matrix is 3.0658589372E-04.
  Using Symmetric Orthogonalization.

  SCF Guess: Superposition of Atomic Densities via on-the-fly atomic UHF.

  ==> Iterations <==

                        Total Energy        Delta E     RMS |[F,P]|

   @RHF iter SAD:  -347.93466662902432   -3.47935e+02   0.00000e+00
   @RHF iter   1:  -348.76237381880208   -8.27707e-01   2.92827e-03 DIIS
   @RHF iter   2:  -348.95720631201624   -1.94832e-01   1.23203e-03 DIIS
   @RHF iter   3:  -348.98873847306027   -3.15322e-02   2.60564e-04 DIIS
   @RHF iter   4:  -348.99125074462580   -2.51227e-03   5.02397e-05 DIIS
   @RHF iter   5:  -348.99132039533987   -6.96507e-05   1.50713e-05 DIIS
   @RHF iter   6:  -348.99132640509117   -6.00975e-06   3.75241e-06 DIIS
   @RHF iter   7:  -348.99132681793401   -4.12843e-07   1.35455e-06 DIIS
   @RHF iter   8:  -348.99132687222027   -5.42863e-08   3.24860e-07 DIIS
   @RHF iter   9:  -348.99132687979477   -7.57450e-09   1.52434e-07 DIIS
   @RHF iter  10:  -348.99132688166588   -1.87111e-09   6.96362e-08 DIIS
   @RHF iter  11:  -348.99132688231350   -6.47617e-10   2.59417e-08 DIIS
   @RHF iter  12:  -348.99132688239047   -7.69660e-11   1.21245e-08 DIIS
   @RHF iter  13:  -348.99132688240149   -1.10276e-11   4.05952e-09 DIIS
   @RHF iter  14:  -348.99132688240121    2.84217e-13   1.24450e-09 DIIS
   @RHF iter  15:  -348.99132688240059    6.25278e-13   4.58790e-10 DIIS
   @RHF iter  16:  -348.99132688240212   -1.53477e-12   1.87223e-10 DIIS
   @RHF iter  17:  -348.99132688240132    7.95808e-13   7.62235e-11 DIIS
  Energy and wave function converged.

  ==> Post-Iterations <==

    Orbital Energies [Eh]
    ---------------------

    Doubly Occupied:

       1A    -11.241461     2A    -11.234514     3A    -11.233719
       4A    -11.231992     5A    -11.230516     6A    -11.230353
       7A    -11.227530     8A    -11.210310     9A    -11.207654
      10A     -1.155848    11A     -1.045901    12A     -1.015400
      13A     -1.013372    14A     -0.931190    15A     -0.829155
      16A     -0.826053    17A     -0.795567    18A     -0.692064
      19A     -0.633346    20A     -0.630705    21A     -0.595142
      22A     -0.591431    23A     -0.586504    24A     -0.576849
      25A     -0.558573    26A     -0.537239    27A     -0.495599
      28A     -0.490534    29A     -0.488314    30A     -0.480017
      31A     -0.476168    32A     -0.475377    33A     -0.333927
      34A     -0.322480

    Virtual:

      35A      0.133599    36A      0.143534    37A      0.175641
      38A      0.197110    39A      0.205313    40A      0.212208
      41A      0.237967    42A      0.244914    43A      0.253394
      44A      0.261954    45A      0.271742    46A      0.275535
      47A      0.276496    48A      0.293831    49A      0.295881
      50A      0.334764    51A      0.367351    52A      0.374806
      53A      0.403152    54A      0.456617    55A      0.462501
      56A      0.478766    57A      0.495946    58A      0.571459
      59A      0.586968    60A      0.599744    61A      0.601257
      62A      0.615204    63A      0.629444    64A      0.653120
      65A      0.679418    66A      0.684757    67A      0.690973
      68A      0.708751    69A      0.731385    70A      0.740638
      71A      0.742259    72A      0.753834    73A      0.762770
      74A      0.785489    75A      0.787530    76A      0.803006
      77A      0.843248    78A      0.851316    79A      0.860743
      80A      0.868946    81A      0.877619    82A      0.884860
      83A      0.894428    84A      0.898102    85A      0.900312
      86A      0.904483    87A      0.919355    88A      0.926194
      89A      0.935105    90A      0.940076    91A      0.951278
      92A      0.970450    93A      0.993626    94A      1.007214
      95A      1.013299    96A      1.063269    97A      1.125712
      98A      1.126672    99A      1.133901   100A      1.135742
     101A      1.163575   102A      1.174359   103A      1.193139
     104A      1.229073   105A      1.241205   106A      1.248049
     107A      1.255635   108A      1.284724   109A      1.299855
     110A      1.315955   111A      1.325880   112A      1.327163
     113A      1.413319   114A      1.478392   115A      1.498183
     116A      1.503385   117A      1.523560   118A      1.560663
     119A      1.576815   120A      1.605418   121A      1.672671
     122A      1.684970   123A      1.688177   124A      1.699793
     125A      1.742833   126A      1.748821   127A      1.770352
     128A      1.793735   129A      1.821579   130A      1.855777
     131A      1.856627   132A      1.872080   133A      1.898150
     134A      1.901387   135A      1.904470   136A      1.913702
     137A      1.925396   138A      1.928989   139A      1.937820
     140A      1.948503   141A      1.954330   142A      1.959373
     143A      1.964157   144A      1.975066   145A      1.978549
     146A      1.987491   147A      1.996653   148A      2.017049
     149A      2.033933   150A      2.059958   151A      2.074942
     152A      2.107628   153A      2.114002   154A      2.132893
     155A      2.146349   156A      2.165144   157A      2.169034
     158A      2.189929   159A      2.193198   160A      2.243374
     161A      2.272071   162A      2.287248   163A      2.296194
     164A      2.304495   165A      2.321106   166A      2.332129
     167A      2.354574   168A      2.451416   169A      2.463899
     170A      2.470077   171A      2.480568   172A      2.516234
     173A      2.535399   174A      2.572735   175A      2.597375
     176A      2.631734   177A      2.729528   178A      2.752118
     179A      2.769677   180A      2.774139   181A      2.796509
     182A      2.804101   183A      2.812379   184A      2.839388
     185A      2.858175   186A      2.863571   187A      2.881695
     188A      2.963808   189A      2.976737   190A      2.986251
     191A      3.015668   192A      3.051369   193A      3.162692
     194A      3.206852   195A      3.310910   196A      3.977121

    Final Occupation by Irrep:
              A
    DOCC [    34 ]

  @RHF Final Energy:  -348.99132688240132

   => Energetics <=

    Nuclear Repulsion Energy =            413.6387249813640210
    One-Electron Energy =               -1290.0104948195810266
    Two-Electron Energy =                 527.3804429558156244
    Total Energy =                       -348.9913268824013812

Computation Completed

Properties will be evaluated at   0.000000,   0.000000,   0.000000 [a0]

Properties computed using the SCF density matrix

  Nuclear Dipole Moment: [e a0]
     X:    -6.8634      Y:     3.3656      Z:    -6.1382

  Electronic Dipole Moment: [e a0]
     X:     6.9568      Y:    -3.5103      Z:     6.0920

  Dipole Moment: [e a0]
     X:     0.0934      Y:    -0.1448      Z:    -0.0462     Total:     0.1783

  Dipole Moment: [D]
     X:     0.2374      Y:    -0.3679      Z:    -0.1174     Total:     0.4533

*** tstop() called on ds3 at Sun Apr 26 18:02:33 2020
Module time:
	user time   =      69.10 seconds =       1.15 minutes
	system time =      26.42 seconds =       0.44 minutes
	total time  =         94 seconds =       1.57 minutes
Total time:
	user time   =      69.10 seconds =       1.15 minutes
	system time =      26.42 seconds =       0.44 minutes
	total time  =         94 seconds =       1.57 minutes
                                     G D M A

                                 by Anthony Stone

                           version 2.2.06, 22 June 2011

               Distributed Multipoles from Gaussian wavefunctions

Starting at 18:2:33 on 26 Apr 2020

Using SCF density matrix from file ./SSI/SSI-044PHE-048LEU-1-dimer.test.15520.fchk

                         Distributed Multipole Analysis

Standard DMA

Positions and radii in angstrom
Multipole moments in atomic units, ea_0^k for rank k

C          x =  1.608986  y = -2.309501  z = -1.151344 angstrom
           Maximum rank =  0   Radius =  0.650 angstrom
                   Q00  =  -0.201814

C          x =  0.927986  y =  1.074499  z =  0.423656 angstrom
           Maximum rank =  0   Radius =  0.650 angstrom
                   Q00  =  -0.072627

C          x =  0.204986  y =  0.690499  z =  1.539656 angstrom
           Maximum rank =  0   Radius =  0.650 angstrom
                   Q00  =  -0.011510

C          x =  1.363986  y =  0.091499  z = -0.446344 angstrom
           Maximum rank =  0   Radius =  0.650 angstrom
                   Q00  =  -0.045461

C          x =  1.132986  y = -1.261501  z = -0.176344 angstrom
           Maximum rank =  0   Radius =  0.650 angstrom
                   Q00  =  -0.104704

C          x = -0.026014  y = -0.623501  z =  1.853656 angstrom
           Maximum rank =  0   Radius =  0.650 angstrom
                   Q00  =  -0.070888

C          x =  0.433986  y = -1.610501  z =  0.978656 angstrom
           Maximum rank =  0   Radius =  0.650 angstrom
                   Q00  =  -0.093737

H          x =  1.104986  y =  2.119499  z =  0.209656 angstrom
           Maximum rank =  0   Radius =  0.325 angstrom
                   Q00  =   0.067555

H          x = -0.179014  y =  1.455499  z =  2.199656 angstrom
           Maximum rank =  0   Radius =  0.325 angstrom
                   Q00  =   0.053790

H          x =  1.898986  y =  0.381499  z = -1.341344 angstrom
           Maximum rank =  0   Radius =  0.325 angstrom
                   Q00  =   0.057500

H          x = -0.573014  y = -0.890501  z =  2.746656 angstrom
           Maximum rank =  0   Radius =  0.325 angstrom
                   Q00  =   0.065711

H          x =  2.182986  y = -3.058501  z = -0.602344 angstrom
           Maximum rank =  0   Radius =  0.325 angstrom
                   Q00  =   0.100306

H          x =  2.268986  y = -1.857501  z = -1.892344 angstrom
           Maximum rank =  0   Radius =  0.325 angstrom
                   Q00  =   0.098598

H          x =  0.244986  y = -2.652501  z =  1.203656 angstrom
           Maximum rank =  0   Radius =  0.325 angstrom
                   Q00  =   0.056281

H          x =  0.765059  y = -2.801553  z = -1.656985 angstrom
           Maximum rank =  0   Radius =  0.325 angstrom
                   Q00  =   0.103053

C          x = -1.988014  y =  2.351499  z = -1.370344 angstrom
           Maximum rank =  0   Radius =  0.650 angstrom
                   Q00  =  -0.229008

C          x = -3.044014  y =  1.295499  z = -1.101344 angstrom
           Maximum rank =  0   Radius =  0.650 angstrom
                   Q00  =  -0.233875

H          x = -2.457014  y =  3.327499  z = -1.487344 angstrom
           Maximum rank =  0   Radius =  0.325 angstrom
                   Q00  =   0.069652

H          x = -1.291014  y =  2.392499  z = -0.536344 angstrom
           Maximum rank =  0   Radius =  0.325 angstrom
                   Q00  =   0.082676

H          x = -1.439014  y =  2.101499  z = -2.277344 angstrom
           Maximum rank =  0   Radius =  0.325 angstrom
                   Q00  =   0.075913

H          x = -2.538014  y =  0.335499  z = -1.061344 angstrom
           Maximum rank =  0   Radius =  0.325 angstrom
                   Q00  =   0.083228

H          x = -3.774901  y =  1.292627  z = -1.923412 angstrom
           Maximum rank =  0   Radius =  0.325 angstrom
                   Q00  =   0.072803

H          x = -3.535172  y =  1.444510  z = -0.128431 angstrom
           Maximum rank =  0   Radius =  0.325 angstrom
                   Q00  =   0.076558

Total multipoles referred to origin at
           x =   0.000000,  y =    0.000000,  z =    0.000000 angstrom
                   Q00  =  -0.000000

Finished at 18:2:33 on 26 Apr 2020

  DMA results are available in the Python driver through the
	  variable('DMA DISTRIBUTED MULTIPOLES')
  and
	  variable('DMA TOTAL MULTIPOLES')
  commands.

    Psi4 stopped on: Sunday, 26 April 2020 06:02PM
    Psi4 wall time for execution: 0:01:33.63

*** Psi4 exiting successfully. Buy a developer a beer!
