                               Psi4 1.3.2 release

  ==> Input File <==

--------------------------------------------------------------------------
import numpy as np
set {scf_type pk
basis cc-pvdz
d_convergence 10
gdma_switch   0
gdma_limit    0
gdma_origin   [ 0.0,  0.0,  0.0 ]
}
molecule test {
    units Angstrom
    0 1
    --
    0 1
    C               -3.771667641133068     3.759606343443264    -1.596171348686716
    C               -1.270667641133068     1.532606343443264    -0.198171348686716
    C               -2.670667641133068     3.110606343443264    -0.808171348686716
    C               -1.953667641133068     3.566606343443264     0.256828651313284
    N               -2.218667641133068     1.832606343443264    -1.076171348686716
    N               -1.088667641133068     2.571606343443264     0.612828651313284
    H               -0.771667641133068     0.571606343443264    -0.206171348686716
    H               -0.422667641133068     2.622606343443263     1.375828651313284
    H               -1.987667641133068     4.505606343443264     0.778828651313284
    H               -4.672667641133067     3.715606343443264    -0.986171348686716
    H               -3.918667641133068     3.145606343443264    -2.491171348686716
    H               -3.576197641133068     4.795676343443264    -1.909781348686716
    C               -0.377667641133068    -2.346393656556736     2.511828651313284
    C                0.258332358866932    -1.946393656556736     0.085828651313284
    C                0.652332358866932    -2.285393656556736     1.383828651313284
    C                1.218332358866932    -1.779393656556736    -0.940171348686716
    C                2.602332358866932    -1.938393656556736    -0.654171348686716
    C                2.026332358866932    -2.477393656556736     1.639828651313284
    C                2.991332358866932    -2.307393656556736     0.639828651313284
    O                3.594332358866932    -1.666393656556736    -1.580171348686716
    H               -0.796667641133068    -1.815393656556736    -0.122171348686716
    H                0.898332358866932    -1.577393656556736    -1.956171348686716
    H               -0.038667641133068    -3.049393656556736     3.261828651313284
    H               -1.335667641133068    -2.687393656556736     2.117828651313284
    H                2.336332358866932    -2.760393656556736     2.635828651313284
    H                3.249332358866932    -1.352393656556736    -2.433171348686716
    H                4.039332358866932    -2.455393656556736     0.858828651313284
    H               -0.577567641133068    -1.359673656556736     2.955028651313284

}
e, wfn = energy('scf', return_wfn=True)
gdma(wfn)
dmavals = variable('DMA DISTRIBUTED MULTIPOLES')
charges = np.array(dmavals)
print(charges)
np.save('SSI-102HIE-270TYR-1-dimer.npy', np.array(charges))--------------------------------------------------------------------------

*** tstart() called on ds3
*** at Mon Apr 27 23:15:40 2020

   => Loading Basis Set <=

    Name: CC-PVDZ
    Role: ORBITAL
    Keyword: BASIS
    atoms 1-4, 13-19  entry C          line   138 file /theoryfs2/ds/metcalf/miniconda2/envs/tf2gpu/share/psi4/basis/cc-pvdz.gbs
    atoms 5-6         entry N          line   168 file /theoryfs2/ds/metcalf/miniconda2/envs/tf2gpu/share/psi4/basis/cc-pvdz.gbs
    atoms 7-12, 21-28 entry H          line    22 file /theoryfs2/ds/metcalf/miniconda2/envs/tf2gpu/share/psi4/basis/cc-pvdz.gbs
    atoms 20          entry O          line   198 file /theoryfs2/ds/metcalf/miniconda2/envs/tf2gpu/share/psi4/basis/cc-pvdz.gbs

         ---------------------------------------------------------
                                   SCF
               by Justin Turney, Rob Parrish, Andy Simmonett
                          and Daniel G. A. Smith
                              RHF Reference
                        1 Threads,    500 MiB Core
         ---------------------------------------------------------

  ==> Geometry <==

    Molecular point group: c1
    Full point group: C1

    Geometry (in Angstrom), charge = 0, multiplicity = 1:

       Center              X                  Y                   Z               Mass
    ------------   -----------------  -----------------  -----------------  -----------------
         C           -3.771667641133     3.759606343443    -1.596171348687    12.000000000000
         C           -1.270667641133     1.532606343443    -0.198171348687    12.000000000000
         C           -2.670667641133     3.110606343443    -0.808171348687    12.000000000000
         C           -1.953667641133     3.566606343443     0.256828651313    12.000000000000
         N           -2.218667641133     1.832606343443    -1.076171348687    14.003074004430
         N           -1.088667641133     2.571606343443     0.612828651313    14.003074004430
         H           -0.771667641133     0.571606343443    -0.206171348687     1.007825032230
         H           -0.422667641133     2.622606343443     1.375828651313     1.007825032230
         H           -1.987667641133     4.505606343443     0.778828651313     1.007825032230
         H           -4.672667641133     3.715606343443    -0.986171348687     1.007825032230
         H           -3.918667641133     3.145606343443    -2.491171348687     1.007825032230
         H           -3.576197641133     4.795676343443    -1.909781348687     1.007825032230
         C           -0.377667641133    -2.346393656557     2.511828651313    12.000000000000
         C            0.258332358867    -1.946393656557     0.085828651313    12.000000000000
         C            0.652332358867    -2.285393656557     1.383828651313    12.000000000000
         C            1.218332358867    -1.779393656557    -0.940171348687    12.000000000000
         C            2.602332358867    -1.938393656557    -0.654171348687    12.000000000000
         C            2.026332358867    -2.477393656557     1.639828651313    12.000000000000
         C            2.991332358867    -2.307393656557     0.639828651313    12.000000000000
         O            3.594332358867    -1.666393656557    -1.580171348687    15.994914619570
         H           -0.796667641133    -1.815393656557    -0.122171348687     1.007825032230
         H            0.898332358867    -1.577393656557    -1.956171348687     1.007825032230
         H           -0.038667641133    -3.049393656557     3.261828651313     1.007825032230
         H           -1.335667641133    -2.687393656557     2.117828651313     1.007825032230
         H            2.336332358867    -2.760393656557     2.635828651313     1.007825032230
         H            3.249332358867    -1.352393656557    -2.433171348687     1.007825032230
         H            4.039332358867    -2.455393656557     0.858828651313     1.007825032230
         H           -0.577567641133    -1.359673656557     2.955028651313     1.007825032230

  Running in c1 symmetry.

  Rotational constants: A =      0.03737  B =      0.00805  C =      0.00724 [cm^-1]
  Rotational constants: A =   1120.23029  B =    241.29479  C =    217.17053 [MHz]
  Nuclear repulsion =  779.504223580647022

  Charge       = 0
  Multiplicity = 1
  Electrons    = 102
  Nalpha       = 51
  Nbeta        = 51

  ==> Algorithm <==

  SCF Algorithm Type is PK.
  DIIS enabled.
  MOM disabled.
  Fractional occupation disabled.
  Guess Type is SAD.
  Energy threshold   = 1.00e-06
  Density threshold  = 1.00e-10
  Integral threshold = 0.00e+00

  ==> Primary Basis <==

  Basis Set: CC-PVDZ
    Blend: CC-PVDZ
    Number of shells: 126
    Number of basis function: 266
    Number of Cartesian functions: 280
    Spherical Harmonics?: true
    Max angular momentum: 2

  ==> Pre-Iterations <==

   -------------------------------------------------------
    Irrep   Nso     Nmo     Nalpha   Nbeta   Ndocc  Nsocc
   -------------------------------------------------------
     A        266     266       0       0       0       0
   -------------------------------------------------------
    Total     266     266      51      51      51       0
   -------------------------------------------------------

  ==> Integral Setup <==

  Using integral reordering PK algorithm.
  Sizing the integral batches needed.
  Building batch lookup table.
   Calculation information:
      Number of atoms:                  28
      Number of AO shells:             126
      Number of primitives:            378
      Number of atomic orbitals:       280
      Number of basis functions:       266

      Integral cutoff                 1.00e-12
      Number of threads:                 1

	Batch   1 pq = [       0,    9405] index = [             0,44231715] size =     44231715
	Batch   2 pq = [    9405,   13301] index = [      44231715,88464951] size =     44233236
	Batch   3 pq = [   13301,   16290] index = [      88464951,132690195] size =     44225244
	Batch   4 pq = [   16290,   18810] index = [     132690195,176917455] size =     44227260
	Batch   5 pq = [   18810,   21030] index = [     176917455,221140965] size =     44223510
	Batch   6 pq = [   21030,   23037] index = [     221140965,265363203] size =     44222238
	Batch   7 pq = [   23037,   24883] index = [     265363203,309594286] size =     44231083
	Batch   8 pq = [   24883,   26601] index = [     309594286,353819901] size =     44225615
	Batch   9 pq = [   26601,   28214] index = [     353819901,398029005] size =     44209104
	Batch  10 pq = [   28214,   29740] index = [     398029005,442248670] size =     44219665
	Batch  11 pq = [   29740,   31191] index = [     442248670,486454836] size =     44206166
	Batch  12 pq = [   31191,   32578] index = [     486454836,530679331] size =     44224495
	Batch  13 pq = [   32578,   33908] index = [     530679331,574893186] size =     44213855
	Batch  14 pq = [   33908,   35188] index = [     574893186,619115266] size =     44222080
	Batch  15 pq = [   35188,   35511] index = [     619115266,630533316] size =     11418050
  Task number: 58
  Buffer size: 11059200
  Buffer per thread: 2
  We computed 23232738 shell quartets total.
  Whereas there are 32012001 unique shell quartets.

  ==> DiskJK: Disk-Based J/K Matrices <==

    J tasked:                  Yes
    K tasked:                  Yes
    wK tasked:                  No
    Memory [MiB]:              375
    Schwarz Cutoff:          1E-12

    OpenMP threads:              1

  Minimum eigenvalue in the overlap matrix is 3.5595026401E-04.
  Using Symmetric Orthogonalization.

  SCF Guess: Superposition of Atomic Densities via on-the-fly atomic UHF.

  ==> Iterations <==

                        Total Energy        Delta E     RMS |[F,P]|

   @RHF iter SAD:  -607.29313569814758   -6.07293e+02   0.00000e+00
   @RHF iter   1:  -608.18738155182882   -8.94246e-01   2.58519e-03 DIIS
   @RHF iter   2:  -608.43746119265700   -2.50080e-01   1.22947e-03 DIIS
   @RHF iter   3:  -608.48679191489555   -4.93307e-02   3.27941e-04 DIIS
   @RHF iter   4:  -608.49151200106064   -4.72009e-03   1.34592e-04 DIIS
   @RHF iter   5:  -608.49224183817796   -7.29837e-04   2.09834e-05 DIIS
   @RHF iter   6:  -608.49227130838926   -2.94702e-05   9.58309e-06 DIIS
   @RHF iter   7:  -608.49227670642233   -5.39803e-06   3.10453e-06 DIIS
   @RHF iter   8:  -608.49227771734525   -1.01092e-06   1.28770e-06 DIIS
   @RHF iter   9:  -608.49227789784436   -1.80499e-07   5.45689e-07 DIIS
   @RHF iter  10:  -608.49227793216187   -3.43175e-08   2.00046e-07 DIIS
   @RHF iter  11:  -608.49227793805414   -5.89228e-09   7.45933e-08 DIIS
   @RHF iter  12:  -608.49227793892010   -8.65953e-10   3.49877e-08 DIIS
   @RHF iter  13:  -608.49227793905447   -1.34378e-10   1.19911e-08 DIIS
   @RHF iter  14:  -608.49227793907119   -1.67120e-11   5.60095e-09 DIIS
   @RHF iter  15:  -608.49227793907903   -7.84439e-12   2.29151e-09 DIIS
   @RHF iter  16:  -608.49227793908051   -1.47793e-12   1.08619e-09 DIIS
   @RHF iter  17:  -608.49227793907983    6.82121e-13   4.35890e-10 DIIS
   @RHF iter  18:  -608.49227793907585    3.97904e-12   1.38757e-10 DIIS
   @RHF iter  19:  -608.49227793908199   -6.13909e-12   7.33792e-11 DIIS
  Energy and wave function converged.

  ==> Post-Iterations <==

    Orbital Energies [Eh]
    ---------------------

    Doubly Occupied:

       1A    -20.588381     2A    -15.618320     3A    -15.526999
       4A    -11.310955     5A    -11.286310     6A    -11.247698
       7A    -11.246586     8A    -11.246241     9A    -11.245872
      10A    -11.243496    11A    -11.240220    12A    -11.238752
      13A    -11.234966    14A    -11.221886    15A     -1.391634
      16A     -1.340405    17A     -1.152677    18A     -1.147326
      19A     -1.037121    20A     -1.027399    21A     -1.016216
      22A     -0.938199    23A     -0.930104    24A     -0.844881
      25A     -0.814214    26A     -0.803206    27A     -0.766040
      28A     -0.735338    29A     -0.729454    30A     -0.665056
      31A     -0.644455    32A     -0.612067    33A     -0.605848
      34A     -0.602393    35A     -0.596898    36A     -0.587565
      37A     -0.583476    38A     -0.572219    39A     -0.567957
      40A     -0.553477    41A     -0.534135    42A     -0.532153
      43A     -0.517262    44A     -0.500950    45A     -0.488111
      46A     -0.467623    47A     -0.411499    48A     -0.377517
      49A     -0.340441    50A     -0.306484    51A     -0.304674

    Virtual:

      52A      0.121221    53A      0.142307    54A      0.169635
      55A      0.178261    56A      0.184705    57A      0.192210
      58A      0.204790    59A      0.213739    60A      0.217313
      61A      0.234168    62A      0.239164    63A      0.255587
      64A      0.258382    65A      0.274194    66A      0.280959
      67A      0.285206    68A      0.298019    69A      0.315931
      70A      0.353958    71A      0.357736    72A      0.377590
      73A      0.401044    74A      0.414704    75A      0.421239
      76A      0.444520    77A      0.467779    78A      0.475756
      79A      0.484220    80A      0.494854    81A      0.499999
      82A      0.595304    83A      0.607926    84A      0.626037
      85A      0.632941    86A      0.638245    87A      0.652529
      88A      0.657456    89A      0.663673    90A      0.672411
      91A      0.689475    92A      0.698774    93A      0.702593
      94A      0.718191    95A      0.725877    96A      0.735023
      97A      0.743434    98A      0.750414    99A      0.755462
     100A      0.763643   101A      0.765390   102A      0.776145
     103A      0.784609   104A      0.803673   105A      0.815942
     106A      0.839890   107A      0.842396   108A      0.844590
     109A      0.856117   110A      0.872419   111A      0.875160
     112A      0.879900   113A      0.881382   114A      0.884499
     115A      0.892754   116A      0.905173   117A      0.914868
     118A      0.919236   119A      0.923736   120A      0.938979
     121A      0.948497   122A      0.967036   123A      0.974531
     124A      0.993828   125A      1.004628   126A      1.023390
     127A      1.044865   128A      1.054719   129A      1.084709
     130A      1.096803   131A      1.115672   132A      1.121991
     133A      1.127126   134A      1.131892   135A      1.137769
     136A      1.156219   137A      1.164793   138A      1.197885
     139A      1.217567   140A      1.233524   141A      1.239657
     142A      1.247832   143A      1.260261   144A      1.271930
     145A      1.278709   146A      1.286670   147A      1.294492
     148A      1.303585   149A      1.310624   150A      1.329065
     151A      1.335246   152A      1.349977   153A      1.372648
     154A      1.386462   155A      1.439952   156A      1.465886
     157A      1.475695   158A      1.482315   159A      1.495036
     160A      1.515096   161A      1.522784   162A      1.552245
     163A      1.579163   164A      1.606331   165A      1.616880
     166A      1.619064   167A      1.664186   168A      1.672431
     169A      1.691421   170A      1.694507   171A      1.705211
     172A      1.720266   173A      1.734699   174A      1.770663
     175A      1.785684   176A      1.790522   177A      1.794660
     178A      1.806313   179A      1.829396   180A      1.853081
     181A      1.859256   182A      1.866561   183A      1.879374
     184A      1.885580   185A      1.903185   186A      1.906810
     187A      1.910675   188A      1.919625   189A      1.926428
     190A      1.935186   191A      1.943169   192A      1.946861
     193A      1.959666   194A      1.968837   195A      1.975902
     196A      1.984813   197A      2.003496   198A      2.022873
     199A      2.033222   200A      2.039143   201A      2.042893
     202A      2.061055   203A      2.077966   204A      2.109578
     205A      2.119736   206A      2.132613   207A      2.145993
     208A      2.165706   209A      2.187421   210A      2.195650
     211A      2.211652   212A      2.234197   213A      2.250052
     214A      2.260756   215A      2.267930   216A      2.286468
     217A      2.304196   218A      2.314645   219A      2.357089
     220A      2.365045   221A      2.373955   222A      2.406496
     223A      2.410065   224A      2.425495   225A      2.459767
     226A      2.464507   227A      2.470978   228A      2.481265
     229A      2.505621   230A      2.521602   231A      2.569847
     232A      2.588063   233A      2.594483   234A      2.618758
     235A      2.680439   236A      2.730166   237A      2.746128
     238A      2.753222   239A      2.767976   240A      2.778462
     241A      2.782838   242A      2.793071   243A      2.799283
     244A      2.816718   245A      2.830647   246A      2.866860
     247A      2.883096   248A      2.892286   249A      2.924785
     250A      2.942622   251A      2.973823   252A      2.988582
     253A      3.038700   254A      3.080695   255A      3.115243
     256A      3.159289   257A      3.222495   258A      3.236023
     259A      3.253307   260A      3.331409   261A      3.476934
     262A      3.524991   263A      3.632411   264A      3.810517
     265A      3.905377   266A      4.166109

    Final Occupation by Irrep:
              A
    DOCC [    51 ]

  @RHF Final Energy:  -608.49227793908199

   => Energetics <=

    Nuclear Repulsion Energy =            779.5042235806470217
    One-Electron Energy =               -2372.9066975832429307
    Two-Electron Energy =                 984.9101960635139221
    Total Energy =                       -608.4922779390819869

Computation Completed

Properties will be evaluated at   0.000000,   0.000000,   0.000000 [a0]

Properties computed using the SCF density matrix

  Nuclear Dipole Moment: [e a0]
     X:    -7.0742      Y:     2.1347      Z:     3.6304

  Electronic Dipole Moment: [e a0]
     X:     7.3601      Y:    -1.6767      Z:    -2.7748

  Dipole Moment: [e a0]
     X:     0.2859      Y:     0.4580      Z:     0.8555     Total:     1.0116

  Dipole Moment: [D]
     X:     0.7266      Y:     1.1641      Z:     2.1746     Total:     2.5713

*** tstop() called on ds3 at Mon Apr 27 23:22:06 2020
Module time:
	user time   =     223.18 seconds =       3.72 minutes
	system time =     122.59 seconds =       2.04 minutes
	total time  =        386 seconds =       6.43 minutes
Total time:
	user time   =     223.18 seconds =       3.72 minutes
	system time =     122.59 seconds =       2.04 minutes
	total time  =        386 seconds =       6.43 minutes
                                     G D M A

                                 by Anthony Stone

                           version 2.2.06, 22 June 2011

               Distributed Multipoles from Gaussian wavefunctions

Starting at 23:22:6 on 27 Apr 2020

Using SCF density matrix from file ./SSI/SSI-102HIE-270TYR-1-dimer.test.1955.fchk

                         Distributed Multipole Analysis

Standard DMA

Positions and radii in angstrom
Multipole moments in atomic units, ea_0^k for rank k

C          x = -3.771668  y =  3.759606  z = -1.596171 angstrom
           Maximum rank =  0   Radius =  0.650 angstrom
                   Q00  =  -0.199616

C          x = -1.270668  y =  1.532606  z = -0.198171 angstrom
           Maximum rank =  0   Radius =  0.650 angstrom
                   Q00  =   0.440483

C          x = -2.670668  y =  3.110606  z = -0.808171 angstrom
           Maximum rank =  0   Radius =  0.650 angstrom
                   Q00  =   0.228030

C          x = -1.953668  y =  3.566606  z =  0.256829 angstrom
           Maximum rank =  0   Radius =  0.650 angstrom
                   Q00  =  -0.018381

N          x = -2.218668  y =  1.832606  z = -1.076171 angstrom
           Maximum rank =  0   Radius =  0.650 angstrom
                   Q00  =  -0.765851

N          x = -1.088668  y =  2.571606  z =  0.612829 angstrom
           Maximum rank =  0   Radius =  0.650 angstrom
                   Q00  =  -0.450596

H          x = -0.771668  y =  0.571606  z = -0.206171 angstrom
           Maximum rank =  0   Radius =  0.325 angstrom
                   Q00  =   0.134451

H          x = -0.422668  y =  2.622606  z =  1.375829 angstrom
           Maximum rank =  0   Radius =  0.325 angstrom
                   Q00  =   0.220725

H          x = -1.987668  y =  4.505606  z =  0.778829 angstrom
           Maximum rank =  0   Radius =  0.325 angstrom
                   Q00  =   0.096071

H          x = -4.672668  y =  3.715606  z = -0.986171 angstrom
           Maximum rank =  0   Radius =  0.325 angstrom
                   Q00  =   0.101198

H          x = -3.918668  y =  3.145606  z = -2.491171 angstrom
           Maximum rank =  0   Radius =  0.325 angstrom
                   Q00  =   0.119342

H          x = -3.576198  y =  4.795676  z = -1.909781 angstrom
           Maximum rank =  0   Radius =  0.325 angstrom
                   Q00  =   0.097027

C          x = -0.377668  y = -2.346394  z =  2.511829 angstrom
           Maximum rank =  0   Radius =  0.650 angstrom
                   Q00  =  -0.199725

C          x =  0.258332  y = -1.946394  z =  0.085829 angstrom
           Maximum rank =  0   Radius =  0.650 angstrom
                   Q00  =  -0.082559

C          x =  0.652332  y = -2.285394  z =  1.383829 angstrom
           Maximum rank =  0   Radius =  0.650 angstrom
                   Q00  =  -0.132170

C          x =  1.218332  y = -1.779394  z = -0.940171 angstrom
           Maximum rank =  0   Radius =  0.650 angstrom
                   Q00  =  -0.179139

C          x =  2.602332  y = -1.938394  z = -0.654171 angstrom
           Maximum rank =  0   Radius =  0.650 angstrom
                   Q00  =   0.312827

C          x =  2.026332  y = -2.477394  z =  1.639829 angstrom
           Maximum rank =  0   Radius =  0.650 angstrom
                   Q00  =   0.037224

C          x =  2.991332  y = -2.307394  z =  0.639829 angstrom
           Maximum rank =  0   Radius =  0.650 angstrom
                   Q00  =  -0.106489

O          x =  3.594332  y = -1.666394  z = -1.580171 angstrom
           Maximum rank =  0   Radius =  0.650 angstrom
                   Q00  =  -0.679279

H          x = -0.796668  y = -1.815394  z = -0.122171 angstrom
           Maximum rank =  0   Radius =  0.325 angstrom
                   Q00  =   0.078243

H          x =  0.898332  y = -1.577394  z = -1.956171 angstrom
           Maximum rank =  0   Radius =  0.325 angstrom
                   Q00  =   0.085649

H          x = -0.038668  y = -3.049394  z =  3.261829 angstrom
           Maximum rank =  0   Radius =  0.325 angstrom
                   Q00  =   0.102998

H          x = -1.335668  y = -2.687394  z =  2.117829 angstrom
           Maximum rank =  0   Radius =  0.325 angstrom
                   Q00  =   0.099957

H          x =  2.336332  y = -2.760394  z =  2.635829 angstrom
           Maximum rank =  0   Radius =  0.325 angstrom
                   Q00  =   0.065878

H          x =  3.249332  y = -1.352394  z = -2.433171 angstrom
           Maximum rank =  0   Radius =  0.325 angstrom
                   Q00  =   0.413880

H          x =  4.039332  y = -2.455394  z =  0.858829 angstrom
           Maximum rank =  0   Radius =  0.325 angstrom
                   Q00  =   0.084105

H          x = -0.577568  y = -1.359674  z =  2.955029 angstrom
           Maximum rank =  0   Radius =  0.325 angstrom
                   Q00  =   0.095719

Total multipoles referred to origin at
           x =   0.000000,  y =    0.000000,  z =    0.000000 angstrom
                   Q00  =  -0.000000

Finished at 23:22:6 on 27 Apr 2020

  DMA results are available in the Python driver through the
	  variable('DMA DISTRIBUTED MULTIPOLES')
  and
	  variable('DMA TOTAL MULTIPOLES')
  commands.

    Psi4 stopped on: Monday, 27 April 2020 11:22PM
    Psi4 wall time for execution: 0:06:26.16

*** Psi4 exiting successfully. Buy a developer a beer!
