                               Psi4 1.3.2 release

  ==> Input File <==

--------------------------------------------------------------------------
import numpy as np
set {scf_type pk
basis cc-pvdz
d_convergence 10
gdma_switch   0
gdma_limit    0
gdma_origin   [ 0.0,  0.0,  0.0 ]
}
molecule test {
    units Angstrom
    -1 1
    --
    -1 1
    C                0.595129588840864     1.243324721444769     1.305136649645739
    C                0.111129588840864     0.357324721444769     2.452136649645740
    C                0.421129588840864     2.721324721444769     1.581136649645740
    H                1.654129588840864     1.035324721444769     1.139136649645740
    H                0.051129588840864     1.002324721444769     0.393136649645740
    H                0.650129588840864     0.650324721444769     3.356136649645740
    H               -0.638870411159136     2.982324721444769     1.581136649645740
    H                0.860129588840864     2.947324721444769     2.551136649645739
    H                0.351429588840864    -0.692195278555231     2.226816649645739
    H               -0.958870411159136     0.502454721444769     2.662006649645739
    H                0.952599588840864     3.315704721444769     0.823340649645740
    C               -0.322870411159136    -0.719675278555231    -2.725863350354261
    C               -0.280870411159136    -1.111675278555231    -1.260863350354261
    O               -1.331870411159136    -1.025675278555231    -0.579863350354261
    O                0.815129588840864    -1.464675278555231    -0.777863350354260
    H               -0.180870411159136    -1.611675278555231    -3.339863350354260
    H                0.496129588840864    -0.026675278555231    -2.933863350354260
    H               -1.271000411159136    -0.236995278555231    -3.005273350354261

}
e, wfn = energy('scf', return_wfn=True)
gdma(wfn)
dmavals = variable('DMA DISTRIBUTED MULTIPOLES')
charges = np.array(dmavals)
print(charges)
np.save('SSI-030LYS-085GLU-1-dimer.npy', np.array(charges))--------------------------------------------------------------------------

*** tstart() called on ds3
*** at Tue Apr 28 09:14:40 2020

   => Loading Basis Set <=

    Name: CC-PVDZ
    Role: ORBITAL
    Keyword: BASIS
    atoms 1-3, 12-13  entry C          line   138 file /theoryfs2/ds/metcalf/miniconda2/envs/tf2gpu/share/psi4/basis/cc-pvdz.gbs
    atoms 4-11, 16-18 entry H          line    22 file /theoryfs2/ds/metcalf/miniconda2/envs/tf2gpu/share/psi4/basis/cc-pvdz.gbs
    atoms 14-15       entry O          line   198 file /theoryfs2/ds/metcalf/miniconda2/envs/tf2gpu/share/psi4/basis/cc-pvdz.gbs

         ---------------------------------------------------------
                                   SCF
               by Justin Turney, Rob Parrish, Andy Simmonett
                          and Daniel G. A. Smith
                              RHF Reference
                        1 Threads,    500 MiB Core
         ---------------------------------------------------------

  ==> Geometry <==

    Molecular point group: c1
    Full point group: C1

    Geometry (in Angstrom), charge = -1, multiplicity = 1:

       Center              X                  Y                   Z               Mass
    ------------   -----------------  -----------------  -----------------  -----------------
         C            0.595129588841     1.243324721445     1.305136649646    12.000000000000
         C            0.111129588841     0.357324721445     2.452136649646    12.000000000000
         C            0.421129588841     2.721324721445     1.581136649646    12.000000000000
         H            1.654129588841     1.035324721445     1.139136649646     1.007825032230
         H            0.051129588841     1.002324721445     0.393136649646     1.007825032230
         H            0.650129588841     0.650324721445     3.356136649646     1.007825032230
         H           -0.638870411159     2.982324721445     1.581136649646     1.007825032230
         H            0.860129588841     2.947324721445     2.551136649646     1.007825032230
         H            0.351429588841    -0.692195278555     2.226816649646     1.007825032230
         H           -0.958870411159     0.502454721445     2.662006649646     1.007825032230
         H            0.952599588841     3.315704721445     0.823340649646     1.007825032230
         C           -0.322870411159    -0.719675278555    -2.725863350354    12.000000000000
         C           -0.280870411159    -1.111675278555    -1.260863350354    12.000000000000
         O           -1.331870411159    -1.025675278555    -0.579863350354    15.994914619570
         O            0.815129588841    -1.464675278555    -0.777863350354    15.994914619570
         H           -0.180870411159    -1.611675278555    -3.339863350354     1.007825032230
         H            0.496129588841    -0.026675278555    -2.933863350354     1.007825032230
         H           -1.271000411159    -0.236995278555    -3.005273350354     1.007825032230

  Running in c1 symmetry.

  Rotational constants: A =      0.13054  B =      0.03377  C =      0.03154 [cm^-1]
  Rotational constants: A =   3913.34691  B =   1012.34088  C =    945.49286 [MHz]
  Nuclear repulsion =  295.317853679893631

  Charge       = -1
  Multiplicity = 1
  Electrons    = 58
  Nalpha       = 29
  Nbeta        = 29

  ==> Algorithm <==

  SCF Algorithm Type is PK.
  DIIS enabled.
  MOM disabled.
  Fractional occupation disabled.
  Guess Type is SAD.
  Energy threshold   = 1.00e-06
  Density threshold  = 1.00e-10
  Integral threshold = 0.00e+00

  ==> Primary Basis <==

  Basis Set: CC-PVDZ
    Blend: CC-PVDZ
    Number of shells: 75
    Number of basis function: 153
    Number of Cartesian functions: 160
    Spherical Harmonics?: true
    Max angular momentum: 2

  ==> Pre-Iterations <==

   -------------------------------------------------------
    Irrep   Nso     Nmo     Nalpha   Nbeta   Ndocc  Nsocc
   -------------------------------------------------------
     A        153     153       0       0       0       0
   -------------------------------------------------------
    Total     153     153      29      29      29       0
   -------------------------------------------------------

  ==> Integral Setup <==

  Using integral reordering PK algorithm.
  Sizing the integral batches needed.
  Building batch lookup table.
   Calculation information:
      Number of atoms:                  18
      Number of AO shells:              75
      Number of primitives:            209
      Number of atomic orbitals:       160
      Number of basis functions:       153

      Integral cutoff                 1.00e-12
      Number of threads:                 1

	Batch   1 pq = [       0,    9405] index = [             0,44231715] size =     44231715
	Batch   2 pq = [    9405,   11781] index = [      44231715,69401871] size =     25170156
  Task number: 7
  Buffer size: 11059200
  Buffer per thread: 2
  We computed 3519206 shell quartets total.
  Whereas there are 4062675 unique shell quartets.

  ==> DiskJK: Disk-Based J/K Matrices <==

    J tasked:                  Yes
    K tasked:                  Yes
    wK tasked:                  No
    Memory [MiB]:              375
    Schwarz Cutoff:          1E-12

    OpenMP threads:              1

  Minimum eigenvalue in the overlap matrix is 5.0330550199E-03.
  Using Symmetric Orthogonalization.

  SCF Guess: Superposition of Atomic Densities via on-the-fly atomic UHF.

  ==> Iterations <==

                        Total Energy        Delta E     RMS |[F,P]|

   @RHF iter SAD:  -343.88903403912599   -3.43889e+02   0.00000e+00
   @RHF iter   1:  -345.21167243828745   -1.32264e+00   4.99304e-03 DIIS
   @RHF iter   2:  -345.44333181311669   -2.31659e-01   2.77411e-03 DIIS
   @RHF iter   3:  -345.51131043013351   -6.79786e-02   4.29574e-04 DIIS
   @RHF iter   4:  -345.51429637207860   -2.98594e-03   1.61115e-04 DIIS
   @RHF iter   5:  -345.51471206982313   -4.15698e-04   2.43406e-05 DIIS
   @RHF iter   6:  -345.51472362673985   -1.15569e-05   6.72422e-06 DIIS
   @RHF iter   7:  -345.51472440735313   -7.80613e-07   2.04750e-06 DIIS
   @RHF iter   8:  -345.51472446840052   -6.10474e-08   7.60996e-07 DIIS
   @RHF iter   9:  -345.51472447558672   -7.18620e-09   1.90568e-07 DIIS
   @RHF iter  10:  -345.51472447640577   -8.19057e-10   5.41099e-08 DIIS
   @RHF iter  11:  -345.51472447649701   -9.12337e-11   1.78041e-08 DIIS
   @RHF iter  12:  -345.51472447650804   -1.10276e-11   6.47872e-09 DIIS
   @RHF iter  13:  -345.51472447651122   -3.18323e-12   2.15069e-09 DIIS
   @RHF iter  14:  -345.51472447651139   -1.70530e-13   6.67835e-10 DIIS
   @RHF iter  15:  -345.51472447651201   -6.25278e-13   2.03317e-10 DIIS
   @RHF iter  16:  -345.51472447651247   -4.54747e-13   7.35916e-11 DIIS
  Energy and wave function converged.

  ==> Post-Iterations <==

    Orbital Energies [Eh]
    ---------------------

    Doubly Occupied:

       1A    -20.259632     2A    -20.258972     3A    -11.115884
       4A    -11.096673     5A    -11.077859     6A    -11.073331
       7A    -11.052062     8A     -1.148968     9A     -1.034996
      10A     -0.921070    11A     -0.798188    12A     -0.793634
      13A     -0.658185    14A     -0.501725    15A     -0.493820
      16A     -0.464663    17A     -0.419656    18A     -0.413595
      19A     -0.407346    20A     -0.403743    21A     -0.401020
      22A     -0.341615    23A     -0.337214    24A     -0.334528
      25A     -0.330213    26A     -0.298849    27A     -0.183568
      28A     -0.171488    29A     -0.160890

    Virtual:

      30A      0.304119    31A      0.344205    32A      0.354632
      33A      0.357709    34A      0.373694    35A      0.393873
      36A      0.402217    37A      0.414056    38A      0.423143
      39A      0.435078    40A      0.462689    41A      0.487145
      42A      0.501541    43A      0.563328    44A      0.573343
      45A      0.685127    46A      0.699680    47A      0.707958
      48A      0.742188    49A      0.755426    50A      0.773262
      51A      0.810290    52A      0.822450    53A      0.870745
      54A      0.924840    55A      0.928352    56A      0.965294
      57A      0.985951    58A      0.998772    59A      1.010128
      60A      1.018411    61A      1.023093    62A      1.028441
      63A      1.033685    64A      1.036030    65A      1.042538
      66A      1.053379    67A      1.065578    68A      1.072909
      69A      1.088250    70A      1.120905    71A      1.137916
      72A      1.163990    73A      1.247866    74A      1.261501
      75A      1.266894    76A      1.329255    77A      1.346441
      78A      1.379375    79A      1.402172    80A      1.510995
      81A      1.534588    82A      1.568790    83A      1.587022
      84A      1.603068    85A      1.613363    86A      1.634439
      87A      1.655510    88A      1.672053    89A      1.705596
      90A      1.741120    91A      1.780889    92A      1.804410
      93A      1.823040    94A      1.833445    95A      1.840594
      96A      1.859231    97A      1.981823    98A      2.007433
      99A      2.019365   100A      2.042411   101A      2.044988
     102A      2.072490   103A      2.077339   104A      2.089088
     105A      2.094836   106A      2.113174   107A      2.122569
     108A      2.131738   109A      2.137156   110A      2.148640
     111A      2.154404   112A      2.180048   113A      2.228955
     114A      2.264941   115A      2.279205   116A      2.291159
     117A      2.343284   118A      2.419818   119A      2.435349
     120A      2.439017   121A      2.457793   122A      2.462230
     123A      2.517688   124A      2.595621   125A      2.626439
     126A      2.656334   127A      2.672631   128A      2.721260
     129A      2.729419   130A      2.756807   131A      2.777340
     132A      2.789458   133A      2.873878   134A      2.897761
     135A      2.911539   136A      2.914008   137A      2.945920
     138A      2.960549   139A      2.986985   140A      3.061458
     141A      3.093625   142A      3.109480   143A      3.215383
     144A      3.243900   145A      3.279382   146A      3.303779
     147A      3.368002   148A      3.637117   149A      3.789906
     150A      3.828826   151A      4.069905   152A      4.082293
     153A      4.198292

    Final Occupation by Irrep:
              A
    DOCC [    29 ]

  @RHF Final Energy:  -345.51472447651247

   => Energetics <=

    Nuclear Repulsion Energy =            295.3178536798936307
    One-Electron Energy =               -1067.7583820411862234
    Two-Electron Energy =                 426.9258038847800663
    Total Energy =                       -345.5147244765124697

Computation Completed

Properties will be evaluated at   0.000000,   0.000000,   0.000000 [a0]

Properties computed using the SCF density matrix

  Nuclear Dipole Moment: [e a0]
     X:     1.8406      Y:     9.2392      Z:     5.1063

  Electronic Dipole Moment: [e a0]
     X:    -1.4343      Y:    -7.3416      Z:    -4.5257

  Dipole Moment: [e a0]
     X:     0.4063      Y:     1.8976      Z:     0.5806     Total:     2.0256

  Dipole Moment: [D]
     X:     1.0327      Y:     4.8231      Z:     1.4757     Total:     5.1485

*** tstop() called on ds3 at Tue Apr 28 09:15:17 2020
Module time:
	user time   =      26.44 seconds =       0.44 minutes
	system time =      12.51 seconds =       0.21 minutes
	total time  =         37 seconds =       0.62 minutes
Total time:
	user time   =      26.44 seconds =       0.44 minutes
	system time =      12.51 seconds =       0.21 minutes
	total time  =         37 seconds =       0.62 minutes
                                     G D M A

                                 by Anthony Stone

                           version 2.2.06, 22 June 2011

               Distributed Multipoles from Gaussian wavefunctions

Starting at 9:15:17 on 28 Apr 2020

Using SCF density matrix from file ./SSI/SSI-030LYS-085GLU-1-dimer.test.9801.fchk

                         Distributed Multipole Analysis

Standard DMA

Positions and radii in angstrom
Multipole moments in atomic units, ea_0^k for rank k

C          x =  0.595130  y =  1.243325  z =  1.305137 angstrom
           Maximum rank =  0   Radius =  0.650 angstrom
                   Q00  =  -0.016630

C          x =  0.111130  y =  0.357325  z =  2.452137 angstrom
           Maximum rank =  0   Radius =  0.650 angstrom
                   Q00  =  -0.214743

C          x =  0.421130  y =  2.721325  z =  1.581137 angstrom
           Maximum rank =  0   Radius =  0.650 angstrom
                   Q00  =  -0.256039

H          x =  1.654130  y =  1.035325  z =  1.139137 angstrom
           Maximum rank =  0   Radius =  0.325 angstrom
                   Q00  =   0.030140

H          x =  0.051130  y =  1.002325  z =  0.393137 angstrom
           Maximum rank =  0   Radius =  0.325 angstrom
                   Q00  =   0.082733

H          x =  0.650130  y =  0.650325  z =  3.356137 angstrom
           Maximum rank =  0   Radius =  0.325 angstrom
                   Q00  =   0.011334

H          x = -0.638870  y =  2.982325  z =  1.581137 angstrom
           Maximum rank =  0   Radius =  0.325 angstrom
                   Q00  =   0.066842

H          x =  0.860130  y =  2.947325  z =  2.551137 angstrom
           Maximum rank =  0   Radius =  0.325 angstrom
                   Q00  =   0.042485

H          x =  0.351430  y = -0.692195  z =  2.226817 angstrom
           Maximum rank =  0   Radius =  0.325 angstrom
                   Q00  =   0.114501

H          x = -0.958870  y =  0.502455  z =  2.662007 angstrom
           Maximum rank =  0   Radius =  0.325 angstrom
                   Q00  =   0.065617

H          x =  0.952600  y =  3.315705  z =  0.823341 angstrom
           Maximum rank =  0   Radius =  0.325 angstrom
                   Q00  =   0.059636

C          x = -0.322870  y = -0.719675  z = -2.725863 angstrom
           Maximum rank =  0   Radius =  0.650 angstrom
                   Q00  =  -0.270475

C          x = -0.280870  y = -1.111675  z = -1.260863 angstrom
           Maximum rank =  0   Radius =  0.650 angstrom
                   Q00  =   0.955705

O          x = -1.331870  y = -1.025675  z = -0.579863 angstrom
           Maximum rank =  0   Radius =  0.650 angstrom
                   Q00  =  -0.927516

O          x =  0.815130  y = -1.464675  z = -0.777863 angstrom
           Maximum rank =  0   Radius =  0.650 angstrom
                   Q00  =  -0.925537

H          x = -0.180870  y = -1.611675  z = -3.339863 angstrom
           Maximum rank =  0   Radius =  0.325 angstrom
                   Q00  =   0.073598

H          x =  0.496130  y = -0.026675  z = -2.933863 angstrom
           Maximum rank =  0   Radius =  0.325 angstrom
                   Q00  =   0.059993

H          x = -1.271000  y = -0.236995  z = -3.005273 angstrom
           Maximum rank =  0   Radius =  0.325 angstrom
                   Q00  =   0.048355

Total multipoles referred to origin at
           x =   0.000000,  y =    0.000000,  z =    0.000000 angstrom
                   Q00  =  -1.000000

Finished at 9:15:17 on 28 Apr 2020

  DMA results are available in the Python driver through the
	  variable('DMA DISTRIBUTED MULTIPOLES')
  and
	  variable('DMA TOTAL MULTIPOLES')
  commands.

    Psi4 stopped on: Tuesday, 28 April 2020 09:15AM
    Psi4 wall time for execution: 0:00:37.66

*** Psi4 exiting successfully. Buy a developer a beer!
