                               Psi4 1.3.2 release

  ==> Input File <==

--------------------------------------------------------------------------
import numpy as np
set {scf_type pk
basis cc-pvdz
d_convergence 10
gdma_switch   0
gdma_limit    0
gdma_origin   [ 0.0,  0.0,  0.0 ]
}
molecule test {
    units Angstrom
    0 1
    --
    0 1
    C                1.654403157940720    -2.652954671519360     2.247924923871690
    C               -0.500596842059280    -0.097954671519361    -0.421075076128311
    C                0.442403157940720    -0.972954671519361    -0.945075076128310
    C               -0.763596842059280    -0.008954671519361     0.937924923871689
    C                1.144403157940720    -1.811954671519360    -0.080075076128311
    C               -0.044596842059280    -0.843954671519361     1.795924923871689
    C                0.899403157940720    -1.745954671519360     1.297924923871689
    H               -1.038596842059280     0.540045328480639    -1.102075076128310
    H                0.609403157940720    -1.026954671519361    -2.011075076128310
    H               -1.498596842059280     0.686045328480639     1.320924923871690
    H                1.848403157940720    -2.523954671519361    -0.482075076128311
    H               -0.229596842059280    -0.790954671519361     2.859924923871689
    H                1.558403157940720    -3.683954671519361     1.903924923871690
    H                1.183403157940720    -2.595954671519361     3.230924923871690
    H                2.718443157940720    -2.393902671519361     2.351404923871690
    C               -1.320596842059280     3.536045328480640    -1.443075076128310
    C               -1.284596842059280     3.753045328480639    -2.961075076128310
    H               -1.821596842059280     4.359045328480639    -0.938075076128311
    H               -1.861596842059280     2.622045328480639    -1.212075076128311
    H               -0.303596842059280     3.461045328480639    -1.064075076128310
    H               -2.306596842059280     3.742045328480639    -3.342075076128311
    H               -0.826536842059280     4.730914328480639    -3.170725076128310
    H               -0.729766842059280     2.942809328480640    -3.456745076128311

}
e, wfn = energy('scf', return_wfn=True)
gdma(wfn)
dmavals = variable('DMA DISTRIBUTED MULTIPOLES')
charges = np.array(dmavals)
print(charges)
np.save('SSI-058PHE-131VAL-1-dimer.npy', np.array(charges))--------------------------------------------------------------------------

*** tstart() called on ds3
*** at Mon Apr 27 12:32:13 2020

   => Loading Basis Set <=

    Name: CC-PVDZ
    Role: ORBITAL
    Keyword: BASIS
    atoms 1-7, 16-17  entry C          line   138 file /theoryfs2/ds/metcalf/miniconda2/envs/tf2gpu/share/psi4/basis/cc-pvdz.gbs
    atoms 8-15, 18-23 entry H          line    22 file /theoryfs2/ds/metcalf/miniconda2/envs/tf2gpu/share/psi4/basis/cc-pvdz.gbs

         ---------------------------------------------------------
                                   SCF
               by Justin Turney, Rob Parrish, Andy Simmonett
                          and Daniel G. A. Smith
                              RHF Reference
                        1 Threads,    500 MiB Core
         ---------------------------------------------------------

  ==> Geometry <==

    Molecular point group: c1
    Full point group: C1

    Geometry (in Angstrom), charge = 0, multiplicity = 1:

       Center              X                  Y                   Z               Mass
    ------------   -----------------  -----------------  -----------------  -----------------
         C            1.654403157941    -2.652954671519     2.247924923872    12.000000000000
         C           -0.500596842059    -0.097954671519    -0.421075076128    12.000000000000
         C            0.442403157941    -0.972954671519    -0.945075076128    12.000000000000
         C           -0.763596842059    -0.008954671519     0.937924923872    12.000000000000
         C            1.144403157941    -1.811954671519    -0.080075076128    12.000000000000
         C           -0.044596842059    -0.843954671519     1.795924923872    12.000000000000
         C            0.899403157941    -1.745954671519     1.297924923872    12.000000000000
         H           -1.038596842059     0.540045328481    -1.102075076128     1.007825032230
         H            0.609403157941    -1.026954671519    -2.011075076128     1.007825032230
         H           -1.498596842059     0.686045328481     1.320924923872     1.007825032230
         H            1.848403157941    -2.523954671519    -0.482075076128     1.007825032230
         H           -0.229596842059    -0.790954671519     2.859924923872     1.007825032230
         H            1.558403157941    -3.683954671519     1.903924923872     1.007825032230
         H            1.183403157941    -2.595954671519     3.230924923872     1.007825032230
         H            2.718443157941    -2.393902671519     2.351404923872     1.007825032230
         C           -1.320596842059     3.536045328481    -1.443075076128    12.000000000000
         C           -1.284596842059     3.753045328481    -2.961075076128    12.000000000000
         H           -1.821596842059     4.359045328481    -0.938075076128     1.007825032230
         H           -1.861596842059     2.622045328481    -1.212075076128     1.007825032230
         H           -0.303596842059     3.461045328481    -1.064075076128     1.007825032230
         H           -2.306596842059     3.742045328481    -3.342075076128     1.007825032230
         H           -0.826536842059     4.730914328481    -3.170725076128     1.007825032230
         H           -0.729766842059     2.942809328481    -3.456745076128     1.007825032230

  Running in c1 symmetry.

  Rotational constants: A =      0.13274  B =      0.01684  C =      0.01552 [cm^-1]
  Rotational constants: A =   3979.37975  B =    504.99124  C =    465.18505 [MHz]
  Nuclear repulsion =  394.761961437757066

  Charge       = 0
  Multiplicity = 1
  Electrons    = 68
  Nalpha       = 34
  Nbeta        = 34

  ==> Algorithm <==

  SCF Algorithm Type is PK.
  DIIS enabled.
  MOM disabled.
  Fractional occupation disabled.
  Guess Type is SAD.
  Energy threshold   = 1.00e-06
  Density threshold  = 1.00e-10
  Integral threshold = 0.00e+00

  ==> Primary Basis <==

  Basis Set: CC-PVDZ
    Blend: CC-PVDZ
    Number of shells: 96
    Number of basis function: 196
    Number of Cartesian functions: 205
    Spherical Harmonics?: true
    Max angular momentum: 2

  ==> Pre-Iterations <==

   -------------------------------------------------------
    Irrep   Nso     Nmo     Nalpha   Nbeta   Ndocc  Nsocc
   -------------------------------------------------------
     A        196     196       0       0       0       0
   -------------------------------------------------------
    Total     196     196      34      34      34       0
   -------------------------------------------------------

  ==> Integral Setup <==

  Using integral reordering PK algorithm.
  Sizing the integral batches needed.
  Building batch lookup table.
   Calculation information:
      Number of atoms:                  23
      Number of AO shells:              96
      Number of primitives:            268
      Number of atomic orbitals:       205
      Number of basis functions:       196

      Integral cutoff                 1.00e-12
      Number of threads:                 1

	Batch   1 pq = [       0,    9405] index = [             0,44231715] size =     44231715
	Batch   2 pq = [    9405,   13301] index = [      44231715,88464951] size =     44233236
	Batch   3 pq = [   13301,   16290] index = [      88464951,132690195] size =     44225244
	Batch   4 pq = [   16290,   18810] index = [     132690195,176917455] size =     44227260
	Batch   5 pq = [   18810,   19306] index = [     176917455,186370471] size =      9453016
  Task number: 17
  Buffer size: 11059200
  Buffer per thread: 2
  We computed 8066355 shell quartets total.
  Whereas there are 10841496 unique shell quartets.

  ==> DiskJK: Disk-Based J/K Matrices <==

    J tasked:                  Yes
    K tasked:                  Yes
    wK tasked:                  No
    Memory [MiB]:              375
    Schwarz Cutoff:          1E-12

    OpenMP threads:              1

  Minimum eigenvalue in the overlap matrix is 3.1379660073E-04.
  Using Symmetric Orthogonalization.

  SCF Guess: Superposition of Atomic Densities via on-the-fly atomic UHF.

  ==> Iterations <==

                        Total Energy        Delta E     RMS |[F,P]|

   @RHF iter SAD:  -347.82824157172149   -3.47828e+02   0.00000e+00
   @RHF iter   1:  -348.76826077338120   -9.40019e-01   2.88288e-03 DIIS
   @RHF iter   2:  -348.95987478843824   -1.91614e-01   1.19000e-03 DIIS
   @RHF iter   3:  -348.98955322138517   -2.96784e-02   2.57153e-04 DIIS
   @RHF iter   4:  -348.99201301733513   -2.45980e-03   5.08183e-05 DIIS
   @RHF iter   5:  -348.99208235460821   -6.93373e-05   1.66013e-05 DIIS
   @RHF iter   6:  -348.99208932052511   -6.96592e-06   4.45208e-06 DIIS
   @RHF iter   7:  -348.99208993406967   -6.13545e-07   1.46933e-06 DIIS
   @RHF iter   8:  -348.99209002619199   -9.21223e-08   5.10973e-07 DIIS
   @RHF iter   9:  -348.99209005210116   -2.59092e-08   2.60513e-07 DIIS
   @RHF iter  10:  -348.99209005959051   -7.48935e-09   1.08198e-07 DIIS
   @RHF iter  11:  -348.99209006108987   -1.49936e-09   2.84219e-08 DIIS
   @RHF iter  12:  -348.99209006114893   -5.90603e-11   1.04535e-08 DIIS
   @RHF iter  13:  -348.99209006115700   -8.07177e-12   3.78372e-09 DIIS
   @RHF iter  14:  -348.99209006115632    6.82121e-13   1.11044e-09 DIIS
   @RHF iter  15:  -348.99209006115581    5.11591e-13   5.70631e-10 DIIS
   @RHF iter  16:  -348.99209006115751   -1.70530e-12   3.02254e-10 DIIS
   @RHF iter  17:  -348.99209006115723    2.84217e-13   9.28746e-11 DIIS
  Energy and wave function converged.

  ==> Post-Iterations <==

    Orbital Energies [Eh]
    ---------------------

    Doubly Occupied:

       1A    -11.241146     2A    -11.235184     3A    -11.234646
       4A    -11.231496     5A    -11.231230     6A    -11.229092
       7A    -11.228188     8A    -11.220550     9A    -11.216500
      10A     -1.150440    11A     -1.041194    12A     -1.017859
      13A     -1.011886    14A     -0.928170    15A     -0.838043
      16A     -0.824745    17A     -0.793846    18A     -0.689935
      19A     -0.631450    20A     -0.628756    21A     -0.600504
      22A     -0.596916    23A     -0.586087    24A     -0.575271
      25A     -0.556019    26A     -0.532818    27A     -0.500010
      28A     -0.489739    29A     -0.487953    30A     -0.486605
      31A     -0.484049    32A     -0.475052    33A     -0.332010
      34A     -0.320207

    Virtual:

      35A      0.134276    36A      0.143749    37A      0.172065
      38A      0.191957    39A      0.206493    40A      0.213660
      41A      0.233179    42A      0.244931    43A      0.250980
      44A      0.264385    45A      0.265671    46A      0.272215
      47A      0.276569    48A      0.287118    49A      0.301139
      50A      0.354163    51A      0.365556    52A      0.376518
      53A      0.393430    54A      0.456612    55A      0.461086
      56A      0.476994    57A      0.497734    58A      0.569356
      59A      0.591507    60A      0.602247    61A      0.611503
      62A      0.618968    63A      0.632448    64A      0.667280
      65A      0.673595    66A      0.687620    67A      0.693564
      68A      0.716452    69A      0.722340    70A      0.738111
      71A      0.742647    72A      0.743146    73A      0.754989
      74A      0.766468    75A      0.782493    76A      0.804805
      77A      0.828786    78A      0.850006    79A      0.856815
      80A      0.864579    81A      0.877415    82A      0.884608
      83A      0.890030    84A      0.893919    85A      0.897279
      86A      0.901521    87A      0.907939    88A      0.921082
      89A      0.924706    90A      0.929876    91A      0.941637
      92A      0.955047    93A      0.984004    94A      1.002782
      95A      1.033817    96A      1.054907    97A      1.114842
      98A      1.121061    99A      1.137809   100A      1.141358
     101A      1.154212   102A      1.174713   103A      1.199275
     104A      1.227784   105A      1.236196   106A      1.242966
     107A      1.260180   108A      1.269408   109A      1.302688
     110A      1.308863   111A      1.321378   112A      1.323237
     113A      1.412316   114A      1.474471   115A      1.480632
     116A      1.504892   117A      1.521497   118A      1.550468
     119A      1.574178   120A      1.605393   121A      1.679892
     122A      1.681530   123A      1.687001   124A      1.708213
     125A      1.738685   126A      1.744770   127A      1.756801
     128A      1.787544   129A      1.816636   130A      1.855561
     131A      1.863310   132A      1.878409   133A      1.880972
     134A      1.893967   135A      1.901710   136A      1.905672
     137A      1.914019   138A      1.922450   139A      1.938947
     140A      1.942896   141A      1.946430   142A      1.952056
     143A      1.959287   144A      1.965026   145A      1.969019
     146A      1.976395   147A      1.983189   148A      2.008824
     149A      2.037610   150A      2.053748   151A      2.068889
     152A      2.093518   153A      2.109624   154A      2.117749
     155A      2.135164   156A      2.164703   157A      2.169863
     158A      2.183782   159A      2.196195   160A      2.242313
     161A      2.268468   162A      2.287127   163A      2.290795
     164A      2.297037   165A      2.315886   166A      2.332652
     167A      2.346691   168A      2.446466   169A      2.452605
     170A      2.466854   171A      2.471760   172A      2.516006
     173A      2.531579   174A      2.561242   175A      2.580619
     176A      2.625909   177A      2.732377   178A      2.751202
     179A      2.762873   180A      2.769505   181A      2.790406
     182A      2.800499   183A      2.815309   184A      2.845094
     185A      2.849388   186A      2.851917   187A      2.869727
     188A      2.949188   189A      2.962746   190A      2.972677
     191A      3.011964   192A      3.034250   193A      3.151705
     194A      3.203582   195A      3.302146   196A      3.960040

    Final Occupation by Irrep:
              A
    DOCC [    34 ]

  @RHF Final Energy:  -348.99209006115723

   => Energetics <=

    Nuclear Repulsion Energy =            394.7619614377570656
    One-Electron Energy =               -1252.2129132878660585
    Two-Electron Energy =                 508.4588617889518218
    Total Energy =                       -348.9920900611572279

Computation Completed

Properties will be evaluated at   0.000000,   0.000000,   0.000000 [a0]

Properties computed using the SCF density matrix

  Nuclear Dipole Moment: [e a0]
     X:    -2.5297      Y:     9.4387      Z:    -4.7922

  Electronic Dipole Moment: [e a0]
     X:     2.5829      Y:    -9.5077      Z:     4.8637

  Dipole Moment: [e a0]
     X:     0.0532      Y:    -0.0690      Z:     0.0714     Total:     0.1127

  Dipole Moment: [D]
     X:     0.1353      Y:    -0.1754      Z:     0.1816     Total:     0.2864

*** tstop() called on ds3 at Mon Apr 27 12:35:10 2020
Module time:
	user time   =      58.29 seconds =       0.97 minutes
	system time =      26.07 seconds =       0.43 minutes
	total time  =        177 seconds =       2.95 minutes
Total time:
	user time   =      58.29 seconds =       0.97 minutes
	system time =      26.07 seconds =       0.43 minutes
	total time  =        177 seconds =       2.95 minutes
                                     G D M A

                                 by Anthony Stone

                           version 2.2.06, 22 June 2011

               Distributed Multipoles from Gaussian wavefunctions

Starting at 12:35:10 on 27 Apr 2020

Using SCF density matrix from file ./SSI/SSI-058PHE-131VAL-1-dimer.test.3448.fchk

                         Distributed Multipole Analysis

Standard DMA

Positions and radii in angstrom
Multipole moments in atomic units, ea_0^k for rank k

C          x =  1.654403  y = -2.652955  z =  2.247925 angstrom
           Maximum rank =  0   Radius =  0.650 angstrom
                   Q00  =  -0.200142

C          x = -0.500597  y = -0.097955  z = -0.421075 angstrom
           Maximum rank =  0   Radius =  0.650 angstrom
                   Q00  =   0.008189

C          x =  0.442403  y = -0.972955  z = -0.945075 angstrom
           Maximum rank =  0   Radius =  0.650 angstrom
                   Q00  =  -0.075569

C          x = -0.763597  y = -0.008955  z =  0.937925 angstrom
           Maximum rank =  0   Radius =  0.650 angstrom
                   Q00  =  -0.073357

C          x =  1.144403  y = -1.811955  z = -0.080075 angstrom
           Maximum rank =  0   Radius =  0.650 angstrom
                   Q00  =  -0.090335

C          x = -0.044597  y = -0.843955  z =  1.795925 angstrom
           Maximum rank =  0   Radius =  0.650 angstrom
                   Q00  =  -0.087947

C          x =  0.899403  y = -1.745955  z =  1.297925 angstrom
           Maximum rank =  0   Radius =  0.650 angstrom
                   Q00  =  -0.086122

H          x = -1.038597  y =  0.540045  z = -1.102075 angstrom
           Maximum rank =  0   Radius =  0.325 angstrom
                   Q00  =   0.057452

H          x =  0.609403  y = -1.026955  z = -2.011075 angstrom
           Maximum rank =  0   Radius =  0.325 angstrom
                   Q00  =   0.064557

H          x = -1.498597  y =  0.686045  z =  1.320925 angstrom
           Maximum rank =  0   Radius =  0.325 angstrom
                   Q00  =   0.067585

H          x =  1.848403  y = -2.523955  z = -0.482075 angstrom
           Maximum rank =  0   Radius =  0.325 angstrom
                   Q00  =   0.058087

H          x = -0.229597  y = -0.790955  z =  2.859925 angstrom
           Maximum rank =  0   Radius =  0.325 angstrom
                   Q00  =   0.058585

H          x =  1.558403  y = -3.683955  z =  1.903925 angstrom
           Maximum rank =  0   Radius =  0.325 angstrom
                   Q00  =   0.099456

H          x =  1.183403  y = -2.595955  z =  3.230925 angstrom
           Maximum rank =  0   Radius =  0.325 angstrom
                   Q00  =   0.095308

H          x =  2.718443  y = -2.393903  z =  2.351405 angstrom
           Maximum rank =  0   Radius =  0.325 angstrom
                   Q00  =   0.103545

C          x = -1.320597  y =  3.536045  z = -1.443075 angstrom
           Maximum rank =  0   Radius =  0.650 angstrom
                   Q00  =  -0.247500

C          x = -1.284597  y =  3.753045  z = -2.961075 angstrom
           Maximum rank =  0   Radius =  0.650 angstrom
                   Q00  =  -0.228295

H          x = -1.821597  y =  4.359045  z = -0.938075 angstrom
           Maximum rank =  0   Radius =  0.325 angstrom
                   Q00  =   0.080613

H          x = -1.861597  y =  2.622045  z = -1.212075 angstrom
           Maximum rank =  0   Radius =  0.325 angstrom
                   Q00  =   0.074845

H          x = -0.303597  y =  3.461045  z = -1.064075 angstrom
           Maximum rank =  0   Radius =  0.325 angstrom
                   Q00  =   0.083188

H          x = -2.306597  y =  3.742045  z = -3.342075 angstrom
           Maximum rank =  0   Radius =  0.325 angstrom
                   Q00  =   0.077728

H          x = -0.826537  y =  4.730914  z = -3.170725 angstrom
           Maximum rank =  0   Radius =  0.325 angstrom
                   Q00  =   0.080785

H          x = -0.729767  y =  2.942809  z = -3.456745 angstrom
           Maximum rank =  0   Radius =  0.325 angstrom
                   Q00  =   0.079343

Total multipoles referred to origin at
           x =   0.000000,  y =    0.000000,  z =    0.000000 angstrom
                   Q00  =  -0.000000

Finished at 12:35:10 on 27 Apr 2020

  DMA results are available in the Python driver through the
	  variable('DMA DISTRIBUTED MULTIPOLES')
  and
	  variable('DMA TOTAL MULTIPOLES')
  commands.

    Psi4 stopped on: Monday, 27 April 2020 12:35PM
    Psi4 wall time for execution: 0:02:57.50

*** Psi4 exiting successfully. Buy a developer a beer!
