                               Psi4 1.3.2 release

  ==> Input File <==

--------------------------------------------------------------------------
import numpy as np
set {scf_type pk
basis cc-pvdz
d_convergence 10
gdma_switch   0
gdma_limit    0
gdma_origin   [ 0.0,  0.0,  0.0 ]
}
molecule test {
    units Angstrom
    -1 1
    --
    -1 1
    C                0.377684495418064     2.237855768046960     1.411084593852243
    C               -0.226315504581936     3.440855768046960     0.683084593852243
    C                1.900684495418064     2.343855768046960     1.547084593852243
    O                2.514684495418063     3.238855768046960     0.922084593852243
    O                2.485684495418063     1.506855768046960     2.267084593852243
    H               -0.078315504581936     2.136855768046960     2.398084593852243
    H                0.141684495418064     1.334855768046960     0.848084593852243
    H               -1.309315504581937     3.312855768046960     0.665084593852243
    H                0.170613495418064     3.497344768046960    -0.341245406147757
    H               -0.017257504581936     4.362875768046960     1.245374593852243
    C               -0.099315504581936    -1.082144231953040    -3.653915406147756
    C               -1.518315504581936    -0.761144231953040    -0.139915406147757
    C               -1.110315504581936    -0.448144231953040    -1.433915406147757
    C               -1.359315504581937    -2.049144231953040     0.353084593852243
    C               -0.542315504581936    -1.421144231953040    -2.249915406147756
    C               -0.786315504581936    -3.025144231953040    -0.448915406147757
    C               -0.395315504581936    -2.713144231953040    -1.746915406147757
    O               -1.744315504581937    -2.337144231953040     1.630084593852243
    H               -1.959315504581936     0.005855768046960     0.481084593852243
    H               -1.237315504581936     0.559855768046960    -1.805915406147757
    H               -2.119315504581937    -1.567144231953040     2.067084593852243
    H               -0.657315504581936    -4.020144231953040    -0.054915406147757
    H                0.706684495418064    -1.756144231953040    -3.941915406147757
    H                0.309684495418064    -0.071144231953040    -3.652915406147756
    H                0.038684495418064    -3.480144231953040    -2.371915406147757
    H               -0.905517504581936    -1.136179231953040    -4.400315406147757

}
e, wfn = energy('scf', return_wfn=True)
gdma(wfn)
dmavals = variable('DMA DISTRIBUTED MULTIPOLES')
charges = np.array(dmavals)
print(charges)
np.save('SSI-129ASP-148TYR-1-dimer.npy', np.array(charges))--------------------------------------------------------------------------

*** tstart() called on ds3
*** at Sun Apr 26 20:51:45 2020

   => Loading Basis Set <=

    Name: CC-PVDZ
    Role: ORBITAL
    Keyword: BASIS
    atoms 1-3, 11-17  entry C          line   138 file /theoryfs2/ds/metcalf/miniconda2/envs/tf2gpu/share/psi4/basis/cc-pvdz.gbs
    atoms 4-5, 18     entry O          line   198 file /theoryfs2/ds/metcalf/miniconda2/envs/tf2gpu/share/psi4/basis/cc-pvdz.gbs
    atoms 6-10, 19-26 entry H          line    22 file /theoryfs2/ds/metcalf/miniconda2/envs/tf2gpu/share/psi4/basis/cc-pvdz.gbs

         ---------------------------------------------------------
                                   SCF
               by Justin Turney, Rob Parrish, Andy Simmonett
                          and Daniel G. A. Smith
                              RHF Reference
                        1 Threads,    500 MiB Core
         ---------------------------------------------------------

  ==> Geometry <==

    Molecular point group: c1
    Full point group: C1

    Geometry (in Angstrom), charge = -1, multiplicity = 1:

       Center              X                  Y                   Z               Mass
    ------------   -----------------  -----------------  -----------------  -----------------
         C            0.377684495418     2.237855768047     1.411084593852    12.000000000000
         C           -0.226315504582     3.440855768047     0.683084593852    12.000000000000
         C            1.900684495418     2.343855768047     1.547084593852    12.000000000000
         O            2.514684495418     3.238855768047     0.922084593852    15.994914619570
         O            2.485684495418     1.506855768047     2.267084593852    15.994914619570
         H           -0.078315504582     2.136855768047     2.398084593852     1.007825032230
         H            0.141684495418     1.334855768047     0.848084593852     1.007825032230
         H           -1.309315504582     3.312855768047     0.665084593852     1.007825032230
         H            0.170613495418     3.497344768047    -0.341245406148     1.007825032230
         H           -0.017257504582     4.362875768047     1.245374593852     1.007825032230
         C           -0.099315504582    -1.082144231953    -3.653915406148    12.000000000000
         C           -1.518315504582    -0.761144231953    -0.139915406148    12.000000000000
         C           -1.110315504582    -0.448144231953    -1.433915406148    12.000000000000
         C           -1.359315504582    -2.049144231953     0.353084593852    12.000000000000
         C           -0.542315504582    -1.421144231953    -2.249915406148    12.000000000000
         C           -0.786315504582    -3.025144231953    -0.448915406148    12.000000000000
         C           -0.395315504582    -2.713144231953    -1.746915406148    12.000000000000
         O           -1.744315504582    -2.337144231953     1.630084593852    15.994914619570
         H           -1.959315504582     0.005855768047     0.481084593852     1.007825032230
         H           -1.237315504582     0.559855768047    -1.805915406148     1.007825032230
         H           -2.119315504582    -1.567144231953     2.067084593852     1.007825032230
         H           -0.657315504582    -4.020144231953    -0.054915406148     1.007825032230
         H            0.706684495418    -1.756144231953    -3.941915406148     1.007825032230
         H            0.309684495418    -0.071144231953    -3.652915406148     1.007825032230
         H            0.038684495418    -3.480144231953    -2.371915406148     1.007825032230
         H           -0.905517504582    -1.136179231953    -4.400315406148     1.007825032230

  Running in c1 symmetry.

  Rotational constants: A =      0.03143  B =      0.01120  C =      0.00981 [cm^-1]
  Rotational constants: A =    942.37371  B =    335.72118  C =    294.24223 [MHz]
  Nuclear repulsion =  721.369379868187934

  Charge       = -1
  Multiplicity = 1
  Electrons    = 98
  Nalpha       = 49
  Nbeta        = 49

  ==> Algorithm <==

  SCF Algorithm Type is PK.
  DIIS enabled.
  MOM disabled.
  Fractional occupation disabled.
  Guess Type is SAD.
  Energy threshold   = 1.00e-06
  Density threshold  = 1.00e-10
  Integral threshold = 0.00e+00

  ==> Primary Basis <==

  Basis Set: CC-PVDZ
    Blend: CC-PVDZ
    Number of shells: 117
    Number of basis function: 247
    Number of Cartesian functions: 260
    Spherical Harmonics?: true
    Max angular momentum: 2

  ==> Pre-Iterations <==

   -------------------------------------------------------
    Irrep   Nso     Nmo     Nalpha   Nbeta   Ndocc  Nsocc
   -------------------------------------------------------
     A        247     247       0       0       0       0
   -------------------------------------------------------
    Total     247     247      49      49      49       0
   -------------------------------------------------------

  ==> Integral Setup <==

  Using integral reordering PK algorithm.
  Sizing the integral batches needed.
  Building batch lookup table.
   Calculation information:
      Number of atoms:                  26
      Number of AO shells:             117
      Number of primitives:            351
      Number of atomic orbitals:       260
      Number of basis functions:       247

      Integral cutoff                 1.00e-12
      Number of threads:                 1

	Batch   1 pq = [       0,    9405] index = [             0,44231715] size =     44231715
	Batch   2 pq = [    9405,   13301] index = [      44231715,88464951] size =     44233236
	Batch   3 pq = [   13301,   16290] index = [      88464951,132690195] size =     44225244
	Batch   4 pq = [   16290,   18810] index = [     132690195,176917455] size =     44227260
	Batch   5 pq = [   18810,   21030] index = [     176917455,221140965] size =     44223510
	Batch   6 pq = [   21030,   23037] index = [     221140965,265363203] size =     44222238
	Batch   7 pq = [   23037,   24883] index = [     265363203,309594286] size =     44231083
	Batch   8 pq = [   24883,   26601] index = [     309594286,353819901] size =     44225615
	Batch   9 pq = [   26601,   28214] index = [     353819901,398029005] size =     44209104
	Batch  10 pq = [   28214,   29740] index = [     398029005,442248670] size =     44219665
	Batch  11 pq = [   29740,   30628] index = [     442248670,469052506] size =     26803836
  Task number: 43
  Buffer size: 11059200
  Buffer per thread: 2
  We computed 19733318 shell quartets total.
  Whereas there are 23829156 unique shell quartets.

  ==> DiskJK: Disk-Based J/K Matrices <==

    J tasked:                  Yes
    K tasked:                  Yes
    wK tasked:                  No
    Memory [MiB]:              375
    Schwarz Cutoff:          1E-12

    OpenMP threads:              1

  Minimum eigenvalue in the overlap matrix is 3.2000908992E-04.
  Using Symmetric Orthogonalization.

  SCF Guess: Superposition of Atomic Densities via on-the-fly atomic UHF.

  ==> Iterations <==

                        Total Energy        Delta E     RMS |[F,P]|

   @RHF iter SAD:  -609.18738121406761   -6.09187e+02   0.00000e+00
   @RHF iter   1:  -610.51217356817199   -1.32479e+00   3.44258e-03 DIIS
   @RHF iter   2:  -610.81856689472193   -3.06393e-01   1.81276e-03 DIIS
   @RHF iter   3:  -610.89573390495707   -7.71670e-02   3.24037e-04 DIIS
   @RHF iter   4:  -610.89998929915896   -4.25539e-03   1.25814e-04 DIIS
   @RHF iter   5:  -610.90059969496861   -6.10396e-04   1.97973e-05 DIIS
   @RHF iter   6:  -610.90062208239237   -2.23874e-05   7.67483e-06 DIIS
   @RHF iter   7:  -610.90062467651569   -2.59412e-06   2.62557e-06 DIIS
   @RHF iter   8:  -610.90062504291302   -3.66397e-07   7.94680e-07 DIIS
   @RHF iter   9:  -610.90062508340361   -4.04906e-08   2.66169e-07 DIIS
   @RHF iter  10:  -610.90062508882102   -5.41741e-09   9.25584e-08 DIIS
   @RHF iter  11:  -610.90062508958727   -7.66249e-10   4.67719e-08 DIIS
   @RHF iter  12:  -610.90062508981691   -2.29647e-10   2.14619e-08 DIIS
   @RHF iter  13:  -610.90062508989536   -7.84439e-11   9.38422e-09 DIIS
   @RHF iter  14:  -610.90062508991082   -1.54614e-11   3.48930e-09 DIIS
   @RHF iter  15:  -610.90062508990945    1.36424e-12   1.01433e-09 DIIS
   @RHF iter  16:  -610.90062508990525    4.20641e-12   4.69836e-10 DIIS
   @RHF iter  17:  -610.90062508990786   -2.61480e-12   1.68103e-10 DIIS
   @RHF iter  18:  -610.90062508991275   -4.88853e-12   6.69408e-11 DIIS
  Energy and wave function converged.

  ==> Post-Iterations <==

    Orbital Energies [Eh]
    ---------------------

    Doubly Occupied:

       1A    -20.500631     2A    -20.256729     3A    -20.249771
       4A    -11.215177     5A    -11.157622     6A    -11.153973
       7A    -11.152217     8A    -11.151393     9A    -11.149174
      10A    -11.146976    11A    -11.110078    12A    -11.073872
      13A    -11.054568    14A     -1.317081    15A     -1.144259
      16A     -1.069591    17A     -1.029442    18A     -0.957225
      19A     -0.935178    20A     -0.870656    21A     -0.847542
      22A     -0.762451    23A     -0.720853    24A     -0.699758
      25A     -0.649864    26A     -0.586663    27A     -0.560136
      28A     -0.525685    29A     -0.507490    30A     -0.505153
      31A     -0.501565    32A     -0.492188    33A     -0.487651
      34A     -0.459720    35A     -0.448248    36A     -0.429118
      37A     -0.416767    38A     -0.402971    39A     -0.386452
      40A     -0.384232    41A     -0.359323    42A     -0.354811
      43A     -0.326190    44A     -0.298291    45A     -0.254401
      46A     -0.220491    47A     -0.178008    48A     -0.164743
      49A     -0.154527

    Virtual:

      50A      0.213639    51A      0.237465    52A      0.261904
      53A      0.263351    54A      0.289868    55A      0.293243
      56A      0.328335    57A      0.335217    58A      0.356111
      59A      0.360503    60A      0.367901    61A      0.391752
      62A      0.406514    63A      0.411200    64A      0.425401
      65A      0.451436    66A      0.458859    67A      0.494756
      68A      0.514862    69A      0.534740    70A      0.548436
      71A      0.568451    72A      0.577744    73A      0.585049
      74A      0.623482    75A      0.688626    76A      0.697668
      77A      0.713952    78A      0.719045    79A      0.727679
      80A      0.744390    81A      0.761813    82A      0.771093
      83A      0.772612    84A      0.787944    85A      0.794401
      86A      0.810713    87A      0.818840    88A      0.848540
      89A      0.857267    90A      0.865200    91A      0.874055
      92A      0.880637    93A      0.898428    94A      0.908709
      95A      0.930477    96A      0.933634    97A      0.951167
      98A      0.955185    99A      0.960273   100A      0.969997
     101A      0.975624   102A      0.997665   103A      1.002503
     104A      1.008964   105A      1.014593   106A      1.021229
     107A      1.023583   108A      1.038887   109A      1.046877
     110A      1.053934   111A      1.060531   112A      1.066171
     113A      1.079546   114A      1.095959   115A      1.101681
     116A      1.129918   117A      1.150539   118A      1.163688
     119A      1.209209   120A      1.227577   121A      1.228550
     122A      1.250528   123A      1.279654   124A      1.302607
     125A      1.310833   126A      1.320433   127A      1.331753
     128A      1.339199   129A      1.365744   130A      1.368954
     131A      1.382306   132A      1.395642   133A      1.398702
     134A      1.405101   135A      1.437000   136A      1.445501
     137A      1.460228   138A      1.471796   139A      1.492822
     140A      1.531356   141A      1.568033   142A      1.583060
     143A      1.607324   144A      1.611281   145A      1.621393
     146A      1.631917   147A      1.647876   148A      1.663045
     149A      1.695064   150A      1.702303   151A      1.735675
     152A      1.764388   153A      1.779889   154A      1.814407
     155A      1.822685   156A      1.824389   157A      1.835884
     158A      1.861299   159A      1.867895   160A      1.884924
     161A      1.892618   162A      1.935032   163A      1.958932
     164A      1.964115   165A      1.974656   166A      1.991585
     167A      1.995856   168A      1.998502   169A      2.015672
     170A      2.034879   171A      2.038626   172A      2.045217
     173A      2.052853   174A      2.059427   175A      2.066994
     176A      2.107446   177A      2.122885   178A      2.128125
     179A      2.137616   180A      2.141737   181A      2.144370
     182A      2.153192   183A      2.158212   184A      2.177338
     185A      2.195010   186A      2.215625   187A      2.230102
     188A      2.235091   189A      2.253385   190A      2.256689
     191A      2.290563   192A      2.309601   193A      2.336571
     194A      2.348022   195A      2.359807   196A      2.378696
     197A      2.385692   198A      2.403916   199A      2.450085
     200A      2.454170   201A      2.503487   202A      2.507363
     203A      2.534923   204A      2.544833   205A      2.557740
     206A      2.573283   207A      2.614860   208A      2.619838
     209A      2.626737   210A      2.653504   211A      2.680250
     212A      2.705878   213A      2.730189   214A      2.769847
     215A      2.805989   216A      2.833779   217A      2.850806
     218A      2.872870   219A      2.892400   220A      2.920320
     221A      2.923836   222A      2.979808   223A      2.985761
     224A      2.999350   225A      3.044509   226A      3.076063
     227A      3.088145   228A      3.131534   229A      3.173504
     230A      3.190869   231A      3.249640   232A      3.295827
     233A      3.308851   234A      3.335722   235A      3.368725
     236A      3.372123   237A      3.428271   238A      3.645778
     239A      3.658632   240A      3.757657   241A      3.779437
     242A      3.831536   243A      4.057541   244A      4.059545
     245A      4.082061   246A      4.213828   247A      4.275264

    Final Occupation by Irrep:
              A
    DOCC [    49 ]

  @RHF Final Energy:  -610.90062508991275

   => Energetics <=

    Nuclear Repulsion Energy =            721.3693798681879343
    One-Electron Energy =               -2278.9781909967682623
    Two-Electron Energy =                 946.7081860386675771
    Total Energy =                       -610.9006250899127508

Computation Completed

Properties will be evaluated at   0.000000,   0.000000,   0.000000 [a0]

Properties computed using the SCF density matrix

  Nuclear Dipole Moment: [e a0]
     X:    -6.4682      Y:     2.9924      Z:    -8.2869

  Electronic Dipole Moment: [e a0]
     X:     1.7236      Y:    -6.7794      Z:     5.3739

  Dipole Moment: [e a0]
     X:    -4.7445      Y:    -3.7871      Z:    -2.9130     Total:     6.7334

  Dipole Moment: [D]
     X:   -12.0594      Y:    -9.6258      Z:    -7.4042     Total:    17.1145

*** tstop() called on ds3 at Sun Apr 26 20:57:39 2020
Module time:
	user time   =     164.65 seconds =       2.74 minutes
	system time =      75.80 seconds =       1.26 minutes
	total time  =        354 seconds =       5.90 minutes
Total time:
	user time   =     164.65 seconds =       2.74 minutes
	system time =      75.80 seconds =       1.26 minutes
	total time  =        354 seconds =       5.90 minutes
                                     G D M A

                                 by Anthony Stone

                           version 2.2.06, 22 June 2011

               Distributed Multipoles from Gaussian wavefunctions

Starting at 20:57:39 on 26 Apr 2020

Using SCF density matrix from file ./SSI/SSI-129ASP-148TYR-1-dimer.test.10504.fchk

                         Distributed Multipole Analysis

Standard DMA

Positions and radii in angstrom
Multipole moments in atomic units, ea_0^k for rank k

C          x =  0.377684  y =  2.237856  z =  1.411085 angstrom
           Maximum rank =  0   Radius =  0.650 angstrom
                   Q00  =  -0.163566

C          x = -0.226316  y =  3.440856  z =  0.683085 angstrom
           Maximum rank =  0   Radius =  0.650 angstrom
                   Q00  =  -0.227371

C          x =  1.900684  y =  2.343856  z =  1.547085 angstrom
           Maximum rank =  0   Radius =  0.650 angstrom
                   Q00  =   1.040155

O          x =  2.514684  y =  3.238856  z =  0.922085 angstrom
           Maximum rank =  0   Radius =  0.650 angstrom
                   Q00  =  -0.968757

O          x =  2.485684  y =  1.506856  z =  2.267085 angstrom
           Maximum rank =  0   Radius =  0.650 angstrom
                   Q00  =  -0.942275

H          x = -0.078316  y =  2.136856  z =  2.398085 angstrom
           Maximum rank =  0   Radius =  0.325 angstrom
                   Q00  =   0.033090

H          x =  0.141684  y =  1.334856  z =  0.848085 angstrom
           Maximum rank =  0   Radius =  0.325 angstrom
                   Q00  =   0.061528

H          x = -1.309316  y =  3.312856  z =  0.665085 angstrom
           Maximum rank =  0   Radius =  0.325 angstrom
                   Q00  =   0.000956

H          x =  0.170613  y =  3.497345  z = -0.341245 angstrom
           Maximum rank =  0   Radius =  0.325 angstrom
                   Q00  =   0.084967

H          x = -0.017258  y =  4.362876  z =  1.245375 angstrom
           Maximum rank =  0   Radius =  0.325 angstrom
                   Q00  =   0.079648

C          x = -0.099316  y = -1.082144  z = -3.653915 angstrom
           Maximum rank =  0   Radius =  0.650 angstrom
                   Q00  =  -0.196920

C          x = -1.518316  y = -0.761144  z = -0.139915 angstrom
           Maximum rank =  0   Radius =  0.650 angstrom
                   Q00  =  -0.154469

C          x = -1.110316  y = -0.448144  z = -1.433915 angstrom
           Maximum rank =  0   Radius =  0.650 angstrom
                   Q00  =  -0.046112

C          x = -1.359316  y = -2.049144  z =  0.353085 angstrom
           Maximum rank =  0   Radius =  0.650 angstrom
                   Q00  =   0.316045

C          x = -0.542316  y = -1.421144  z = -2.249915 angstrom
           Maximum rank =  0   Radius =  0.650 angstrom
                   Q00  =  -0.143196

C          x = -0.786316  y = -3.025144  z = -0.448915 angstrom
           Maximum rank =  0   Radius =  0.650 angstrom
                   Q00  =  -0.120294

C          x = -0.395316  y = -2.713144  z = -1.746915 angstrom
           Maximum rank =  0   Radius =  0.650 angstrom
                   Q00  =   0.063199

O          x = -1.744316  y = -2.337144  z =  1.630085 angstrom
           Maximum rank =  0   Radius =  0.650 angstrom
                   Q00  =  -0.682144

H          x = -1.959316  y =  0.005856  z =  0.481085 angstrom
           Maximum rank =  0   Radius =  0.325 angstrom
                   Q00  =   0.081083

H          x = -1.237316  y =  0.559856  z = -1.805915 angstrom
           Maximum rank =  0   Radius =  0.325 angstrom
                   Q00  =   0.074010

H          x = -2.119316  y = -1.567144  z =  2.067085 angstrom
           Maximum rank =  0   Radius =  0.325 angstrom
                   Q00  =   0.408786

H          x = -0.657316  y = -4.020144  z = -0.054915 angstrom
           Maximum rank =  0   Radius =  0.325 angstrom
                   Q00  =   0.068545

H          x =  0.706684  y = -1.756144  z = -3.941915 angstrom
           Maximum rank =  0   Radius =  0.325 angstrom
                   Q00  =   0.091951

H          x =  0.309684  y = -0.071144  z = -3.652915 angstrom
           Maximum rank =  0   Radius =  0.325 angstrom
                   Q00  =   0.107177

H          x =  0.038684  y = -3.480144  z = -2.371915 angstrom
           Maximum rank =  0   Radius =  0.325 angstrom
                   Q00  =   0.049496

H          x = -0.905518  y = -1.136179  z = -4.400315 angstrom
           Maximum rank =  0   Radius =  0.325 angstrom
                   Q00  =   0.084469

Total multipoles referred to origin at
           x =   0.000000,  y =    0.000000,  z =    0.000000 angstrom
                   Q00  =  -1.000000

Finished at 20:57:39 on 26 Apr 2020

  DMA results are available in the Python driver through the
	  variable('DMA DISTRIBUTED MULTIPOLES')
  and
	  variable('DMA TOTAL MULTIPOLES')
  commands.

    Psi4 stopped on: Sunday, 26 April 2020 08:57PM
    Psi4 wall time for execution: 0:05:54.29

*** Psi4 exiting successfully. Buy a developer a beer!
