                               Psi4 1.3.2 release

  ==> Input File <==

--------------------------------------------------------------------------
import numpy as np
set {scf_type pk
basis cc-pvdz
d_convergence 10
gdma_switch   0
gdma_limit    0
gdma_origin   [ 0.0,  0.0,  0.0 ]
}
molecule test {
    units Angstrom
    0 1
    --
    0 1
    C               -1.217722943352816    -0.253566456757068     0.800779916749316
    C               -1.662722943352816    -1.607566456757068     1.281779916749316
    C               -1.571722943352816     0.683433543242932     1.926779916749316
    H               -1.781722943352816     0.019433543242932    -0.093220083250684
    H               -0.150722943352816    -0.241566456757068     0.588779916749316
    H               -1.929722943352816    -2.231566456757069     0.427779916749316
    H               -0.870722943352816    -2.071566456757068     1.870779916749316
    H               -1.699722943352816     1.708433543242932     1.572779916749316
    H               -0.792722943352816     0.651433543242932     2.688779916749316
    H               -2.524422943352816    -1.380130456757068     1.926559916749316
    H               -2.497962943352816     0.267847543242932     2.350289916749316
    C                1.697277056647184     0.340433543242932    -1.451220083250684
    C                2.675277056647184     0.817433543242932    -2.516220083250684
    H                1.522277056647184    -0.731566456757068    -1.543220083250684
    H                2.111277056647184     0.546433543242932    -0.465220083250684
    H                0.751277056647184     0.872433543242932    -1.550220083250684
    H                3.583277056647184     0.215433543242932    -2.466220083250684
    H                2.948277056647184     1.842433543242932    -2.265220083250684
    H                2.279297056647184     0.768653543242932    -3.541320083250684

}
e, wfn = energy('scf', return_wfn=True)
gdma(wfn)
dmavals = variable('DMA DISTRIBUTED MULTIPOLES')
charges = np.array(dmavals)
print(charges)
np.save('SSI-130PRO-139ILE-1-dimer.npy', np.array(charges))--------------------------------------------------------------------------

*** tstart() called on ds3
*** at Mon Apr 27 07:28:23 2020

   => Loading Basis Set <=

    Name: CC-PVDZ
    Role: ORBITAL
    Keyword: BASIS
    atoms 1-3, 12-13  entry C          line   138 file /theoryfs2/ds/metcalf/miniconda2/envs/tf2gpu/share/psi4/basis/cc-pvdz.gbs
    atoms 4-11, 14-19 entry H          line    22 file /theoryfs2/ds/metcalf/miniconda2/envs/tf2gpu/share/psi4/basis/cc-pvdz.gbs

         ---------------------------------------------------------
                                   SCF
               by Justin Turney, Rob Parrish, Andy Simmonett
                          and Daniel G. A. Smith
                              RHF Reference
                        1 Threads,    500 MiB Core
         ---------------------------------------------------------

  ==> Geometry <==

    Molecular point group: c1
    Full point group: C1

    Geometry (in Angstrom), charge = 0, multiplicity = 1:

       Center              X                  Y                   Z               Mass
    ------------   -----------------  -----------------  -----------------  -----------------
         C           -1.217722943353    -0.253566456757     0.800779916749    12.000000000000
         C           -1.662722943353    -1.607566456757     1.281779916749    12.000000000000
         C           -1.571722943353     0.683433543243     1.926779916749    12.000000000000
         H           -1.781722943353     0.019433543243    -0.093220083251     1.007825032230
         H           -0.150722943353    -0.241566456757     0.588779916749     1.007825032230
         H           -1.929722943353    -2.231566456757     0.427779916749     1.007825032230
         H           -0.870722943353    -2.071566456757     1.870779916749     1.007825032230
         H           -1.699722943353     1.708433543243     1.572779916749     1.007825032230
         H           -0.792722943353     0.651433543243     2.688779916749     1.007825032230
         H           -2.524422943353    -1.380130456757     1.926559916749     1.007825032230
         H           -2.497962943353     0.267847543243     2.350289916749     1.007825032230
         C            1.697277056647     0.340433543243    -1.451220083251    12.000000000000
         C            2.675277056647     0.817433543243    -2.516220083251    12.000000000000
         H            1.522277056647    -0.731566456757    -1.543220083251     1.007825032230
         H            2.111277056647     0.546433543243    -0.465220083251     1.007825032230
         H            0.751277056647     0.872433543243    -1.550220083251     1.007825032230
         H            3.583277056647     0.215433543243    -2.466220083251     1.007825032230
         H            2.948277056647     1.842433543243    -2.265220083251     1.007825032230
         H            2.279297056647     0.768653543243    -3.541320083251     1.007825032230

  Running in c1 symmetry.

  Rotational constants: A =      0.27777  B =      0.03368  C =      0.03106 [cm^-1]
  Rotational constants: A =   8327.19690  B =   1009.55824  C =    931.29007 [MHz]
  Nuclear repulsion =  176.353787574119593

  Charge       = 0
  Multiplicity = 1
  Electrons    = 44
  Nalpha       = 22
  Nbeta        = 22

  ==> Algorithm <==

  SCF Algorithm Type is PK.
  DIIS enabled.
  MOM disabled.
  Fractional occupation disabled.
  Guess Type is SAD.
  Energy threshold   = 1.00e-06
  Density threshold  = 1.00e-10
  Integral threshold = 0.00e+00

  ==> Primary Basis <==

  Basis Set: CC-PVDZ
    Blend: CC-PVDZ
    Number of shells: 72
    Number of basis function: 140
    Number of Cartesian functions: 145
    Spherical Harmonics?: true
    Max angular momentum: 2

  ==> Pre-Iterations <==

   -------------------------------------------------------
    Irrep   Nso     Nmo     Nalpha   Nbeta   Ndocc  Nsocc
   -------------------------------------------------------
     A        140     140       0       0       0       0
   -------------------------------------------------------
    Total     140     140      22      22      22       0
   -------------------------------------------------------

  ==> Integral Setup <==

  Using integral reordering PK algorithm.
  Sizing the integral batches needed.
  Building batch lookup table.
   Calculation information:
      Number of atoms:                  19
      Number of AO shells:              72
      Number of primitives:            180
      Number of atomic orbitals:       145
      Number of basis functions:       140

      Integral cutoff                 1.00e-12
      Number of threads:                 1

	Batch   1 pq = [       0,    9405] index = [             0,44231715] size =     44231715
	Batch   2 pq = [    9405,    9870] index = [      44231715,48713385] size =      4481670
  Task number: 5
  Buffer size: 11059200
  Buffer per thread: 2
  We computed 2662928 shell quartets total.
  Whereas there are 3454506 unique shell quartets.

  ==> DiskJK: Disk-Based J/K Matrices <==

    J tasked:                  Yes
    K tasked:                  Yes
    wK tasked:                  No
    Memory [MiB]:              375
    Schwarz Cutoff:          1E-12

    OpenMP threads:              1

  Minimum eigenvalue in the overlap matrix is 4.6373289451E-03.
  Using Symmetric Orthogonalization.

  SCF Guess: Superposition of Atomic Densities via on-the-fly atomic UHF.

  ==> Iterations <==

                        Total Energy        Delta E     RMS |[F,P]|

   @RHF iter SAD:  -196.55481377352660   -1.96555e+02   0.00000e+00
   @RHF iter   1:  -197.28798432816194   -7.33171e-01   3.89864e-03 DIIS
   @RHF iter   2:  -197.45238133259721   -1.64397e-01   1.70891e-03 DIIS
   @RHF iter   3:  -197.48292771346735   -3.05464e-02   3.31816e-04 DIIS
   @RHF iter   4:  -197.48518490139730   -2.25719e-03   5.07056e-05 DIIS
   @RHF iter   5:  -197.48522721184639   -4.23104e-05   1.54664e-05 DIIS
   @RHF iter   6:  -197.48523097165176   -3.75981e-06   2.70940e-06 DIIS
   @RHF iter   7:  -197.48523110513077   -1.33479e-07   5.05311e-07 DIIS
   @RHF iter   8:  -197.48523111040265   -5.27189e-09   1.15905e-07 DIIS
   @RHF iter   9:  -197.48523111067723   -2.74582e-10   3.74864e-08 DIIS
   @RHF iter  10:  -197.48523111070642   -2.91891e-11   8.20241e-09 DIIS
   @RHF iter  11:  -197.48523111070796   -1.53477e-12   1.58849e-09 DIIS
   @RHF iter  12:  -197.48523111070881   -8.52651e-13   3.02246e-10 DIIS
   @RHF iter  13:  -197.48523111070847    3.41061e-13   5.54582e-11 DIIS
  Energy and wave function converged.

  ==> Post-Iterations <==

    Orbital Energies [Eh]
    ---------------------

    Doubly Occupied:

       1A    -11.217862     2A    -11.216893     3A    -11.211411
       4A    -11.210748     5A    -11.210132     6A     -1.069649
       7A     -1.020646     8A     -0.914742     9A     -0.838127
      10A     -0.795643    11A     -0.637218    12A     -0.613386
      13A     -0.600528    14A     -0.597869    15A     -0.542689
      16A     -0.512149    17A     -0.506888    18A     -0.486975
      19A     -0.484612    20A     -0.477293    21A     -0.465491
      22A     -0.459507

    Virtual:

      23A      0.176178    24A      0.193626    25A      0.214037
      26A      0.224359    27A      0.227383    28A      0.251583
      29A      0.257589    30A      0.261972    31A      0.281647
      32A      0.286242    33A      0.293309    34A      0.300834
      35A      0.329565    36A      0.333927    37A      0.381376
      38A      0.420560    39A      0.441613    40A      0.566425
      41A      0.588367    42A      0.593846    43A      0.600387
      44A      0.606596    45A      0.631441    46A      0.655617
      47A      0.676493    48A      0.697709    49A      0.732374
      50A      0.792043    51A      0.817490    52A      0.854790
      53A      0.864059    54A      0.872202    55A      0.889641
      56A      0.892078    57A      0.896029    58A      0.900315
      59A      0.904387    60A      0.908775    61A      0.916944
      62A      0.918233    63A      0.919801    64A      0.949376
      65A      0.956001    66A      0.964642    67A      0.972659
      68A      1.046124    69A      1.095058    70A      1.114890
      71A      1.124499    72A      1.131617    73A      1.207854
      74A      1.251785    75A      1.412884    76A      1.463188
      77A      1.480967    78A      1.486950    79A      1.494821
      80A      1.592636    81A      1.618438    82A      1.623881
      83A      1.632575    84A      1.683010    85A      1.694763
      86A      1.724781    87A      1.736814    88A      1.799333
      89A      1.852404    90A      1.860560    91A      1.867615
      92A      1.890459    93A      1.896619    94A      1.920555
      95A      1.925050    96A      1.940398    97A      1.943051
      98A      1.944878    99A      1.955605   100A      1.961014
     101A      1.965128   102A      1.991310   103A      2.017500
     104A      2.024092   105A      2.032772   106A      2.078669
     107A      2.093204   108A      2.111838   109A      2.131411
     110A      2.168443   111A      2.209458   112A      2.231556
     113A      2.302988   114A      2.307880   115A      2.356638
     116A      2.362907   117A      2.444077   118A      2.450844
     119A      2.461110   120A      2.472079   121A      2.503104
     122A      2.559144   123A      2.562677   124A      2.582529
     125A      2.649830   126A      2.697185   127A      2.751658
     128A      2.767915   129A      2.781391   130A      2.791161
     131A      2.797984   132A      2.847662   133A      2.858024
     134A      2.866694   135A      2.869427   136A      2.932151
     137A      2.945232   138A      2.956346   139A      2.958502
     140A      3.081883

    Final Occupation by Irrep:
              A
    DOCC [    22 ]

  @RHF Final Energy:  -197.48523111070847

   => Energetics <=

    Nuclear Repulsion Energy =            176.3537875741195933
    One-Electron Energy =                -613.4971223184547853
    Two-Electron Energy =                 239.6581036336267516
    Total Energy =                       -197.4852311107084688

Computation Completed

Properties will be evaluated at   0.000000,   0.000000,   0.000000 [a0]

Properties computed using the SCF density matrix

  Nuclear Dipole Moment: [e a0]
     X:     0.8887      Y:     0.2214      Z:    -0.4677

  Electronic Dipole Moment: [e a0]
     X:    -0.8410      Y:    -0.2069      Z:     0.4337

  Dipole Moment: [e a0]
     X:     0.0477      Y:     0.0144      Z:    -0.0340     Total:     0.0603

  Dipole Moment: [D]
     X:     0.1212      Y:     0.0367      Z:    -0.0864     Total:     0.1533

*** tstop() called on ds3 at Mon Apr 27 07:28:43 2020
Module time:
	user time   =      14.53 seconds =       0.24 minutes
	system time =       6.83 seconds =       0.11 minutes
	total time  =         20 seconds =       0.33 minutes
Total time:
	user time   =      14.53 seconds =       0.24 minutes
	system time =       6.83 seconds =       0.11 minutes
	total time  =         20 seconds =       0.33 minutes
                                     G D M A

                                 by Anthony Stone

                           version 2.2.06, 22 June 2011

               Distributed Multipoles from Gaussian wavefunctions

Starting at 7:28:43 on 27 Apr 2020

Using SCF density matrix from file ./SSI/SSI-130PRO-139ILE-1-dimer.test.13762.fchk

                         Distributed Multipole Analysis

Standard DMA

Positions and radii in angstrom
Multipole moments in atomic units, ea_0^k for rank k

C          x = -1.217723  y = -0.253566  z =  0.800780 angstrom
           Maximum rank =  0   Radius =  0.650 angstrom
                   Q00  =  -0.092357

C          x = -1.662723  y = -1.607566  z =  1.281780 angstrom
           Maximum rank =  0   Radius =  0.650 angstrom
                   Q00  =  -0.226038

C          x = -1.571723  y =  0.683434  z =  1.926780 angstrom
           Maximum rank =  0   Radius =  0.650 angstrom
                   Q00  =  -0.216963

H          x = -1.781723  y =  0.019434  z = -0.093220 angstrom
           Maximum rank =  0   Radius =  0.325 angstrom
                   Q00  =   0.049037

H          x = -0.150723  y = -0.241566  z =  0.588780 angstrom
           Maximum rank =  0   Radius =  0.325 angstrom
                   Q00  =   0.057959

H          x = -1.929723  y = -2.231566  z =  0.427780 angstrom
           Maximum rank =  0   Radius =  0.325 angstrom
                   Q00  =   0.084458

H          x = -0.870723  y = -2.071566  z =  1.870780 angstrom
           Maximum rank =  0   Radius =  0.325 angstrom
                   Q00  =   0.076546

H          x = -1.699723  y =  1.708434  z =  1.572780 angstrom
           Maximum rank =  0   Radius =  0.325 angstrom
                   Q00  =   0.079873

H          x = -0.792723  y =  0.651434  z =  2.688780 angstrom
           Maximum rank =  0   Radius =  0.325 angstrom
                   Q00  =   0.074726

H          x = -2.524423  y = -1.380130  z =  1.926560 angstrom
           Maximum rank =  0   Radius =  0.325 angstrom
                   Q00  =   0.059295

H          x = -2.497963  y =  0.267848  z =  2.350290 angstrom
           Maximum rank =  0   Radius =  0.325 angstrom
                   Q00  =   0.050596

C          x =  1.697277  y =  0.340434  z = -1.451220 angstrom
           Maximum rank =  0   Radius =  0.650 angstrom
                   Q00  =  -0.241106

C          x =  2.675277  y =  0.817434  z = -2.516220 angstrom
           Maximum rank =  0   Radius =  0.650 angstrom
                   Q00  =  -0.228500

H          x =  1.522277  y = -0.731566  z = -1.543220 angstrom
           Maximum rank =  0   Radius =  0.325 angstrom
                   Q00  =   0.077412

H          x =  2.111277  y =  0.546434  z = -0.465220 angstrom
           Maximum rank =  0   Radius =  0.325 angstrom
                   Q00  =   0.076271

H          x =  0.751277  y =  0.872434  z = -1.550220 angstrom
           Maximum rank =  0   Radius =  0.325 angstrom
                   Q00  =   0.080607

H          x =  3.583277  y =  0.215434  z = -2.466220 angstrom
           Maximum rank =  0   Radius =  0.325 angstrom
                   Q00  =   0.078176

H          x =  2.948277  y =  1.842434  z = -2.265220 angstrom
           Maximum rank =  0   Radius =  0.325 angstrom
                   Q00  =   0.077091

H          x =  2.279297  y =  0.768654  z = -3.541320 angstrom
           Maximum rank =  0   Radius =  0.325 angstrom
                   Q00  =   0.082917

Total multipoles referred to origin at
           x =   0.000000,  y =    0.000000,  z =    0.000000 angstrom
                   Q00  =  -0.000000

Finished at 7:28:43 on 27 Apr 2020

  DMA results are available in the Python driver through the
	  variable('DMA DISTRIBUTED MULTIPOLES')
  and
	  variable('DMA TOTAL MULTIPOLES')
  commands.

    Psi4 stopped on: Monday, 27 April 2020 07:28AM
    Psi4 wall time for execution: 0:00:20.61

*** Psi4 exiting successfully. Buy a developer a beer!
