                               Psi4 1.3.2 release

  ==> Input File <==

--------------------------------------------------------------------------
import numpy as np
set {scf_type pk
basis cc-pvdz
d_convergence 10
gdma_switch   0
gdma_limit    0
gdma_origin   [ 0.0,  0.0,  0.0 ]
}
molecule test {
    units Angstrom
    0 1
    --
    0 1
    C               -1.392117220261996     0.936346727975775     0.404993559998438
    C               -1.666117220261996     0.964346727975775     1.902993559998438
    H               -1.406117220261996    -0.086653272024225     0.031993559998438
    H               -2.164117220261996     1.498346727975775    -0.120006440001562
    H               -0.423117220261996     1.389346727975775     0.194993559998438
    H               -2.641117220261997     0.510346727975775     2.083993559998438
    H               -1.713117220261996     2.011346727975775     2.193993559998438
    H               -0.910743320261996     0.442656727975775     2.509007559998437
    C                1.931882779738004    -0.643653272024225    -0.581006440001562
    C                1.133882779738004    -1.264653272024225    -1.727006440001562
    H                2.997882779738004    -0.773653272024225    -0.758006440001562
    H                1.702882779738004     0.421346727975775    -0.508006440001562
    H                1.679882779738004    -1.101653272024225     0.372993559998438
    H                0.076882779738004    -1.202653272024225    -1.478006440001562
    H                1.410225779738004    -2.320042272024225    -1.867677440001562
    H                1.300900779738004    -0.698087272024225    -2.654965440001562

}
e, wfn = energy('scf', return_wfn=True)
gdma(wfn)
dmavals = variable('DMA DISTRIBUTED MULTIPOLES')
charges = np.array(dmavals)
print(charges)
np.save('SSI-066ILE-146VAL-1-dimer.npy', np.array(charges))--------------------------------------------------------------------------

*** tstart() called on ds3
*** at Sun Apr 26 18:46:46 2020

   => Loading Basis Set <=

    Name: CC-PVDZ
    Role: ORBITAL
    Keyword: BASIS
    atoms 1-2, 9-10  entry C          line   138 file /theoryfs2/ds/metcalf/miniconda2/envs/tf2gpu/share/psi4/basis/cc-pvdz.gbs
    atoms 3-8, 11-16 entry H          line    22 file /theoryfs2/ds/metcalf/miniconda2/envs/tf2gpu/share/psi4/basis/cc-pvdz.gbs

         ---------------------------------------------------------
                                   SCF
               by Justin Turney, Rob Parrish, Andy Simmonett
                          and Daniel G. A. Smith
                              RHF Reference
                        1 Threads,    500 MiB Core
         ---------------------------------------------------------

  ==> Geometry <==

    Molecular point group: c1
    Full point group: C1

    Geometry (in Angstrom), charge = 0, multiplicity = 1:

       Center              X                  Y                   Z               Mass
    ------------   -----------------  -----------------  -----------------  -----------------
         C           -1.392117220262     0.936346727976     0.404993559998    12.000000000000
         C           -1.666117220262     0.964346727976     1.902993559998    12.000000000000
         H           -1.406117220262    -0.086653272024     0.031993559998     1.007825032230
         H           -2.164117220262     1.498346727976    -0.120006440002     1.007825032230
         H           -0.423117220262     1.389346727976     0.194993559998     1.007825032230
         H           -2.641117220262     0.510346727976     2.083993559998     1.007825032230
         H           -1.713117220262     2.011346727976     2.193993559998     1.007825032230
         H           -0.910743320262     0.442656727976     2.509007559998     1.007825032230
         C            1.931882779738    -0.643653272024    -0.581006440002    12.000000000000
         C            1.133882779738    -1.264653272024    -1.727006440002    12.000000000000
         H            2.997882779738    -0.773653272024    -0.758006440002     1.007825032230
         H            1.702882779738     0.421346727976    -0.508006440002     1.007825032230
         H            1.679882779738    -1.101653272024     0.372993559998     1.007825032230
         H            0.076882779738    -1.202653272024    -1.478006440002     1.007825032230
         H            1.410225779738    -2.320042272024    -1.867677440002     1.007825032230
         H            1.300900779738    -0.698087272024    -2.654965440002     1.007825032230

  Running in c1 symmetry.

  Rotational constants: A =      0.41802  B =      0.05590  C =      0.05243 [cm^-1]
  Rotational constants: A =  12532.01526  B =   1675.93516  C =   1571.75731 [MHz]
  Nuclear repulsion =  124.205913520963009

  Charge       = 0
  Multiplicity = 1
  Electrons    = 36
  Nalpha       = 18
  Nbeta        = 18

  ==> Algorithm <==

  SCF Algorithm Type is PK.
  DIIS enabled.
  MOM disabled.
  Fractional occupation disabled.
  Guess Type is SAD.
  Energy threshold   = 1.00e-06
  Density threshold  = 1.00e-10
  Integral threshold = 0.00e+00

  ==> Primary Basis <==

  Basis Set: CC-PVDZ
    Blend: CC-PVDZ
    Number of shells: 60
    Number of basis function: 116
    Number of Cartesian functions: 120
    Spherical Harmonics?: true
    Max angular momentum: 2

  ==> Pre-Iterations <==

   -------------------------------------------------------
    Irrep   Nso     Nmo     Nalpha   Nbeta   Ndocc  Nsocc
   -------------------------------------------------------
     A        116     116       0       0       0       0
   -------------------------------------------------------
    Total     116     116      18      18      18       0
   -------------------------------------------------------

  ==> Integral Setup <==

  Using integral reordering PK algorithm.
  Sizing the integral batches needed.
  Building batch lookup table.
   Calculation information:
      Number of atoms:                  16
      Number of AO shells:              60
      Number of primitives:            148
      Number of atomic orbitals:       120
      Number of basis functions:       116

      Integral cutoff                 1.00e-12
      Number of threads:                 1

	Batch   1 pq = [       0,    6786] index = [             0,23028291] size =     23028291
  Task number: 3
  Buffer size: 11059200
  Buffer per thread: 2
  We computed 1511159 shell quartets total.
  Whereas there are 1675365 unique shell quartets.

  ==> DiskJK: Disk-Based J/K Matrices <==

    J tasked:                  Yes
    K tasked:                  Yes
    wK tasked:                  No
    Memory [MiB]:              375
    Schwarz Cutoff:          1E-12

    OpenMP threads:              1

  Minimum eigenvalue in the overlap matrix is 7.2991010753E-03.
  Using Symmetric Orthogonalization.

  SCF Guess: Superposition of Atomic Densities via on-the-fly atomic UHF.

  ==> Iterations <==

                        Total Energy        Delta E     RMS |[F,P]|

   @RHF iter SAD:  -157.37013944509403   -1.57370e+02   0.00000e+00
   @RHF iter   1:  -158.30635141005794   -9.36212e-01   4.22766e-03 DIIS
   @RHF iter   2:  -158.44043589391134   -1.34084e-01   1.80524e-03 DIIS
   @RHF iter   3:  -158.46405472679413   -2.36188e-02   3.49801e-04 DIIS
   @RHF iter   4:  -158.46587759825681   -1.82287e-03   3.81023e-05 DIIS
   @RHF iter   5:  -158.46590035889619   -2.27606e-05   6.08313e-06 DIIS
   @RHF iter   6:  -158.46590093074803   -5.71852e-07   6.71219e-07 DIIS
   @RHF iter   7:  -158.46590093700976   -6.26173e-09   1.20795e-07 DIIS
   @RHF iter   8:  -158.46590093715560   -1.45832e-10   3.43243e-08 DIIS
   @RHF iter   9:  -158.46590093716912   -1.35287e-11   6.56193e-09 DIIS
   @RHF iter  10:  -158.46590093716966   -5.40012e-13   1.65268e-09 DIIS
   @RHF iter  11:  -158.46590093717035   -6.82121e-13   3.17126e-10 DIIS
   @RHF iter  12:  -158.46590093716958    7.67386e-13   4.86451e-11 DIIS
  Energy and wave function converged.

  ==> Post-Iterations <==

    Orbital Energies [Eh]
    ---------------------

    Doubly Occupied:

       1A    -11.218277     2A    -11.218037     3A    -11.216737
       4A    -11.215953     5A     -1.021467     6A     -1.017083
       7A     -0.837717     8A     -0.836598     9A     -0.605142
      10A     -0.602062    11A     -0.595234    12A     -0.592094
      13A     -0.503955    14A     -0.500579    15A     -0.491952
      16A     -0.487205    17A     -0.480927    18A     -0.479675

    Virtual:

      19A      0.169942    20A      0.202056    21A      0.225188
      22A      0.229854    23A      0.243481    24A      0.254110
      25A      0.265971    26A      0.273879    27A      0.281488
      28A      0.295335    29A      0.348764    30A      0.363465
      31A      0.391875    32A      0.413133    33A      0.561047
      34A      0.585792    35A      0.599381    36A      0.603613
      37A      0.610991    38A      0.633825    39A      0.670657
      40A      0.679626    41A      0.696000    42A      0.799695
      43A      0.845832    44A      0.848823    45A      0.880745
      46A      0.887582    47A      0.894948    48A      0.898039
      49A      0.905366    50A      0.909241    51A      0.918694
      52A      0.931851    53A      0.954815    54A      0.967450
      55A      0.983748    56A      0.993484    57A      1.120051
      58A      1.124550    59A      1.137589    60A      1.152501
      61A      1.220305    62A      1.272743    63A      1.459442
      64A      1.470861    65A      1.481820    66A      1.497586
      67A      1.553824    68A      1.600828    69A      1.683051
      70A      1.684232    71A      1.692677    72A      1.712226
      73A      1.854355    74A      1.860379    75A      1.865387
      76A      1.882634    77A      1.888195    78A      1.908815
      79A      1.933603    80A      1.942332    81A      1.948353
      82A      1.950005    83A      1.957222    84A      1.960634
      85A      1.970676    86A      1.971201    87A      1.982630
      88A      2.030913    89A      2.085229    90A      2.113446
      91A      2.121971    92A      2.135096    93A      2.296180
      94A      2.304239    95A      2.316591    96A      2.323767
      97A      2.446983    98A      2.452205    99A      2.461800
     100A      2.483243   101A      2.552571   102A      2.564478
     103A      2.577324   104A      2.589704   105A      2.767324
     106A      2.769481   107A      2.788474   108A      2.800657
     109A      2.855158   110A      2.857248   111A      2.859245
     112A      2.869281   113A      2.945135   114A      2.953186
     115A      2.972789   116A      2.988444

    Final Occupation by Irrep:
              A
    DOCC [    18 ]

  @RHF Final Energy:  -158.46590093716958

   => Energetics <=

    Nuclear Repulsion Energy =            124.2059135209630085
    One-Electron Energy =                -457.5022436040501930
    Two-Electron Energy =                 174.8304291459176056
    Total Energy =                       -158.4659009371695788

Computation Completed

Properties will be evaluated at   0.000000,   0.000000,   0.000000 [a0]

Properties computed using the SCF density matrix

  Nuclear Dipole Moment: [e a0]
     X:    -0.0841      Y:     0.0850      Z:     0.0003

  Electronic Dipole Moment: [e a0]
     X:     0.0638      Y:    -0.0678      Z:     0.0049

  Dipole Moment: [e a0]
     X:    -0.0202      Y:     0.0172      Z:     0.0052     Total:     0.0270

  Dipole Moment: [D]
     X:    -0.0514      Y:     0.0436      Z:     0.0133     Total:     0.0687

*** tstop() called on ds3 at Sun Apr 26 18:46:56 2020
Module time:
	user time   =       7.60 seconds =       0.13 minutes
	system time =       2.68 seconds =       0.04 minutes
	total time  =         10 seconds =       0.17 minutes
Total time:
	user time   =       7.60 seconds =       0.13 minutes
	system time =       2.68 seconds =       0.04 minutes
	total time  =         10 seconds =       0.17 minutes
                                     G D M A

                                 by Anthony Stone

                           version 2.2.06, 22 June 2011

               Distributed Multipoles from Gaussian wavefunctions

Starting at 18:46:56 on 26 Apr 2020

Using SCF density matrix from file ./SSI/SSI-066ILE-146VAL-1-dimer.test.14999.fchk

                         Distributed Multipole Analysis

Standard DMA

Positions and radii in angstrom
Multipole moments in atomic units, ea_0^k for rank k

C          x = -1.392117  y =  0.936347  z =  0.404994 angstrom
           Maximum rank =  0   Radius =  0.650 angstrom
                   Q00  =  -0.235215

C          x = -1.666117  y =  0.964347  z =  1.902994 angstrom
           Maximum rank =  0   Radius =  0.650 angstrom
                   Q00  =  -0.236101

H          x = -1.406117  y = -0.086653  z =  0.031994 angstrom
           Maximum rank =  0   Radius =  0.325 angstrom
                   Q00  =   0.077532

H          x = -2.164117  y =  1.498347  z = -0.120006 angstrom
           Maximum rank =  0   Radius =  0.325 angstrom
                   Q00  =   0.079722

H          x = -0.423117  y =  1.389347  z =  0.194994 angstrom
           Maximum rank =  0   Radius =  0.325 angstrom
                   Q00  =   0.078876

H          x = -2.641117  y =  0.510347  z =  2.083994 angstrom
           Maximum rank =  0   Radius =  0.325 angstrom
                   Q00  =   0.077088

H          x = -1.713117  y =  2.011347  z =  2.193994 angstrom
           Maximum rank =  0   Radius =  0.325 angstrom
                   Q00  =   0.076272

H          x = -0.910743  y =  0.442657  z =  2.509008 angstrom
           Maximum rank =  0   Radius =  0.325 angstrom
                   Q00  =   0.081915

C          x =  1.931883  y = -0.643653  z = -0.581006 angstrom
           Maximum rank =  0   Radius =  0.650 angstrom
                   Q00  =  -0.246024

C          x =  1.133883  y = -1.264653  z = -1.727006 angstrom
           Maximum rank =  0   Radius =  0.650 angstrom
                   Q00  =  -0.229615

H          x =  2.997883  y = -0.773653  z = -0.758006 angstrom
           Maximum rank =  0   Radius =  0.325 angstrom
                   Q00  =   0.078584

H          x =  1.702883  y =  0.421347  z = -0.508006 angstrom
           Maximum rank =  0   Radius =  0.325 angstrom
                   Q00  =   0.078820

H          x =  1.679883  y = -1.101653  z =  0.372994 angstrom
           Maximum rank =  0   Radius =  0.325 angstrom
                   Q00  =   0.078982

H          x =  0.076883  y = -1.202653  z = -1.478006 angstrom
           Maximum rank =  0   Radius =  0.325 angstrom
                   Q00  =   0.081029

H          x =  1.410226  y = -2.320042  z = -1.867677 angstrom
           Maximum rank =  0   Radius =  0.325 angstrom
                   Q00  =   0.079094

H          x =  1.300901  y = -0.698087  z = -2.654965 angstrom
           Maximum rank =  0   Radius =  0.325 angstrom
                   Q00  =   0.079040

Total multipoles referred to origin at
           x =   0.000000,  y =    0.000000,  z =    0.000000 angstrom
                   Q00  =  -0.000000

Finished at 18:46:56 on 26 Apr 2020

  DMA results are available in the Python driver through the
	  variable('DMA DISTRIBUTED MULTIPOLES')
  and
	  variable('DMA TOTAL MULTIPOLES')
  commands.

    Psi4 stopped on: Sunday, 26 April 2020 06:46PM
    Psi4 wall time for execution: 0:00:10.11

*** Psi4 exiting successfully. Buy a developer a beer!
