                               Psi4 1.3.2 release

  ==> Input File <==

--------------------------------------------------------------------------
import numpy as np
set {scf_type pk
basis cc-pvdz
d_convergence 10
gdma_switch   0
gdma_limit    0
gdma_origin   [ 0.0,  0.0,  0.0 ]
}
molecule test {
    units Angstrom
    0 1
    --
    0 1
    C                0.706248987965525    -0.521924160455718     0.966815262278376
    C                1.966248987965525    -0.386924160455718     1.826815262278376
    C                0.812248987965525     0.175075839544282    -0.355184737721625
    C                1.060248987965525    -0.313924160455718    -1.600184737721625
    C                0.869248987965525     1.875075839544282    -1.750184737721625
    N                0.709248987965525     1.543075839544282    -0.475184737721625
    N                1.108248987965525     0.772075839544281    -2.450184737721624
    H                0.442248987965525    -1.566924160455718     0.809815262278376
    H               -0.109751012034475    -0.049924160455718     1.508815262278375
    H                2.061248987965525     0.665075839544282     2.092815262278375
    H                1.213248987965525    -1.353924160455718    -1.858184737721625
    H                0.821248987965525     2.880075839544281    -2.155184737721624
    H                1.269248987965525     0.746075839544282    -3.451184737721625
    H                2.870128987965525    -0.657937160455718     1.261515262278375
    H                1.862738987965525    -0.923303160455718     2.781585262278375
    C               -2.796751012034475    -1.749924160455718     2.067815262278375
    C               -3.923751012034475    -1.048924160455718     1.323815262278375
    H               -3.002751012034475    -1.764924160455718     3.135815262278375
    H               -2.695751012034475    -2.773924160455718     1.703815262278376
    H               -1.862751012034475    -1.226924160455718     1.898815262278375
    H               -3.706751012034475    -1.082924160455718     0.253815262278375
    H               -3.994331012034475     0.002199839544282     1.640295262278376
    H               -4.867601012034476    -1.586301160455718     1.498115262278375

}
e, wfn = energy('scf', return_wfn=True)
gdma(wfn)
dmavals = variable('DMA DISTRIBUTED MULTIPOLES')
charges = np.array(dmavals)
print(charges)
np.save('SSI-013HIE-032ALA-1-dimer.npy', np.array(charges))--------------------------------------------------------------------------

*** tstart() called on ds3
*** at Mon Apr 27 03:25:58 2020

   => Loading Basis Set <=

    Name: CC-PVDZ
    Role: ORBITAL
    Keyword: BASIS
    atoms 1-5, 16-17  entry C          line   138 file /theoryfs2/ds/metcalf/miniconda2/envs/tf2gpu/share/psi4/basis/cc-pvdz.gbs
    atoms 6-7         entry N          line   168 file /theoryfs2/ds/metcalf/miniconda2/envs/tf2gpu/share/psi4/basis/cc-pvdz.gbs
    atoms 8-15, 18-23 entry H          line    22 file /theoryfs2/ds/metcalf/miniconda2/envs/tf2gpu/share/psi4/basis/cc-pvdz.gbs

         ---------------------------------------------------------
                                   SCF
               by Justin Turney, Rob Parrish, Andy Simmonett
                          and Daniel G. A. Smith
                              RHF Reference
                        1 Threads,    500 MiB Core
         ---------------------------------------------------------

  ==> Geometry <==

    Molecular point group: c1
    Full point group: C1

    Geometry (in Angstrom), charge = 0, multiplicity = 1:

       Center              X                  Y                   Z               Mass
    ------------   -----------------  -----------------  -----------------  -----------------
         C            0.706248987966    -0.521924160456     0.966815262278    12.000000000000
         C            1.966248987966    -0.386924160456     1.826815262278    12.000000000000
         C            0.812248987966     0.175075839544    -0.355184737722    12.000000000000
         C            1.060248987966    -0.313924160456    -1.600184737722    12.000000000000
         C            0.869248987966     1.875075839544    -1.750184737722    12.000000000000
         N            0.709248987966     1.543075839544    -0.475184737722    14.003074004430
         N            1.108248987966     0.772075839544    -2.450184737722    14.003074004430
         H            0.442248987966    -1.566924160456     0.809815262278     1.007825032230
         H           -0.109751012034    -0.049924160456     1.508815262278     1.007825032230
         H            2.061248987966     0.665075839544     2.092815262278     1.007825032230
         H            1.213248987966    -1.353924160456    -1.858184737722     1.007825032230
         H            0.821248987966     2.880075839544    -2.155184737722     1.007825032230
         H            1.269248987966     0.746075839544    -3.451184737722     1.007825032230
         H            2.870128987966    -0.657937160456     1.261515262278     1.007825032230
         H            1.862738987966    -0.923303160456     2.781585262278     1.007825032230
         C           -2.796751012034    -1.749924160456     2.067815262278    12.000000000000
         C           -3.923751012034    -1.048924160456     1.323815262278    12.000000000000
         H           -3.002751012034    -1.764924160456     3.135815262278     1.007825032230
         H           -2.695751012034    -2.773924160456     1.703815262278     1.007825032230
         H           -1.862751012034    -1.226924160456     1.898815262278     1.007825032230
         H           -3.706751012034    -1.082924160456     0.253815262278     1.007825032230
         H           -3.994331012034     0.002199839544     1.640295262278     1.007825032230
         H           -4.867601012034    -1.586301160456     1.498115262278     1.007825032230

  Running in c1 symmetry.

  Rotational constants: A =      0.06141  B =      0.02177  C =      0.01813 [cm^-1]
  Rotational constants: A =   1841.04204  B =    652.61688  C =    543.55017 [MHz]
  Nuclear repulsion =  424.925285926105119

  Charge       = 0
  Multiplicity = 1
  Electrons    = 70
  Nalpha       = 35
  Nbeta        = 35

  ==> Algorithm <==

  SCF Algorithm Type is PK.
  DIIS enabled.
  MOM disabled.
  Fractional occupation disabled.
  Guess Type is SAD.
  Energy threshold   = 1.00e-06
  Density threshold  = 1.00e-10
  Integral threshold = 0.00e+00

  ==> Primary Basis <==

  Basis Set: CC-PVDZ
    Blend: CC-PVDZ
    Number of shells: 96
    Number of basis function: 196
    Number of Cartesian functions: 205
    Spherical Harmonics?: true
    Max angular momentum: 2

  ==> Pre-Iterations <==

   -------------------------------------------------------
    Irrep   Nso     Nmo     Nalpha   Nbeta   Ndocc  Nsocc
   -------------------------------------------------------
     A        196     196       0       0       0       0
   -------------------------------------------------------
    Total     196     196      35      35      35       0
   -------------------------------------------------------

  ==> Integral Setup <==

  Using integral reordering PK algorithm.
  Sizing the integral batches needed.
  Building batch lookup table.
   Calculation information:
      Number of atoms:                  23
      Number of AO shells:              96
      Number of primitives:            268
      Number of atomic orbitals:       205
      Number of basis functions:       196

      Integral cutoff                 1.00e-12
      Number of threads:                 1

	Batch   1 pq = [       0,    9405] index = [             0,44231715] size =     44231715
	Batch   2 pq = [    9405,   13301] index = [      44231715,88464951] size =     44233236
	Batch   3 pq = [   13301,   16290] index = [      88464951,132690195] size =     44225244
	Batch   4 pq = [   16290,   18810] index = [     132690195,176917455] size =     44227260
	Batch   5 pq = [   18810,   19306] index = [     176917455,186370471] size =      9453016
  Task number: 17
  Buffer size: 11059200
  Buffer per thread: 2
  We computed 8639327 shell quartets total.
  Whereas there are 10841496 unique shell quartets.

  ==> DiskJK: Disk-Based J/K Matrices <==

    J tasked:                  Yes
    K tasked:                  Yes
    wK tasked:                  No
    Memory [MiB]:              375
    Schwarz Cutoff:          1E-12

    OpenMP threads:              1

  Minimum eigenvalue in the overlap matrix is 1.1442969976E-03.
  Using Symmetric Orthogonalization.

  SCF Guess: Superposition of Atomic Densities via on-the-fly atomic UHF.

  ==> Iterations <==

                        Total Energy        Delta E     RMS |[F,P]|

   @RHF iter SAD:  -381.22382803683200   -3.81224e+02   0.00000e+00
   @RHF iter   1:  -381.89332884048707   -6.69501e-01   3.13874e-03 DIIS
   @RHF iter   2:  -382.08840917266519   -1.95080e-01   1.60647e-03 DIIS
   @RHF iter   3:  -382.13579162085790   -4.73824e-02   4.10432e-04 DIIS
   @RHF iter   4:  -382.13981851775299   -4.02690e-03   1.74468e-04 DIIS
   @RHF iter   5:  -382.14047959758204   -6.61080e-04   2.35224e-05 DIIS
   @RHF iter   6:  -382.14050133740426   -2.17398e-05   9.73294e-06 DIIS
   @RHF iter   7:  -382.14050422028657   -2.88288e-06   3.34082e-06 DIIS
   @RHF iter   8:  -382.14050479577276   -5.75486e-07   1.31130e-06 DIIS
   @RHF iter   9:  -382.14050492247367   -1.26701e-07   4.51110e-07 DIIS
   @RHF iter  10:  -382.14050493516453   -1.26909e-08   1.56448e-07 DIIS
   @RHF iter  11:  -382.14050493695402   -1.78949e-09   6.40500e-08 DIIS
   @RHF iter  12:  -382.14050493718628   -2.32262e-10   2.54095e-08 DIIS
   @RHF iter  13:  -382.14050493722522   -3.89377e-11   7.56374e-09 DIIS
   @RHF iter  14:  -382.14050493722834   -3.12639e-12   2.83502e-09 DIIS
   @RHF iter  15:  -382.14050493722834    0.00000e+00   1.06418e-09 DIIS
   @RHF iter  16:  -382.14050493722931   -9.66338e-13   3.85958e-10 DIIS
   @RHF iter  17:  -382.14050493722999   -6.82121e-13   1.30279e-10 DIIS
   @RHF iter  18:  -382.14050493722908    9.09495e-13   3.81828e-11 DIIS
  Energy and wave function converged.

  ==> Post-Iterations <==

    Orbital Energies [Eh]
    ---------------------

    Doubly Occupied:

       1A    -15.621454     2A    -15.527896     3A    -11.293135
       4A    -11.251210     5A    -11.238869     6A    -11.222767
       7A    -11.213398     8A    -11.213377     9A    -11.209194
      10A     -1.341592    11A     -1.154846    12A     -1.049427
      13A     -1.014865    14A     -0.984165    15A     -0.858819
      16A     -0.830140    17A     -0.817630    18A     -0.759362
      19A     -0.735411    20A     -0.622110    21A     -0.606559
      22A     -0.598622    23A     -0.595179    24A     -0.592986
      25A     -0.581585    26A     -0.558654    27A     -0.513680
      28A     -0.498325    29A     -0.492318    30A     -0.480558
      31A     -0.476186    32A     -0.474430    33A     -0.409473
      34A     -0.377711    35A     -0.309486

    Virtual:

      36A      0.174514    37A      0.180423    38A      0.187998
      39A      0.203187    40A      0.219704    41A      0.226356
      42A      0.237371    43A      0.247727    44A      0.254296
      45A      0.256973    46A      0.271829    47A      0.279550
      48A      0.289496    49A      0.290971    50A      0.295449
      51A      0.350029    52A      0.388990    53A      0.390891
      54A      0.409574    55A      0.417692    56A      0.438919
      57A      0.481112    58A      0.492004    59A      0.596578
      60A      0.600105    61A      0.607581    62A      0.611092
      63A      0.616739    64A      0.635282    65A      0.653063
      66A      0.665346    67A      0.683427    68A      0.691522
      69A      0.697819    70A      0.708549    71A      0.762997
      72A      0.765324    73A      0.788305    74A      0.814852
      75A      0.831397    76A      0.852660    77A      0.858323
      78A      0.889671    79A      0.892988    80A      0.896012
      81A      0.898983    82A      0.902143    83A      0.911492
      84A      0.915068    85A      0.918840    86A      0.927592
      87A      0.934276    88A      0.951941    89A      0.964612
      90A      0.972646    91A      0.980091    92A      1.000441
      93A      1.019420    94A      1.050325    95A      1.066259
      96A      1.099824    97A      1.115839    98A      1.130585
      99A      1.135108   100A      1.136849   101A      1.152851
     102A      1.183003   103A      1.231414   104A      1.255342
     105A      1.299456   106A      1.319272   107A      1.325553
     108A      1.337844   109A      1.397344   110A      1.419863
     111A      1.426718   112A      1.456071   113A      1.484684
     114A      1.487824   115A      1.500460   116A      1.540474
     117A      1.566289   118A      1.594007   119A      1.614320
     120A      1.670023   121A      1.684451   122A      1.694413
     123A      1.708201   124A      1.738529   125A      1.748759
     126A      1.771334   127A      1.824518   128A      1.836127
     129A      1.857402   130A      1.865279   131A      1.876375
     132A      1.894845   133A      1.906004   134A      1.911485
     135A      1.927287   136A      1.943159   137A      1.949690
     138A      1.954130   139A      1.957240   140A      1.969757
     141A      1.972654   142A      1.982276   143A      1.990372
     144A      2.010554   145A      2.019667   146A      2.035490
     147A      2.046688   148A      2.061660   149A      2.090203
     150A      2.106278   151A      2.113648   152A      2.125740
     153A      2.168560   154A      2.187129   155A      2.207456
     156A      2.249425   157A      2.281956   158A      2.297225
     159A      2.306794   160A      2.319582   161A      2.353008
     162A      2.391881   163A      2.443880   164A      2.447524
     165A      2.462085   166A      2.476123   167A      2.488947
     168A      2.529056   169A      2.564946   170A      2.572617
     171A      2.583762   172A      2.602574   173A      2.612306
     174A      2.680436   175A      2.733703   176A      2.757544
     177A      2.767525   178A      2.778840   179A      2.801105
     180A      2.804022   181A      2.832329   182A      2.852541
     183A      2.864398   184A      2.866504   185A      2.902270
     186A      2.915317   187A      2.930751   188A      2.939755
     189A      2.962934   190A      2.996875   191A      3.017673
     192A      3.083822   193A      3.174055   194A      3.265470
     195A      3.475683   196A      3.792034

    Final Occupation by Irrep:
              A
    DOCC [    35 ]

  @RHF Final Energy:  -382.14050493722908

   => Energetics <=

    Nuclear Repulsion Energy =            424.9252859261051185
    One-Electron Energy =               -1359.0807458544300061
    Two-Electron Energy =                 552.0149549910958058
    Total Energy =                       -382.1405049372291387

Computation Completed

Properties will be evaluated at   0.000000,   0.000000,   0.000000 [a0]

Properties computed using the SCF density matrix

  Nuclear Dipole Moment: [e a0]
     X:    -9.0983      Y:    -8.1567      Z:    10.4338

  Electronic Dipole Moment: [e a0]
     X:     9.3771      Y:     7.7991      Z:   -11.7237

  Dipole Moment: [e a0]
     X:     0.2787      Y:    -0.3576      Z:    -1.2899     Total:     1.3673

  Dipole Moment: [D]
     X:     0.7085      Y:    -0.9089      Z:    -3.2786     Total:     3.4752

*** tstop() called on ds3 at Mon Apr 27 03:30:14 2020
Module time:
	user time   =      57.52 seconds =       0.96 minutes
	system time =      26.94 seconds =       0.45 minutes
	total time  =        256 seconds =       4.27 minutes
Total time:
	user time   =      57.52 seconds =       0.96 minutes
	system time =      26.94 seconds =       0.45 minutes
	total time  =        256 seconds =       4.27 minutes
                                     G D M A

                                 by Anthony Stone

                           version 2.2.06, 22 June 2011

               Distributed Multipoles from Gaussian wavefunctions

Starting at 3:30:14 on 27 Apr 2020

Using SCF density matrix from file ./SSI/SSI-013HIE-032ALA-1-dimer.test.18305.fchk

                         Distributed Multipole Analysis

Standard DMA

Positions and radii in angstrom
Multipole moments in atomic units, ea_0^k for rank k

C          x =  0.706249  y = -0.521924  z =  0.966815 angstrom
           Maximum rank =  0   Radius =  0.650 angstrom
                   Q00  =  -0.017159

C          x =  1.966249  y = -0.386924  z =  1.826815 angstrom
           Maximum rank =  0   Radius =  0.650 angstrom
                   Q00  =  -0.239573

C          x =  0.812249  y =  0.175076  z = -0.355185 angstrom
           Maximum rank =  0   Radius =  0.650 angstrom
                   Q00  =   0.221240

C          x =  1.060249  y = -0.313924  z = -1.600185 angstrom
           Maximum rank =  0   Radius =  0.650 angstrom
                   Q00  =  -0.000578

C          x =  0.869249  y =  1.875076  z = -1.750185 angstrom
           Maximum rank =  0   Radius =  0.650 angstrom
                   Q00  =   0.464043

N          x =  0.709249  y =  1.543076  z = -0.475185 angstrom
           Maximum rank =  0   Radius =  0.650 angstrom
                   Q00  =  -0.786817

N          x =  1.108249  y =  0.772076  z = -2.450185 angstrom
           Maximum rank =  0   Radius =  0.650 angstrom
                   Q00  =  -0.479376

H          x =  0.442249  y = -1.566924  z =  0.809815 angstrom
           Maximum rank =  0   Radius =  0.325 angstrom
                   Q00  =   0.059592

H          x = -0.109751  y = -0.049924  z =  1.508815 angstrom
           Maximum rank =  0   Radius =  0.325 angstrom
                   Q00  =   0.081584

H          x =  2.061249  y =  0.665076  z =  2.092815 angstrom
           Maximum rank =  0   Radius =  0.325 angstrom
                   Q00  =   0.092628

H          x =  1.213249  y = -1.353924  z = -1.858185 angstrom
           Maximum rank =  0   Radius =  0.325 angstrom
                   Q00  =   0.103068

H          x =  0.821249  y =  2.880076  z = -2.155185 angstrom
           Maximum rank =  0   Radius =  0.325 angstrom
                   Q00  =   0.123877

H          x =  1.269249  y =  0.746076  z = -3.451185 angstrom
           Maximum rank =  0   Radius =  0.325 angstrom
                   Q00  =   0.218947

H          x =  2.870129  y = -0.657937  z =  1.261515 angstrom
           Maximum rank =  0   Radius =  0.325 angstrom
                   Q00  =   0.079248

H          x =  1.862739  y = -0.923303  z =  2.781585 angstrom
           Maximum rank =  0   Radius =  0.325 angstrom
                   Q00  =   0.081790

C          x = -2.796751  y = -1.749924  z =  2.067815 angstrom
           Maximum rank =  0   Radius =  0.650 angstrom
                   Q00  =  -0.236352

C          x = -3.923751  y = -1.048924  z =  1.323815 angstrom
           Maximum rank =  0   Radius =  0.650 angstrom
                   Q00  =  -0.235712

H          x = -3.002751  y = -1.764924  z =  3.135815 angstrom
           Maximum rank =  0   Radius =  0.325 angstrom
                   Q00  =   0.076107

H          x = -2.695751  y = -2.773924  z =  1.703815 angstrom
           Maximum rank =  0   Radius =  0.325 angstrom
                   Q00  =   0.073651

H          x = -1.862751  y = -1.226924  z =  1.898815 angstrom
           Maximum rank =  0   Radius =  0.325 angstrom
                   Q00  =   0.086110

H          x = -3.706751  y = -1.082924  z =  0.253815 angstrom
           Maximum rank =  0   Radius =  0.325 angstrom
                   Q00  =   0.077191

H          x = -3.994331  y =  0.002200  z =  1.640295 angstrom
           Maximum rank =  0   Radius =  0.325 angstrom
                   Q00  =   0.081228

H          x = -4.867601  y = -1.586301  z =  1.498115 angstrom
           Maximum rank =  0   Radius =  0.325 angstrom
                   Q00  =   0.075263

Total multipoles referred to origin at
           x =   0.000000,  y =    0.000000,  z =    0.000000 angstrom
                   Q00  =  -0.000000

Finished at 3:30:14 on 27 Apr 2020

  DMA results are available in the Python driver through the
	  variable('DMA DISTRIBUTED MULTIPOLES')
  and
	  variable('DMA TOTAL MULTIPOLES')
  commands.

    Psi4 stopped on: Monday, 27 April 2020 03:30AM
    Psi4 wall time for execution: 0:04:16.06

*** Psi4 exiting successfully. Buy a developer a beer!
