                               Psi4 1.3.2 release

  ==> Input File <==

--------------------------------------------------------------------------
import numpy as np
set {scf_type pk
basis cc-pvdz
d_convergence 10
gdma_switch   0
gdma_limit    0
gdma_origin   [ 0.0,  0.0,  0.0 ]
}
molecule test {
    units Angstrom
    0 1
    --
    0 1
    C               -1.234054951250647     0.524448886254019    -2.703899975754788
    C               -0.235054951250647     1.413448886254019    -1.957899975754789
    O               -0.198054951250647     1.323448886254019    -0.702899975754788
    O                0.511945048749353     2.184448886254019    -2.592899975754788
    H               -2.208054951250647     0.598448886254019    -2.216899975754788
    H               -0.882054951250647    -0.503551113745981    -2.614899975754788
    H               -1.332764951250647     0.796090886254019    -3.765249975754788
    C               -1.342054951250647    -2.114551113745980     1.034100024245212
    C                0.612945048749353    -0.825551113745981     1.726100024245212
    N               -0.416054951250647    -0.983551113745981     0.906100024245212
    N                0.914945048749353    -1.721551113745980     2.641100024245212
    N                1.350945048749353     0.233448886254019     1.568100024245212
    H               -0.602054951250647    -0.236551113745981     0.235100024245212
    H               -1.844054951250647    -2.050551113745981     2.003100024245212
    H               -0.802054951250647    -3.061551113745981     0.982100024245212
    H                0.324945048749353    -2.525551113745981     2.776100024245212
    H                1.698945048749353    -1.574551113745981     3.258100024245211
    H                1.095945048749353     0.865448886254019     0.816100024245212
    H                2.152945048749353     0.405448886254019     2.153100024245212
    H               -2.111834951250648    -2.110920113745980     0.248340024245212

}
e, wfn = energy('scf', return_wfn=True)
gdma(wfn)
dmavals = variable('DMA DISTRIBUTED MULTIPOLES')
charges = np.array(dmavals)
print(charges)
np.save('SSI-180GLU-189ARG-2-dimer.npy', np.array(charges))--------------------------------------------------------------------------

*** tstart() called on ds3
*** at Tue Apr 28 12:51:17 2020

   => Loading Basis Set <=

    Name: CC-PVDZ
    Role: ORBITAL
    Keyword: BASIS
    atoms 1-2, 8-9   entry C          line   138 file /theoryfs2/ds/metcalf/miniconda2/envs/tf2gpu/share/psi4/basis/cc-pvdz.gbs
    atoms 3-4        entry O          line   198 file /theoryfs2/ds/metcalf/miniconda2/envs/tf2gpu/share/psi4/basis/cc-pvdz.gbs
    atoms 5-7, 13-20 entry H          line    22 file /theoryfs2/ds/metcalf/miniconda2/envs/tf2gpu/share/psi4/basis/cc-pvdz.gbs
    atoms 10-12      entry N          line   168 file /theoryfs2/ds/metcalf/miniconda2/envs/tf2gpu/share/psi4/basis/cc-pvdz.gbs

         ---------------------------------------------------------
                                   SCF
               by Justin Turney, Rob Parrish, Andy Simmonett
                          and Daniel G. A. Smith
                              RHF Reference
                        1 Threads,    500 MiB Core
         ---------------------------------------------------------

  ==> Geometry <==

    Molecular point group: c1
    Full point group: C1

    Geometry (in Angstrom), charge = 0, multiplicity = 1:

       Center              X                  Y                   Z               Mass
    ------------   -----------------  -----------------  -----------------  -----------------
         C           -1.234054951251     0.524448886254    -2.703899975755    12.000000000000
         C           -0.235054951251     1.413448886254    -1.957899975755    12.000000000000
         O           -0.198054951251     1.323448886254    -0.702899975755    15.994914619570
         O            0.511945048749     2.184448886254    -2.592899975755    15.994914619570
         H           -2.208054951251     0.598448886254    -2.216899975755     1.007825032230
         H           -0.882054951251    -0.503551113746    -2.614899975755     1.007825032230
         H           -1.332764951251     0.796090886254    -3.765249975755     1.007825032230
         C           -1.342054951251    -2.114551113746     1.034100024245    12.000000000000
         C            0.612945048749    -0.825551113746     1.726100024245    12.000000000000
         N           -0.416054951251    -0.983551113746     0.906100024245    14.003074004430
         N            0.914945048749    -1.721551113746     2.641100024245    14.003074004430
         N            1.350945048749     0.233448886254     1.568100024245    14.003074004430
         H           -0.602054951251    -0.236551113746     0.235100024245     1.007825032230
         H           -1.844054951251    -2.050551113746     2.003100024245     1.007825032230
         H           -0.802054951251    -3.061551113746     0.982100024245     1.007825032230
         H            0.324945048749    -2.525551113746     2.776100024245     1.007825032230
         H            1.698945048749    -1.574551113746     3.258100024245     1.007825032230
         H            1.095945048749     0.865448886254     0.816100024245     1.007825032230
         H            2.152945048749     0.405448886254     2.153100024245     1.007825032230
         H           -2.111834951251    -2.110920113746     0.248340024245     1.007825032230

  Running in c1 symmetry.

  Rotational constants: A =      0.09194  B =      0.02343  C =      0.01922 [cm^-1]
  Rotational constants: A =   2756.29483  B =    702.45921  C =    576.21096 [MHz]
  Nuclear repulsion =  460.072590162312395

  Charge       = 0
  Multiplicity = 1
  Electrons    = 72
  Nalpha       = 36
  Nbeta        = 36

  ==> Algorithm <==

  SCF Algorithm Type is PK.
  DIIS enabled.
  MOM disabled.
  Fractional occupation disabled.
  Guess Type is SAD.
  Energy threshold   = 1.00e-06
  Density threshold  = 1.00e-10
  Integral threshold = 0.00e+00

  ==> Primary Basis <==

  Basis Set: CC-PVDZ
    Blend: CC-PVDZ
    Number of shells: 87
    Number of basis function: 181
    Number of Cartesian functions: 190
    Spherical Harmonics?: true
    Max angular momentum: 2

  ==> Pre-Iterations <==

   -------------------------------------------------------
    Irrep   Nso     Nmo     Nalpha   Nbeta   Ndocc  Nsocc
   -------------------------------------------------------
     A        181     181       0       0       0       0
   -------------------------------------------------------
    Total     181     181      36      36      36       0
   -------------------------------------------------------

  ==> Integral Setup <==

  Using integral reordering PK algorithm.
  Sizing the integral batches needed.
  Building batch lookup table.
   Calculation information:
      Number of atoms:                  20
      Number of AO shells:              87
      Number of primitives:            253
      Number of atomic orbitals:       190
      Number of basis functions:       181

      Integral cutoff                 1.00e-12
      Number of threads:                 1

	Batch   1 pq = [       0,    9405] index = [             0,44231715] size =     44231715
	Batch   2 pq = [    9405,   13301] index = [      44231715,88464951] size =     44233236
	Batch   3 pq = [   13301,   16471] index = [      88464951,135655156] size =     47190205
  Task number: 13
  Buffer size: 11059200
  Buffer per thread: 2
  We computed 6147684 shell quartets total.
  Whereas there are 7328706 unique shell quartets.

  ==> DiskJK: Disk-Based J/K Matrices <==

    J tasked:                  Yes
    K tasked:                  Yes
    wK tasked:                  No
    Memory [MiB]:              375
    Schwarz Cutoff:          1E-12

    OpenMP threads:              1

  Minimum eigenvalue in the overlap matrix is 3.6793702639E-03.
  Using Symmetric Orthogonalization.

  SCF Guess: Superposition of Atomic Densities via on-the-fly atomic UHF.

  ==> Iterations <==

                        Total Energy        Delta E     RMS |[F,P]|

   @RHF iter SAD:  -469.74551068641813   -4.69746e+02   0.00000e+00
   @RHF iter   1:  -470.69914623417469   -9.53636e-01   4.22907e-03 DIIS
   @RHF iter   2:  -470.92341412898622   -2.24268e-01   2.25333e-03 DIIS
   @RHF iter   3:  -470.98332010049069   -5.99060e-02   4.07519e-04 DIIS
   @RHF iter   4:  -470.98670871830564   -3.38862e-03   1.52710e-04 DIIS
   @RHF iter   5:  -470.98716328465747   -4.54566e-04   3.10875e-05 DIIS
   @RHF iter   6:  -470.98719095293387   -2.76683e-05   1.69819e-05 DIIS
   @RHF iter   7:  -470.98719719747777   -6.24454e-06   4.60736e-06 DIIS
   @RHF iter   8:  -470.98719828122557   -1.08375e-06   2.13488e-06 DIIS
   @RHF iter   9:  -470.98719846516138   -1.83936e-07   7.30452e-07 DIIS
   @RHF iter  10:  -470.98719849292206   -2.77607e-08   2.28340e-07 DIIS
   @RHF iter  11:  -470.98719849506455   -2.14249e-09   6.10540e-08 DIIS
   @RHF iter  12:  -470.98719849517249   -1.07946e-10   2.16439e-08 DIIS
   @RHF iter  13:  -470.98719849518250   -1.00044e-11   5.08237e-09 DIIS
   @RHF iter  14:  -470.98719849518807   -5.57066e-12   1.41053e-09 DIIS
   @RHF iter  15:  -470.98719849518318    4.88853e-12   5.37776e-10 DIIS
   @RHF iter  16:  -470.98719849518562   -2.44427e-12   2.05701e-10 DIIS
   @RHF iter  17:  -470.98719849518471    9.09495e-13   9.75955e-11 DIIS
  Energy and wave function converged.

  ==> Post-Iterations <==

    Orbital Energies [Eh]
    ---------------------

    Doubly Occupied:

       1A    -20.427755     2A    -20.400246     3A    -15.664176
       4A    -15.628936     5A    -15.622182     6A    -11.440065
       7A    -11.317200     8A    -11.262890     9A    -11.177116
      10A     -1.406976    11A     -1.301542    12A     -1.261422
      13A     -1.247659    14A     -1.185912    15A     -1.004157
      16A     -0.924379    17A     -0.900453    18A     -0.835508
      19A     -0.803221    20A     -0.722951    21A     -0.713351
      22A     -0.689836    23A     -0.653567    24A     -0.638492
      25A     -0.615480    26A     -0.596750    27A     -0.547975
      28A     -0.542235    29A     -0.539891    30A     -0.485626
      31A     -0.480828    32A     -0.449471    33A     -0.432752
      34A     -0.341164    35A     -0.314293    36A     -0.313422

    Virtual:

      37A      0.111936    38A      0.143629    39A      0.166205
      40A      0.186922    41A      0.193249    42A      0.223776
      43A      0.232521    44A      0.253995    45A      0.272558
      46A      0.289415    47A      0.307248    48A      0.312553
      49A      0.345189    50A      0.367286    51A      0.426865
      52A      0.452690    53A      0.473119    54A      0.482043
      55A      0.569500    56A      0.584720    57A      0.585910
      58A      0.618602    59A      0.633293    60A      0.656718
      61A      0.661956    62A      0.667004    63A      0.680821
      64A      0.698979    65A      0.708642    66A      0.767095
      67A      0.807284    68A      0.809809    69A      0.818949
      70A      0.824611    71A      0.837798    72A      0.863703
      73A      0.870414    74A      0.888892    75A      0.910720
      76A      0.915248    77A      0.929769    78A      0.932288
      79A      0.948268    80A      0.965751    81A      0.985232
      82A      0.994749    83A      1.037220    84A      1.054031
      85A      1.075566    86A      1.084858    87A      1.106192
      88A      1.162590    89A      1.195214    90A      1.217821
      91A      1.221836    92A      1.226905    93A      1.265853
      94A      1.281385    95A      1.312979    96A      1.338381
      97A      1.361276    98A      1.389485    99A      1.417220
     100A      1.436649   101A      1.458299   102A      1.459081
     103A      1.527805   104A      1.548893   105A      1.567573
     106A      1.577089   107A      1.594148   108A      1.604373
     109A      1.623764   110A      1.662146   111A      1.675667
     112A      1.691745   113A      1.717307   114A      1.725503
     115A      1.792237   116A      1.805863   117A      1.844207
     118A      1.866304   119A      1.885688   120A      1.889347
     121A      1.905798   122A      1.934198   123A      1.936278
     124A      1.955628   125A      1.964873   126A      1.978258
     127A      1.994054   128A      2.007470   129A      2.027759
     130A      2.039678   131A      2.081180   132A      2.115201
     133A      2.171452   134A      2.179984   135A      2.186706
     136A      2.226613   137A      2.238861   138A      2.279267
     139A      2.284824   140A      2.303471   141A      2.353929
     142A      2.381963   143A      2.398160   144A      2.429850
     145A      2.445706   146A      2.454722   147A      2.483331
     148A      2.530141   149A      2.569533   150A      2.584796
     151A      2.614145   152A      2.622240   153A      2.655152
     154A      2.706345   155A      2.711976   156A      2.731645
     157A      2.791481   158A      2.804668   159A      2.841276
     160A      2.857439   161A      2.866633   162A      2.910480
     163A      2.928396   164A      2.984010   165A      2.988572
     166A      3.029245   167A      3.106445   168A      3.132759
     169A      3.149716   170A      3.202673   171A      3.226453
     172A      3.272552   173A      3.307386   174A      3.482464
     175A      3.623233   176A      3.670950   177A      3.762814
     178A      3.808309   179A      3.924419   180A      3.969319
     181A      4.051721

    Final Occupation by Irrep:
              A
    DOCC [    36 ]

  @RHF Final Energy:  -470.98719849518471

   => Energetics <=

    Nuclear Repulsion Energy =            460.0725901623123946
    One-Electron Energy =               -1556.3398192175775421
    Two-Electron Energy =                 625.2800305600802631
    Total Energy =                       -470.9871984951847708

Computation Completed

Properties will be evaluated at   0.000000,   0.000000,   0.000000 [a0]

Properties computed using the SCF density matrix

  Nuclear Dipole Moment: [e a0]
     X:    -4.2319      Y:    -8.7861      Z:     3.6020

  Electronic Dipole Moment: [e a0]
     X:     4.5095      Y:     4.5938      Z:     1.2088

  Dipole Moment: [e a0]
     X:     0.2775      Y:    -4.1923      Z:     4.8108     Total:     6.3872

  Dipole Moment: [D]
     X:     0.7054      Y:   -10.6559      Z:    12.2279     Total:    16.2347

*** tstop() called on ds3 at Tue Apr 28 12:54:00 2020
Module time:
	user time   =      45.82 seconds =       0.76 minutes
	system time =      19.73 seconds =       0.33 minutes
	total time  =        163 seconds =       2.72 minutes
Total time:
	user time   =      45.82 seconds =       0.76 minutes
	system time =      19.73 seconds =       0.33 minutes
	total time  =        163 seconds =       2.72 minutes
                                     G D M A

                                 by Anthony Stone

                           version 2.2.06, 22 June 2011

               Distributed Multipoles from Gaussian wavefunctions

Starting at 12:54:0 on 28 Apr 2020

Using SCF density matrix from file ./SSI/SSI-180GLU-189ARG-2-dimer.test.15518.fchk

                         Distributed Multipole Analysis

Standard DMA

Positions and radii in angstrom
Multipole moments in atomic units, ea_0^k for rank k

C          x = -1.234055  y =  0.524449  z = -2.703900 angstrom
           Maximum rank =  0   Radius =  0.650 angstrom
                   Q00  =  -0.280197

C          x = -0.235055  y =  1.413449  z = -1.957900 angstrom
           Maximum rank =  0   Radius =  0.650 angstrom
                   Q00  =   0.922258

O          x = -0.198055  y =  1.323449  z = -0.702900 angstrom
           Maximum rank =  0   Radius =  0.650 angstrom
                   Q00  =  -0.956996

O          x =  0.511945  y =  2.184449  z = -2.592900 angstrom
           Maximum rank =  0   Radius =  0.650 angstrom
                   Q00  =  -0.854853

H          x = -2.208055  y =  0.598449  z = -2.216900 angstrom
           Maximum rank =  0   Radius =  0.325 angstrom
                   Q00  =   0.073026

H          x = -0.882055  y = -0.503551  z = -2.614900 angstrom
           Maximum rank =  0   Radius =  0.325 angstrom
                   Q00  =   0.075117

H          x = -1.332765  y =  0.796091  z = -3.765250 angstrom
           Maximum rank =  0   Radius =  0.325 angstrom
                   Q00  =   0.100069

C          x = -1.342055  y = -2.114551  z =  1.034100 angstrom
           Maximum rank =  0   Radius =  0.650 angstrom
                   Q00  =  -0.108457

C          x =  0.612945  y = -0.825551  z =  1.726100 angstrom
           Maximum rank =  0   Radius =  0.650 angstrom
                   Q00  =   1.069720

N          x = -0.416055  y = -0.983551  z =  0.906100 angstrom
           Maximum rank =  0   Radius =  0.650 angstrom
                   Q00  =  -0.487219

N          x =  0.914945  y = -1.721551  z =  2.641100 angstrom
           Maximum rank =  0   Radius =  0.650 angstrom
                   Q00  =  -0.583403

N          x =  1.350945  y =  0.233449  z =  1.568100 angstrom
           Maximum rank =  0   Radius =  0.650 angstrom
                   Q00  =  -0.590248

H          x = -0.602055  y = -0.236551  z =  0.235100 angstrom
           Maximum rank =  0   Radius =  0.325 angstrom
                   Q00  =   0.272378

H          x = -1.844055  y = -2.050551  z =  2.003100 angstrom
           Maximum rank =  0   Radius =  0.325 angstrom
                   Q00  =   0.082317

H          x = -0.802055  y = -3.061551  z =  0.982100 angstrom
           Maximum rank =  0   Radius =  0.325 angstrom
                   Q00  =   0.084513

H          x =  0.324945  y = -2.525551  z =  2.776100 angstrom
           Maximum rank =  0   Radius =  0.325 angstrom
                   Q00  =   0.249518

H          x =  1.698945  y = -1.574551  z =  3.258100 angstrom
           Maximum rank =  0   Radius =  0.325 angstrom
                   Q00  =   0.243435

H          x =  1.095945  y =  0.865449  z =  0.816100 angstrom
           Maximum rank =  0   Radius =  0.325 angstrom
                   Q00  =   0.299190

H          x =  2.152945  y =  0.405449  z =  2.153100 angstrom
           Maximum rank =  0   Radius =  0.325 angstrom
                   Q00  =   0.232360

H          x = -2.111835  y = -2.110920  z =  0.248340 angstrom
           Maximum rank =  0   Radius =  0.325 angstrom
                   Q00  =   0.157472

Total multipoles referred to origin at
           x =   0.000000,  y =    0.000000,  z =    0.000000 angstrom
                   Q00  =  -0.000000

Finished at 12:54:0 on 28 Apr 2020

  DMA results are available in the Python driver through the
	  variable('DMA DISTRIBUTED MULTIPOLES')
  and
	  variable('DMA TOTAL MULTIPOLES')
  commands.

    Psi4 stopped on: Tuesday, 28 April 2020 12:54PM
    Psi4 wall time for execution: 0:02:43.67

*** Psi4 exiting successfully. Buy a developer a beer!
