                               Psi4 1.3.2 release

  ==> Input File <==

--------------------------------------------------------------------------
import numpy as np
set {scf_type pk
basis cc-pvdz
d_convergence 10
gdma_switch   0
gdma_limit    0
gdma_origin   [ 0.0,  0.0,  0.0 ]
}
molecule test {
    units Angstrom
    0 1
    --
    0 1
    C                1.342162230612079     2.998963590696977     0.401278089592577
    C                2.426162230612078     0.746963590696977     0.734278089592577
    C                2.393162230612079     1.971963590696977     0.063278089592577
    C                3.392162230612079    -0.201036409303023     0.403278089592577
    C                4.346162230612080     0.075963590696977    -0.582721910407423
    C                3.329162230612078     2.223963590696977    -0.954721910407423
    C                4.316162230612079     1.293963590696977    -1.262721910407423
    H                1.707162230612079     0.524963590696977     1.497278089592577
    H                3.403162230612079    -1.154036409303023     0.915278089592577
    H                1.788162230612079     3.992963590696977     0.413278089592577
    H                0.987162230612079     2.793963590696977     1.411278089592577
    H                5.101162230612079    -0.660036409303023    -0.828721910407423
    H                3.308162230612079     3.167963590696977    -1.482721910407423
    H                5.053162230612080     1.510963590696977    -2.024721910407423
    H                0.490982230612079     2.983866590696977    -0.295331910407423
    C               -1.027837769387921    -0.858036409303023     1.362278089592577
    C               -1.501837769387921    -0.477036409303023     2.763278089592577
    C               -2.141837769387921    -1.105036409303023     0.366278089592577
    C               -2.621837769387921    -0.066036409303023    -0.440721910407423
    C               -2.682837769387922    -2.389036409303023     0.214278089592577
    C               -3.635837769387921    -0.279036409303023    -1.362721910407423
    C               -3.678837769387922    -2.628036409303023    -0.720721910407423
    C               -4.158837769387921    -1.565036409303023    -1.533721910407423
    H               -0.393837769387921    -0.063036409303023     0.970278089592577
    H               -0.419837769387921    -1.761036409303023     1.432278089592577
    H               -2.180837769387921    -1.252036409303023     3.111278089592577
    H               -2.208837769387921     0.924963590696977    -0.338721910407423
    H               -2.311837769387922    -3.200036409303023     0.816278089592577
    H               -3.989837769387922     0.532963590696977    -1.948721910407423
    H               -4.039837769387921    -3.634036409303023    -0.871721910407423
    H               -4.802837769387921    -1.732036409303023    -2.372721910407423
    H               -2.031367769387921     0.487110890696977     2.758758089592577
    H               -0.596357769387921    -0.408780409303023     3.384118089592577

}
e, wfn = energy('scf', return_wfn=True)
gdma(wfn)
dmavals = variable('DMA DISTRIBUTED MULTIPOLES')
charges = np.array(dmavals)
print(charges)
np.save('SSI-033PHE-058PHE-1-dimer.npy', np.array(charges))--------------------------------------------------------------------------

*** tstart() called on ds3
*** at Tue Apr 28 14:13:57 2020

   => Loading Basis Set <=

    Name: CC-PVDZ
    Role: ORBITAL
    Keyword: BASIS
    atoms 1-7, 16-23  entry C          line   138 file /theoryfs2/ds/metcalf/miniconda2/envs/tf2gpu/share/psi4/basis/cc-pvdz.gbs
    atoms 8-15, 24-33 entry H          line    22 file /theoryfs2/ds/metcalf/miniconda2/envs/tf2gpu/share/psi4/basis/cc-pvdz.gbs

         ---------------------------------------------------------
                                   SCF
               by Justin Turney, Rob Parrish, Andy Simmonett
                          and Daniel G. A. Smith
                              RHF Reference
                        1 Threads,    500 MiB Core
         ---------------------------------------------------------

  ==> Geometry <==

    Molecular point group: c1
    Full point group: C1

    Geometry (in Angstrom), charge = 0, multiplicity = 1:

       Center              X                  Y                   Z               Mass
    ------------   -----------------  -----------------  -----------------  -----------------
         C            1.342162230612     2.998963590697     0.401278089593    12.000000000000
         C            2.426162230612     0.746963590697     0.734278089593    12.000000000000
         C            2.393162230612     1.971963590697     0.063278089593    12.000000000000
         C            3.392162230612    -0.201036409303     0.403278089593    12.000000000000
         C            4.346162230612     0.075963590697    -0.582721910407    12.000000000000
         C            3.329162230612     2.223963590697    -0.954721910407    12.000000000000
         C            4.316162230612     1.293963590697    -1.262721910407    12.000000000000
         H            1.707162230612     0.524963590697     1.497278089593     1.007825032230
         H            3.403162230612    -1.154036409303     0.915278089593     1.007825032230
         H            1.788162230612     3.992963590697     0.413278089593     1.007825032230
         H            0.987162230612     2.793963590697     1.411278089593     1.007825032230
         H            5.101162230612    -0.660036409303    -0.828721910407     1.007825032230
         H            3.308162230612     3.167963590697    -1.482721910407     1.007825032230
         H            5.053162230612     1.510963590697    -2.024721910407     1.007825032230
         H            0.490982230612     2.983866590697    -0.295331910407     1.007825032230
         C           -1.027837769388    -0.858036409303     1.362278089593    12.000000000000
         C           -1.501837769388    -0.477036409303     2.763278089593    12.000000000000
         C           -2.141837769388    -1.105036409303     0.366278089593    12.000000000000
         C           -2.621837769388    -0.066036409303    -0.440721910407    12.000000000000
         C           -2.682837769388    -2.389036409303     0.214278089593    12.000000000000
         C           -3.635837769388    -0.279036409303    -1.362721910407    12.000000000000
         C           -3.678837769388    -2.628036409303    -0.720721910407    12.000000000000
         C           -4.158837769388    -1.565036409303    -1.533721910407    12.000000000000
         H           -0.393837769388    -0.063036409303     0.970278089593     1.007825032230
         H           -0.419837769388    -1.761036409303     1.432278089593     1.007825032230
         H           -2.180837769388    -1.252036409303     3.111278089593     1.007825032230
         H           -2.208837769388     0.924963590697    -0.338721910407     1.007825032230
         H           -2.311837769388    -3.200036409303     0.816278089593     1.007825032230
         H           -3.989837769388     0.532963590697    -1.948721910407     1.007825032230
         H           -4.039837769388    -3.634036409303    -0.871721910407     1.007825032230
         H           -4.802837769388    -1.732036409303    -2.372721910407     1.007825032230
         H           -2.031367769388     0.487110890697     2.758758089593     1.007825032230
         H           -0.596357769388    -0.408780409303     3.384118089593     1.007825032230

  Running in c1 symmetry.

  Rotational constants: A =      0.03204  B =      0.00716  C =      0.00704 [cm^-1]
  Rotational constants: A =    960.53702  B =    214.66277  C =    211.15143 [MHz]
  Nuclear repulsion =  851.193119556141255

  Charge       = 0
  Multiplicity = 1
  Electrons    = 108
  Nalpha       = 54
  Nbeta        = 54

  ==> Algorithm <==

  SCF Algorithm Type is PK.
  DIIS enabled.
  MOM disabled.
  Fractional occupation disabled.
  Guess Type is SAD.
  Energy threshold   = 1.00e-06
  Density threshold  = 1.00e-10
  Integral threshold = 0.00e+00

  ==> Primary Basis <==

  Basis Set: CC-PVDZ
    Blend: CC-PVDZ
    Number of shells: 144
    Number of basis function: 300
    Number of Cartesian functions: 315
    Spherical Harmonics?: true
    Max angular momentum: 2

  ==> Pre-Iterations <==

   -------------------------------------------------------
    Irrep   Nso     Nmo     Nalpha   Nbeta   Ndocc  Nsocc
   -------------------------------------------------------
     A        300     300       0       0       0       0
   -------------------------------------------------------
    Total     300     300      54      54      54       0
   -------------------------------------------------------

  ==> Integral Setup <==

  Using integral reordering PK algorithm.
  Sizing the integral batches needed.
  Building batch lookup table.
   Calculation information:
      Number of atoms:                  33
      Number of AO shells:             144
      Number of primitives:            420
      Number of atomic orbitals:       315
      Number of basis functions:       300

      Integral cutoff                 1.00e-12
      Number of threads:                 1

	Batch   1 pq = [       0,    9405] index = [             0,44231715] size =     44231715
	Batch   2 pq = [    9405,   13301] index = [      44231715,88464951] size =     44233236
	Batch   3 pq = [   13301,   16290] index = [      88464951,132690195] size =     44225244
	Batch   4 pq = [   16290,   18810] index = [     132690195,176917455] size =     44227260
	Batch   5 pq = [   18810,   21030] index = [     176917455,221140965] size =     44223510
	Batch   6 pq = [   21030,   23037] index = [     221140965,265363203] size =     44222238
	Batch   7 pq = [   23037,   24883] index = [     265363203,309594286] size =     44231083
	Batch   8 pq = [   24883,   26601] index = [     309594286,353819901] size =     44225615
	Batch   9 pq = [   26601,   28214] index = [     353819901,398029005] size =     44209104
	Batch  10 pq = [   28214,   29740] index = [     398029005,442248670] size =     44219665
	Batch  11 pq = [   29740,   31191] index = [     442248670,486454836] size =     44206166
	Batch  12 pq = [   31191,   32578] index = [     486454836,530679331] size =     44224495
	Batch  13 pq = [   32578,   33908] index = [     530679331,574893186] size =     44213855
	Batch  14 pq = [   33908,   35188] index = [     574893186,619115266] size =     44222080
	Batch  15 pq = [   35188,   36423] index = [     619115266,663335676] size =     44220410
	Batch  16 pq = [   36423,   37617] index = [     663335676,707538153] size =     44202477
	Batch  17 pq = [   37617,   38775] index = [     707538153,751769700] size =     44231547
	Batch  18 pq = [   38775,   39899] index = [     751769700,795985050] size =     44215350
	Batch  19 pq = [   39899,   40992] index = [     795985050,840192528] size =     44207478
	Batch  20 pq = [   40992,   42057] index = [     840192528,884416653] size =     44224125
	Batch  21 pq = [   42057,   43095] index = [     884416653,928611060] size =     44194407
	Batch  22 pq = [   43095,   44109] index = [     928611060,972823995] size =     44212935
	Batch  23 pq = [   44109,   45150] index = [     972823995,1019283825] size =     46459830
  Task number: 93
  Buffer size: 11059200
  Buffer per thread: 2
  We computed 47493859 shell quartets total.
  Whereas there are 54502020 unique shell quartets.

  ==> DiskJK: Disk-Based J/K Matrices <==

    J tasked:                  Yes
    K tasked:                  Yes
    wK tasked:                  No
    Memory [MiB]:              375
    Schwarz Cutoff:          1E-12

    OpenMP threads:              1

  Minimum eigenvalue in the overlap matrix is 3.1132818163E-04.
  Using Symmetric Orthogonalization.

  SCF Guess: Superposition of Atomic Densities via on-the-fly atomic UHF.

  ==> Iterations <==

                        Total Energy        Delta E     RMS |[F,P]|

   @RHF iter SAD:  -577.27686442174831   -5.77277e+02   0.00000e+00
   @RHF iter   1:  -578.23727607624619   -9.60412e-01   2.19984e-03 DIIS
   @RHF iter   2:  -578.50861144214377   -2.71335e-01   8.91752e-04 DIIS
   @RHF iter   3:  -578.54813269532531   -3.95213e-02   2.07912e-04 DIIS
   @RHF iter   4:  -578.55160395758230   -3.47126e-03   5.17192e-05 DIIS
   @RHF iter   5:  -578.55175375721387   -1.49800e-04   1.68122e-05 DIIS
   @RHF iter   6:  -578.55177014924050   -1.63920e-05   4.05614e-06 DIIS
   @RHF iter   7:  -578.55177135910469   -1.20986e-06   1.08837e-06 DIIS
   @RHF iter   8:  -578.55177148560028   -1.26496e-07   3.78243e-07 DIIS
   @RHF iter   9:  -578.55177151367161   -2.80713e-08   1.85053e-07 DIIS
   @RHF iter  10:  -578.55177152129318   -7.62157e-09   9.24027e-08 DIIS
   @RHF iter  11:  -578.55177152367230   -2.37912e-09   3.38269e-08 DIIS
   @RHF iter  12:  -578.55177152390706   -2.34763e-10   1.35706e-08 DIIS
   @RHF iter  13:  -578.55177152392821   -2.11458e-11   4.31345e-09 DIIS
   @RHF iter  14:  -578.55177152393480   -6.59384e-12   1.29424e-09 DIIS
   @RHF iter  15:  -578.55177152393208    2.72848e-12   5.33320e-10 DIIS
   @RHF iter  16:  -578.55177152393446   -2.38742e-12   2.39171e-10 DIIS
   @RHF iter  17:  -578.55177152393003    4.43379e-12   9.43083e-11 DIIS
  Energy and wave function converged.

  ==> Post-Iterations <==

    Orbital Energies [Eh]
    ---------------------

    Doubly Occupied:

       1A    -11.243372     2A    -11.238553     3A    -11.237951
       4A    -11.237243     5A    -11.237000     6A    -11.233758
       7A    -11.233176     8A    -11.232200     9A    -11.232196
      10A    -11.231379    11A    -11.231331    12A    -11.230358
      13A    -11.229022    14A    -11.228567    15A    -11.224854
      16A     -1.150656    17A     -1.148932    18A     -1.060043
      19A     -1.043059    20A     -1.012695    21A     -1.012488
      22A     -0.980053    23A     -0.931198    24A     -0.860662
      25A     -0.824343    26A     -0.821397    27A     -0.796302
      28A     -0.787039    29A     -0.691778    30A     -0.688813
      31A     -0.639809    32A     -0.636787    33A     -0.631285
      34A     -0.630356    35A     -0.592808    36A     -0.586492
      37A     -0.584462    38A     -0.579104    39A     -0.578409
      40A     -0.561103    41A     -0.537687    42A     -0.536510
      43A     -0.523490    44A     -0.498197    45A     -0.486789
      46A     -0.485427    47A     -0.482689    48A     -0.479778
      49A     -0.473220    50A     -0.466135    51A     -0.333473
      52A     -0.332834    53A     -0.320456    54A     -0.316042

    Virtual:

      55A      0.132401    56A      0.134468    57A      0.138123
      58A      0.139325    59A      0.162409    60A      0.183061
      61A      0.194495    62A      0.199397    63A      0.218373
      64A      0.222549    65A      0.228396    66A      0.238137
      67A      0.249701    68A      0.256535    69A      0.259764
      70A      0.269669    71A      0.275071    72A      0.279001
      73A      0.293238    74A      0.301212    75A      0.320478
      76A      0.329618    77A      0.346161    78A      0.369342
      79A      0.379131    80A      0.392390    81A      0.429366
      82A      0.450766    83A      0.452442    84A      0.459338
      85A      0.474118    86A      0.476377    87A      0.487853
      88A      0.495808    89A      0.508509    90A      0.559398
      91A      0.573808    92A      0.595630    93A      0.609149
      94A      0.615948    95A      0.629156    96A      0.638103
      97A      0.651304    98A      0.678300    99A      0.682310
     100A      0.691626   101A      0.694751   102A      0.704705
     103A      0.715806   104A      0.720807   105A      0.722487
     106A      0.735201   107A      0.736215   108A      0.739054
     109A      0.742071   110A      0.745364   111A      0.749960
     112A      0.751551   113A      0.760859   114A      0.763125
     115A      0.774950   116A      0.779738   117A      0.784333
     118A      0.793889   119A      0.828880   120A      0.837750
     121A      0.844292   122A      0.849756   123A      0.859900
     124A      0.864640   125A      0.868334   126A      0.871168
     127A      0.881405   128A      0.885191   129A      0.887192
     130A      0.892630   131A      0.901817   132A      0.906837
     133A      0.909089   134A      0.920403   135A      0.922457
     136A      0.935865   137A      0.940931   138A      0.950866
     139A      0.959965   140A      0.967611   141A      0.974406
     142A      0.994238   143A      1.008330   144A      1.022864
     145A      1.043906   146A      1.049981   147A      1.069090
     148A      1.104107   149A      1.110292   150A      1.124230
     151A      1.133250   152A      1.136696   153A      1.143867
     154A      1.149421   155A      1.156346   156A      1.164400
     157A      1.172348   158A      1.190533   159A      1.209314
     160A      1.229698   161A      1.234667   162A      1.244196
     163A      1.246950   164A      1.249208   165A      1.256038
     166A      1.262367   167A      1.289798   168A      1.294653
     169A      1.299335   170A      1.304740   171A      1.314218
     172A      1.316674   173A      1.325849   174A      1.338885
     175A      1.413878   176A      1.416704   177A      1.438085
     178A      1.449320   179A      1.508693   180A      1.511902
     181A      1.522764   182A      1.540778   183A      1.567673
     184A      1.600513   185A      1.614135   186A      1.623081
     187A      1.674547   188A      1.678398   189A      1.693417
     190A      1.701194   191A      1.724703   192A      1.732105
     193A      1.737784   194A      1.746911   195A      1.754183
     196A      1.758678   197A      1.766125   198A      1.789649
     199A      1.810463   200A      1.838217   201A      1.844364
     202A      1.855800   203A      1.861447   204A      1.874787
     205A      1.881915   206A      1.887383   207A      1.891512
     208A      1.895487   209A      1.904286   210A      1.910376
     211A      1.912889   212A      1.917542   213A      1.921888
     214A      1.929099   215A      1.934591   216A      1.943424
     217A      1.951223   218A      1.955940   219A      1.958269
     220A      1.972925   221A      1.979302   222A      1.982027
     223A      1.990292   224A      1.996184   225A      2.005102
     226A      2.016806   227A      2.027887   228A      2.043299
     229A      2.049504   230A      2.058473   231A      2.072571
     232A      2.074755   233A      2.088458   234A      2.113110
     235A      2.135829   236A      2.138952   237A      2.141771
     238A      2.152128   239A      2.154048   240A      2.157501
     241A      2.160887   242A      2.169281   243A      2.179655
     244A      2.193320   245A      2.200875   246A      2.242968
     247A      2.247608   248A      2.252448   249A      2.278754
     250A      2.284656   251A      2.290704   252A      2.298301
     253A      2.306041   254A      2.310509   255A      2.317406
     256A      2.331705   257A      2.335386   258A      2.384333
     259A      2.441093   260A      2.457777   261A      2.476812
     262A      2.483234   263A      2.497763   264A      2.500753
     265A      2.510409   266A      2.535131   267A      2.549986
     268A      2.580051   269A      2.630303   270A      2.652830
     271A      2.734225   272A      2.745486   273A      2.754600
     274A      2.757521   275A      2.772031   276A      2.777146
     277A      2.782002   278A      2.789062   279A      2.811328
     280A      2.818717   281A      2.846537   282A      2.850057
     283A      2.859875   284A      2.874288   285A      2.921320
     286A      2.957514   287A      2.975638   288A      2.997061
     289A      2.999450   290A      3.004564   291A      3.028581
     292A      3.060608   293A      3.146060   294A      3.187791
     295A      3.196668   296A      3.201082   297A      3.294359
     298A      3.306698   299A      3.947451   300A      3.954842

    Final Occupation by Irrep:
              A
    DOCC [    54 ]

  @RHF Final Energy:  -578.55177152393003

   => Energetics <=

    Nuclear Repulsion Energy =            851.1931195561412551
    One-Electron Energy =               -2470.2822586554939335
    Two-Electron Energy =                1040.5373675754226497
    Total Energy =                       -578.5517715239300287

Computation Completed

Properties will be evaluated at   0.000000,   0.000000,   0.000000 [a0]

Properties computed using the SCF density matrix

  Nuclear Dipole Moment: [e a0]
     X:    -1.0653      Y:     2.8636      Z:     6.1373

  Electronic Dipole Moment: [e a0]
     X:     1.1459      Y:    -2.7635      Z:    -6.1117

  Dipole Moment: [e a0]
     X:     0.0806      Y:     0.1002      Z:     0.0256     Total:     0.1311

  Dipole Moment: [D]
     X:     0.2050      Y:     0.2546      Z:     0.0651     Total:     0.3333

*** tstop() called on ds3 at Tue Apr 28 14:27:00 2020
Module time:
	user time   =     407.13 seconds =       6.79 minutes
	system time =     149.48 seconds =       2.49 minutes
	total time  =        783 seconds =      13.05 minutes
Total time:
	user time   =     407.13 seconds =       6.79 minutes
	system time =     149.48 seconds =       2.49 minutes
	total time  =        783 seconds =      13.05 minutes
                                     G D M A

                                 by Anthony Stone

                           version 2.2.06, 22 June 2011

               Distributed Multipoles from Gaussian wavefunctions

Starting at 14:27:0 on 28 Apr 2020

Using SCF density matrix from file ./SSI/SSI-033PHE-058PHE-1-dimer.test.9572.fchk

                         Distributed Multipole Analysis

Standard DMA

Positions and radii in angstrom
Multipole moments in atomic units, ea_0^k for rank k

C          x =  1.342162  y =  2.998964  z =  0.401278 angstrom
           Maximum rank =  0   Radius =  0.650 angstrom
                   Q00  =  -0.204359

C          x =  2.426162  y =  0.746964  z =  0.734278 angstrom
           Maximum rank =  0   Radius =  0.650 angstrom
                   Q00  =  -0.087669

C          x =  2.393162  y =  1.971964  z =  0.063278 angstrom
           Maximum rank =  0   Radius =  0.650 angstrom
                   Q00  =  -0.100218

C          x =  3.392162  y = -0.201036  z =  0.403278 angstrom
           Maximum rank =  0   Radius =  0.650 angstrom
                   Q00  =  -0.062134

C          x =  4.346162  y =  0.075964  z = -0.582722 angstrom
           Maximum rank =  0   Radius =  0.650 angstrom
                   Q00  =  -0.089308

C          x =  3.329162  y =  2.223964  z = -0.954722 angstrom
           Maximum rank =  0   Radius =  0.650 angstrom
                   Q00  =  -0.001863

C          x =  4.316162  y =  1.293964  z = -1.262722 angstrom
           Maximum rank =  0   Radius =  0.650 angstrom
                   Q00  =  -0.064714

H          x =  1.707162  y =  0.524964  z =  1.497278 angstrom
           Maximum rank =  0   Radius =  0.325 angstrom
                   Q00  =   0.058233

H          x =  3.403162  y = -1.154036  z =  0.915278 angstrom
           Maximum rank =  0   Radius =  0.325 angstrom
                   Q00  =   0.064703

H          x =  1.788162  y =  3.992964  z =  0.413278 angstrom
           Maximum rank =  0   Radius =  0.325 angstrom
                   Q00  =   0.102480

H          x =  0.987162  y =  2.793964  z =  1.411278 angstrom
           Maximum rank =  0   Radius =  0.325 angstrom
                   Q00  =   0.094747

H          x =  5.101162  y = -0.660036  z = -0.828722 angstrom
           Maximum rank =  0   Radius =  0.325 angstrom
                   Q00  =   0.062628

H          x =  3.308162  y =  3.167964  z = -1.482722 angstrom
           Maximum rank =  0   Radius =  0.325 angstrom
                   Q00  =   0.056085

H          x =  5.053162  y =  1.510964  z = -2.024722 angstrom
           Maximum rank =  0   Radius =  0.325 angstrom
                   Q00  =   0.066789

H          x =  0.490982  y =  2.983867  z = -0.295332 angstrom
           Maximum rank =  0   Radius =  0.325 angstrom
                   Q00  =   0.104297

C          x = -1.027838  y = -0.858036  z =  1.362278 angstrom
           Maximum rank =  0   Radius =  0.650 angstrom
                   Q00  =  -0.026296

C          x = -1.501838  y = -0.477036  z =  2.763278 angstrom
           Maximum rank =  0   Radius =  0.650 angstrom
                   Q00  =  -0.236560

C          x = -2.141838  y = -1.105036  z =  0.366278 angstrom
           Maximum rank =  0   Radius =  0.650 angstrom
                   Q00  =  -0.118305

C          x = -2.621838  y = -0.066036  z = -0.440722 angstrom
           Maximum rank =  0   Radius =  0.650 angstrom
                   Q00  =  -0.007347

C          x = -2.682838  y = -2.389036  z =  0.214278 angstrom
           Maximum rank =  0   Radius =  0.650 angstrom
                   Q00  =  -0.053209

C          x = -3.635838  y = -0.279036  z = -1.362722 angstrom
           Maximum rank =  0   Radius =  0.650 angstrom
                   Q00  =  -0.068090

C          x = -3.678838  y = -2.628036  z = -0.720722 angstrom
           Maximum rank =  0   Radius =  0.650 angstrom
                   Q00  =  -0.080093

C          x = -4.158838  y = -1.565036  z = -1.533722 angstrom
           Maximum rank =  0   Radius =  0.650 angstrom
                   Q00  =  -0.098960

H          x = -0.393838  y = -0.063036  z =  0.970278 angstrom
           Maximum rank =  0   Radius =  0.325 angstrom
                   Q00  =   0.067242

H          x = -0.419838  y = -1.761036  z =  1.432278 angstrom
           Maximum rank =  0   Radius =  0.325 angstrom
                   Q00  =   0.065250

H          x = -2.180838  y = -1.252036  z =  3.111278 angstrom
           Maximum rank =  0   Radius =  0.325 angstrom
                   Q00  =   0.086727

H          x = -2.208838  y =  0.924964  z = -0.338722 angstrom
           Maximum rank =  0   Radius =  0.325 angstrom
                   Q00  =   0.052578

H          x = -2.311838  y = -3.200036  z =  0.816278 angstrom
           Maximum rank =  0   Radius =  0.325 angstrom
                   Q00  =   0.055079

H          x = -3.989838  y =  0.532964  z = -1.948722 angstrom
           Maximum rank =  0   Radius =  0.325 angstrom
                   Q00  =   0.065664

H          x = -4.039838  y = -3.634036  z = -0.871722 angstrom
           Maximum rank =  0   Radius =  0.325 angstrom
                   Q00  =   0.068104

H          x = -4.802838  y = -1.732036  z = -2.372722 angstrom
           Maximum rank =  0   Radius =  0.325 angstrom
                   Q00  =   0.068028

H          x = -2.031368  y =  0.487111  z =  2.758758 angstrom
           Maximum rank =  0   Radius =  0.325 angstrom
                   Q00  =   0.083838

H          x = -0.596358  y = -0.408780  z =  3.384118 angstrom
           Maximum rank =  0   Radius =  0.325 angstrom
                   Q00  =   0.076652

Total multipoles referred to origin at
           x =   0.000000,  y =    0.000000,  z =    0.000000 angstrom
                   Q00  =  -0.000000

Finished at 14:27:0 on 28 Apr 2020

  DMA results are available in the Python driver through the
	  variable('DMA DISTRIBUTED MULTIPOLES')
  and
	  variable('DMA TOTAL MULTIPOLES')
  commands.

    Psi4 stopped on: Tuesday, 28 April 2020 02:27PM
    Psi4 wall time for execution: 0:13:03.46

*** Psi4 exiting successfully. Buy a developer a beer!
