                               Psi4 1.3.2 release

  ==> Input File <==

--------------------------------------------------------------------------
import numpy as np
set {scf_type pk
basis cc-pvdz
d_convergence 10
gdma_switch   0
gdma_limit    0
gdma_origin   [ 0.0,  0.0,  0.0 ]
}
molecule test {
    units Angstrom
    0 1
    --
    0 1
    C                2.793307402849640    -1.656013507015919    -0.605531313956027
    C                3.145307402849640    -1.879013507015919    -2.069531313956027
    C                1.494307402849640    -2.296013507015920    -0.188531313956027
    H                3.591307402849639    -2.097013507015919    -0.001531313956027
    H                2.765307402849640    -0.589013507015919    -0.383531313956027
    H                3.076307402849640    -2.949013507015919    -2.289531313956027
    H                0.651307402849640    -1.803013507015919    -0.669531313956027
    H                1.517307402849640    -3.335013507015919    -0.510531313956027
    H                4.174117402849640    -1.536583507015919    -2.254731313956026
    H                2.437237402849640    -1.368433507015919    -2.738821313956027
    H                1.363707402849640    -2.284533507015920     0.903628686043973
    C               -3.161692597150360    -0.252013507015919    -1.303531313956027
    C                0.235307402849640     0.983986492984081    -0.139531313956027
    C               -0.785692597150360     0.495986492984081    -0.941531313956027
    C               -0.003692597150360     1.276986492984081     1.194468686043973
    C               -2.068692597150360     0.302986492984081    -0.428531313956027
    C               -1.274692597150360     1.092986492984081     1.729468686043973
    C               -2.303692597150360     0.603986492984081     0.917468686043973
    O                1.007307402849640     1.754986492984081     1.973468686043973
    H                1.215307402849640     1.153986492984081    -0.565531313956027
    H               -0.586692597150360     0.266986492984081    -1.980531313956027
    H                1.836307402849640     1.809986492984081     1.494468686043973
    H               -1.456692597150360     1.324986492984081     2.769468686043973
    H               -2.984692597150360     0.056986492984081    -2.335531313956026
    H               -4.112692597150360     0.174986492984081    -0.988531313956027
    H               -3.290692597150360     0.461986492984081     1.338468686043973
    H               -3.204152597150360    -1.350133507015919    -1.255321313956027

}
e, wfn = energy('scf', return_wfn=True)
gdma(wfn)
dmavals = variable('DMA DISTRIBUTED MULTIPOLES')
charges = np.array(dmavals)
print(charges)
np.save('SSI-074ARG-130TYR-2-dimer.npy', np.array(charges))--------------------------------------------------------------------------

*** tstart() called on ds3
*** at Tue Apr 28 03:13:17 2020

   => Loading Basis Set <=

    Name: CC-PVDZ
    Role: ORBITAL
    Keyword: BASIS
    atoms 1-3, 12-18  entry C          line   138 file /theoryfs2/ds/metcalf/miniconda2/envs/tf2gpu/share/psi4/basis/cc-pvdz.gbs
    atoms 4-11, 20-27 entry H          line    22 file /theoryfs2/ds/metcalf/miniconda2/envs/tf2gpu/share/psi4/basis/cc-pvdz.gbs
    atoms 19          entry O          line   198 file /theoryfs2/ds/metcalf/miniconda2/envs/tf2gpu/share/psi4/basis/cc-pvdz.gbs

         ---------------------------------------------------------
                                   SCF
               by Justin Turney, Rob Parrish, Andy Simmonett
                          and Daniel G. A. Smith
                              RHF Reference
                        1 Threads,    500 MiB Core
         ---------------------------------------------------------

  ==> Geometry <==

    Molecular point group: c1
    Full point group: C1

    Geometry (in Angstrom), charge = 0, multiplicity = 1:

       Center              X                  Y                   Z               Mass
    ------------   -----------------  -----------------  -----------------  -----------------
         C            2.793307402850    -1.656013507016    -0.605531313956    12.000000000000
         C            3.145307402850    -1.879013507016    -2.069531313956    12.000000000000
         C            1.494307402850    -2.296013507016    -0.188531313956    12.000000000000
         H            3.591307402850    -2.097013507016    -0.001531313956     1.007825032230
         H            2.765307402850    -0.589013507016    -0.383531313956     1.007825032230
         H            3.076307402850    -2.949013507016    -2.289531313956     1.007825032230
         H            0.651307402850    -1.803013507016    -0.669531313956     1.007825032230
         H            1.517307402850    -3.335013507016    -0.510531313956     1.007825032230
         H            4.174117402850    -1.536583507016    -2.254731313956     1.007825032230
         H            2.437237402850    -1.368433507016    -2.738821313956     1.007825032230
         H            1.363707402850    -2.284533507016     0.903628686044     1.007825032230
         C           -3.161692597150    -0.252013507016    -1.303531313956    12.000000000000
         C            0.235307402850     0.983986492984    -0.139531313956    12.000000000000
         C           -0.785692597150     0.495986492984    -0.941531313956    12.000000000000
         C           -0.003692597150     1.276986492984     1.194468686044    12.000000000000
         C           -2.068692597150     0.302986492984    -0.428531313956    12.000000000000
         C           -1.274692597150     1.092986492984     1.729468686044    12.000000000000
         C           -2.303692597150     0.603986492984     0.917468686044    12.000000000000
         O            1.007307402850     1.754986492984     1.973468686044    15.994914619570
         H            1.215307402850     1.153986492984    -0.565531313956     1.007825032230
         H           -0.586692597150     0.266986492984    -1.980531313956     1.007825032230
         H            1.836307402850     1.809986492984     1.494468686044     1.007825032230
         H           -1.456692597150     1.324986492984     2.769468686044     1.007825032230
         H           -2.984692597150     0.056986492984    -2.335531313956     1.007825032230
         H           -4.112692597150     0.174986492984    -0.988531313956     1.007825032230
         H           -3.290692597150     0.461986492984     1.338468686044     1.007825032230
         H           -3.204152597150    -1.350133507016    -1.255321313956     1.007825032230

  Running in c1 symmetry.

  Rotational constants: A =      0.04110  B =      0.02008  C =      0.01522 [cm^-1]
  Rotational constants: A =   1232.11321  B =    601.96542  C =    456.38988 [MHz]
  Nuclear repulsion =  587.841695365591477

  Charge       = 0
  Multiplicity = 1
  Electrons    = 84
  Nalpha       = 42
  Nbeta        = 42

  ==> Algorithm <==

  SCF Algorithm Type is PK.
  DIIS enabled.
  MOM disabled.
  Fractional occupation disabled.
  Guess Type is SAD.
  Energy threshold   = 1.00e-06
  Density threshold  = 1.00e-10
  Integral threshold = 0.00e+00

  ==> Primary Basis <==

  Basis Set: CC-PVDZ
    Blend: CC-PVDZ
    Number of shells: 114
    Number of basis function: 234
    Number of Cartesian functions: 245
    Spherical Harmonics?: true
    Max angular momentum: 2

  ==> Pre-Iterations <==

   -------------------------------------------------------
    Irrep   Nso     Nmo     Nalpha   Nbeta   Ndocc  Nsocc
   -------------------------------------------------------
     A        234     234       0       0       0       0
   -------------------------------------------------------
    Total     234     234      42      42      42       0
   -------------------------------------------------------

  ==> Integral Setup <==

  Using integral reordering PK algorithm.
  Sizing the integral batches needed.
  Building batch lookup table.
   Calculation information:
      Number of atoms:                  27
      Number of AO shells:             114
      Number of primitives:            322
      Number of atomic orbitals:       245
      Number of basis functions:       234

      Integral cutoff                 1.00e-12
      Number of threads:                 1

	Batch   1 pq = [       0,    9405] index = [             0,44231715] size =     44231715
	Batch   2 pq = [    9405,   13301] index = [      44231715,88464951] size =     44233236
	Batch   3 pq = [   13301,   16290] index = [      88464951,132690195] size =     44225244
	Batch   4 pq = [   16290,   18810] index = [     132690195,176917455] size =     44227260
	Batch   5 pq = [   18810,   21030] index = [     176917455,221140965] size =     44223510
	Batch   6 pq = [   21030,   23037] index = [     221140965,265363203] size =     44222238
	Batch   7 pq = [   23037,   24883] index = [     265363203,309594286] size =     44231083
	Batch   8 pq = [   24883,   26601] index = [     309594286,353819901] size =     44225615
	Batch   9 pq = [   26601,   27495] index = [     353819901,378001260] size =     24181359
  Task number: 35
  Buffer size: 11059200
  Buffer per thread: 2
  We computed 20738398 shell quartets total.
  Whereas there are 21487290 unique shell quartets.

  ==> DiskJK: Disk-Based J/K Matrices <==

    J tasked:                  Yes
    K tasked:                  Yes
    wK tasked:                  No
    Memory [MiB]:              375
    Schwarz Cutoff:          1E-12

    OpenMP threads:              1

  Minimum eigenvalue in the overlap matrix is 3.2045664872E-04.
  Using Symmetric Orthogonalization.

  SCF Guess: Superposition of Atomic Densities via on-the-fly atomic UHF.

  ==> Iterations <==

                        Total Energy        Delta E     RMS |[F,P]|

   @RHF iter SAD:  -461.76226432455604   -4.61762e+02   0.00000e+00
   @RHF iter   1:  -462.60219806896964   -8.39934e-01   2.83640e-03 DIIS
   @RHF iter   2:  -462.84720648296036   -2.45008e-01   1.20692e-03 DIIS
   @RHF iter   3:  -462.88749898923891   -4.02925e-02   2.66757e-04 DIIS
   @RHF iter   4:  -462.89075512416929   -3.25613e-03   1.01542e-04 DIIS
   @RHF iter   5:  -462.89108285783038   -3.27734e-04   2.07401e-05 DIIS
   @RHF iter   6:  -462.89110265545082   -1.97976e-05   6.43075e-06 DIIS
   @RHF iter   7:  -462.89110466239458   -2.00694e-06   1.83672e-06 DIIS
   @RHF iter   8:  -462.89110490065877   -2.38264e-07   6.81939e-07 DIIS
   @RHF iter   9:  -462.89110493692135   -3.62626e-08   2.87380e-07 DIIS
   @RHF iter  10:  -462.89110494367492   -6.75357e-09   1.16419e-07 DIIS
   @RHF iter  11:  -462.89110494586629   -2.19137e-09   5.02754e-08 DIIS
   @RHF iter  12:  -462.89110494630768   -4.41389e-10   2.15977e-08 DIIS
   @RHF iter  13:  -462.89110494636020   -5.25233e-11   7.78103e-09 DIIS
   @RHF iter  14:  -462.89110494636782   -7.61702e-12   1.96785e-09 DIIS
   @RHF iter  15:  -462.89110494636674    1.08002e-12   7.14260e-10 DIIS
   @RHF iter  16:  -462.89110494636884   -2.10321e-12   2.58626e-10 DIIS
   @RHF iter  17:  -462.89110494636935   -5.11591e-13   1.19333e-10 DIIS
   @RHF iter  18:  -462.89110494636833    1.02318e-12   5.89438e-11 DIIS
  Energy and wave function converged.

  ==> Post-Iterations <==

    Orbital Energies [Eh]
    ---------------------

    Doubly Occupied:

       1A    -20.582218     2A    -11.298671     3A    -11.239724
       4A    -11.238089     5A    -11.234003     6A    -11.231749
       7A    -11.231708     8A    -11.228574     9A    -11.219902
      10A    -11.218474    11A    -11.208325    12A     -1.400248
      13A     -1.151046    14A     -1.058087    15A     -1.038301
      16A     -1.018093    17A     -0.926734    18A     -0.924101
      19A     -0.844729    20A     -0.802415    21A     -0.795267
      22A     -0.732991    23A     -0.669002    24A     -0.642520
      25A     -0.627437    26A     -0.606266    27A     -0.597056
      28A     -0.587437    29A     -0.585837    30A     -0.571869
      31A     -0.567865    32A     -0.550573    33A     -0.528453
      34A     -0.527361    35A     -0.497637    36A     -0.485855
      37A     -0.474945    38A     -0.469661    39A     -0.468636
      40A     -0.460771    41A     -0.337979    42A     -0.301872

    Virtual:

      43A      0.127362    44A      0.153720    45A      0.162369
      46A      0.177603    47A      0.196984    48A      0.210220
      49A      0.215886    50A      0.236375    51A      0.244162
      52A      0.253743    53A      0.259980    54A      0.261045
      55A      0.282473    56A      0.283604    57A      0.299608
      58A      0.310270    59A      0.318907    60A      0.337397
      61A      0.365355    62A      0.373446    63A      0.395599
      64A      0.427692    65A      0.434039    66A      0.455177
      67A      0.481722    68A      0.498321    69A      0.505621
      70A      0.568207    71A      0.589410    72A      0.609196
      73A      0.611492    74A      0.616770    75A      0.629227
      76A      0.638396    77A      0.650902    78A      0.669924
      79A      0.682594    80A      0.702706    81A      0.719320
      82A      0.733360    83A      0.736606    84A      0.757054
      85A      0.771384    86A      0.785075    87A      0.786301
      88A      0.798844    89A      0.803622    90A      0.840434
      91A      0.842147    92A      0.850677    93A      0.860912
      94A      0.873095    95A      0.874896    96A      0.880301
      97A      0.882663    98A      0.888735    99A      0.894498
     100A      0.901253   101A      0.903884   102A      0.911630
     103A      0.930607   104A      0.931630   105A      0.939489
     106A      0.948891   107A      0.954204   108A      0.961691
     109A      0.970742   110A      0.994509   111A      1.021983
     112A      1.026001   113A      1.040901   114A      1.066494
     115A      1.123138   116A      1.128267   117A      1.132362
     118A      1.143952   119A      1.154683   120A      1.191132
     121A      1.199024   122A      1.229192   123A      1.244999
     124A      1.259545   125A      1.271170   126A      1.287045
     127A      1.304246   128A      1.316581   129A      1.331903
     130A      1.349635   131A      1.365489   132A      1.385273
     133A      1.388079   134A      1.461828   135A      1.475130
     136A      1.493213   137A      1.516921   138A      1.533178
     139A      1.551999   140A      1.562269   141A      1.610654
     142A      1.625492   143A      1.639639   144A      1.663327
     145A      1.681138   146A      1.690481   147A      1.701254
     148A      1.712242   149A      1.743184   150A      1.750003
     151A      1.787736   152A      1.804516   153A      1.813065
     154A      1.845424   155A      1.872200   156A      1.877706
     157A      1.886192   158A      1.892045   159A      1.898033
     160A      1.906284   161A      1.913143   162A      1.918862
     163A      1.929963   164A      1.941066   165A      1.947065
     166A      1.954442   167A      1.959220   168A      1.968246
     169A      1.976219   170A      1.982294   171A      1.986271
     172A      2.006890   173A      2.026177   174A      2.034494
     175A      2.046721   176A      2.052854   177A      2.059476
     178A      2.061069   179A      2.069258   180A      2.082715
     181A      2.129278   182A      2.143517   183A      2.145274
     184A      2.158966   185A      2.171359   186A      2.215253
     187A      2.234640   188A      2.265528   189A      2.282480
     190A      2.284451   191A      2.292239   192A      2.315741
     193A      2.321199   194A      2.333366   195A      2.356231
     196A      2.368335   197A      2.427658   198A      2.467597
     199A      2.473244   200A      2.480204   201A      2.502694
     202A      2.533770   203A      2.539040   204A      2.544313
     205A      2.595857   206A      2.607522   207A      2.620677
     208A      2.633451   209A      2.657808   210A      2.738266
     211A      2.763147   212A      2.772135   213A      2.778082
     214A      2.788953   215A      2.804773   216A      2.812192
     217A      2.813394   218A      2.835753   219A      2.906873
     220A      2.930205   221A      2.971269   222A      2.975083
     223A      2.987477   224A      3.017695   225A      3.073093
     226A      3.090127   227A      3.106202   228A      3.252526
     229A      3.281111   230A      3.350387   231A      3.576021
     232A      3.672817   233A      3.979792   234A      4.197837

    Final Occupation by Irrep:
              A
    DOCC [    42 ]

  @RHF Final Energy:  -462.89110494636833

   => Energetics <=

    Nuclear Repulsion Energy =            587.8416953655914767
    One-Electron Energy =               -1793.1006356474754284
    Two-Electron Energy =                 742.3678353355155650
    Total Energy =                       -462.8911049463683867

Computation Completed

Properties will be evaluated at   0.000000,   0.000000,   0.000000 [a0]

Properties computed using the SCF density matrix

  Nuclear Dipole Moment: [e a0]
     X:     6.5602      Y:   -11.3001      Z:    -8.8661

  Electronic Dipole Moment: [e a0]
     X:    -6.4132      Y:    11.1870      Z:     8.3971

  Dipole Moment: [e a0]
     X:     0.1470      Y:    -0.1131      Z:    -0.4690     Total:     0.5044

  Dipole Moment: [D]
     X:     0.3736      Y:    -0.2875      Z:    -1.1922     Total:     1.2820

*** tstop() called on ds3 at Tue Apr 28 03:16:45 2020
Module time:
	user time   =     151.64 seconds =       2.53 minutes
	system time =      62.49 seconds =       1.04 minutes
	total time  =        208 seconds =       3.47 minutes
Total time:
	user time   =     151.64 seconds =       2.53 minutes
	system time =      62.49 seconds =       1.04 minutes
	total time  =        208 seconds =       3.47 minutes
                                     G D M A

                                 by Anthony Stone

                           version 2.2.06, 22 June 2011

               Distributed Multipoles from Gaussian wavefunctions

Starting at 3:16:45 on 28 Apr 2020

Using SCF density matrix from file ./SSI/SSI-074ARG-130TYR-2-dimer.test.10860.fchk

                         Distributed Multipole Analysis

Standard DMA

Positions and radii in angstrom
Multipole moments in atomic units, ea_0^k for rank k

C          x =  2.793307  y = -1.656014  z = -0.605531 angstrom
           Maximum rank =  0   Radius =  0.650 angstrom
                   Q00  =  -0.091206

C          x =  3.145307  y = -1.879014  z = -2.069531 angstrom
           Maximum rank =  0   Radius =  0.650 angstrom
                   Q00  =  -0.234162

C          x =  1.494307  y = -2.296014  z = -0.188531 angstrom
           Maximum rank =  0   Radius =  0.650 angstrom
                   Q00  =  -0.217987

H          x =  3.591307  y = -2.097014  z = -0.001531 angstrom
           Maximum rank =  0   Radius =  0.325 angstrom
                   Q00  =   0.041886

H          x =  2.765307  y = -0.589014  z = -0.383531 angstrom
           Maximum rank =  0   Radius =  0.325 angstrom
                   Q00  =   0.027530

H          x =  3.076307  y = -2.949014  z = -2.289531 angstrom
           Maximum rank =  0   Radius =  0.325 angstrom
                   Q00  =   0.077500

H          x =  0.651307  y = -1.803014  z = -0.669531 angstrom
           Maximum rank =  0   Radius =  0.325 angstrom
                   Q00  =   0.085109

H          x =  1.517307  y = -3.335014  z = -0.510531 angstrom
           Maximum rank =  0   Radius =  0.325 angstrom
                   Q00  =   0.067561

H          x =  4.174117  y = -1.536584  z = -2.254731 angstrom
           Maximum rank =  0   Radius =  0.325 angstrom
                   Q00  =   0.082999

H          x =  2.437237  y = -1.368434  z = -2.738821 angstrom
           Maximum rank =  0   Radius =  0.325 angstrom
                   Q00  =   0.072905

H          x =  1.363707  y = -2.284534  z =  0.903629 angstrom
           Maximum rank =  0   Radius =  0.325 angstrom
                   Q00  =   0.086898

C          x = -3.161693  y = -0.252014  z = -1.303531 angstrom
           Maximum rank =  0   Radius =  0.650 angstrom
                   Q00  =  -0.193432

C          x =  0.235307  y =  0.983986  z = -0.139531 angstrom
           Maximum rank =  0   Radius =  0.650 angstrom
                   Q00  =  -0.139660

C          x = -0.785693  y =  0.495986  z = -0.941531 angstrom
           Maximum rank =  0   Radius =  0.650 angstrom
                   Q00  =   0.028104

C          x = -0.003693  y =  1.276986  z =  1.194469 angstrom
           Maximum rank =  0   Radius =  0.650 angstrom
                   Q00  =   0.321102

C          x = -2.068693  y =  0.302986  z = -0.428531 angstrom
           Maximum rank =  0   Radius =  0.650 angstrom
                   Q00  =  -0.137841

C          x = -1.274693  y =  1.092986  z =  1.729469 angstrom
           Maximum rank =  0   Radius =  0.650 angstrom
                   Q00  =  -0.121794

C          x = -2.303693  y =  0.603986  z =  0.917469 angstrom
           Maximum rank =  0   Radius =  0.650 angstrom
                   Q00  =  -0.059192

O          x =  1.007307  y =  1.754986  z =  1.973469 angstrom
           Maximum rank =  0   Radius =  0.650 angstrom
                   Q00  =  -0.679890

H          x =  1.215307  y =  1.153986  z = -0.565531 angstrom
           Maximum rank =  0   Radius =  0.325 angstrom
                   Q00  =   0.070050

H          x = -0.586693  y =  0.266986  z = -1.980531 angstrom
           Maximum rank =  0   Radius =  0.325 angstrom
                   Q00  =   0.067830

H          x =  1.836307  y =  1.809986  z =  1.494469 angstrom
           Maximum rank =  0   Radius =  0.325 angstrom
                   Q00  =   0.405983

H          x = -1.456693  y =  1.324986  z =  2.769469 angstrom
           Maximum rank =  0   Radius =  0.325 angstrom
                   Q00  =   0.082096

H          x = -2.984693  y =  0.056986  z = -2.335531 angstrom
           Maximum rank =  0   Radius =  0.325 angstrom
                   Q00  =   0.095214

H          x = -4.112693  y =  0.174986  z = -0.988531 angstrom
           Maximum rank =  0   Radius =  0.325 angstrom
                   Q00  =   0.097492

H          x = -3.290693  y =  0.461986  z =  1.338469 angstrom
           Maximum rank =  0   Radius =  0.325 angstrom
                   Q00  =   0.064443

H          x = -3.204153  y = -1.350134  z = -1.255321 angstrom
           Maximum rank =  0   Radius =  0.325 angstrom
                   Q00  =   0.100462

Total multipoles referred to origin at
           x =   0.000000,  y =    0.000000,  z =    0.000000 angstrom
                   Q00  =  -0.000000

Finished at 3:16:45 on 28 Apr 2020

  DMA results are available in the Python driver through the
	  variable('DMA DISTRIBUTED MULTIPOLES')
  and
	  variable('DMA TOTAL MULTIPOLES')
  commands.

    Psi4 stopped on: Tuesday, 28 April 2020 03:16AM
    Psi4 wall time for execution: 0:03:27.41

*** Psi4 exiting successfully. Buy a developer a beer!
