                               Psi4 1.3.2 release

  ==> Input File <==

--------------------------------------------------------------------------
import numpy as np
set {scf_type pk
basis cc-pvdz
d_convergence 10
gdma_switch   0
gdma_limit    0
gdma_origin   [ 0.0,  0.0,  0.0 ]
}
molecule test {
    units Angstrom
    -1 1
    --
    -1 1
    C                1.253123255680332    -0.967633078843685    -1.274089657458887
    C               -0.155876744319668    -1.153633078843685    -0.704089657458888
    O               -0.286876744319668    -1.552633078843685     0.476910342541112
    O               -1.132876744319668    -0.924633078843685    -1.456089657458888
    H                1.919123255680332    -0.589633078843685    -0.496089657458888
    H                1.246123255680332    -0.220633078843685    -2.069089657458887
    H                1.667155455680332    -1.909592078843685    -1.663049657458888
    C               -0.371876744319668     2.110366921156315     0.920910342541112
    C                0.684123255680332     2.406366921156315     1.982910342541113
    H                0.059123255680332     2.184366921156315    -0.078089657458888
    H               -0.762876744319668     1.105366921156315     1.069910342541113
    H               -1.195876744319668     2.816366921156315     1.010910342541112
    H                0.269123255680332     2.147366921156315     2.957910342541112
    H                0.970705255680332     3.468363921156315     1.988630342541112
    H                1.577325955680332     1.791614921156315     1.797790342541113

}
e, wfn = energy('scf', return_wfn=True)
gdma(wfn)
dmavals = variable('DMA DISTRIBUTED MULTIPOLES')
charges = np.array(dmavals)
print(charges)
np.save('SSI-078GLU-099THR-1-dimer.npy', np.array(charges))--------------------------------------------------------------------------

*** tstart() called on ds3
*** at Mon Apr 27 18:42:58 2020

   => Loading Basis Set <=

    Name: CC-PVDZ
    Role: ORBITAL
    Keyword: BASIS
    atoms 1-2, 8-9   entry C          line   138 file /theoryfs2/ds/metcalf/miniconda2/envs/tf2gpu/share/psi4/basis/cc-pvdz.gbs
    atoms 3-4        entry O          line   198 file /theoryfs2/ds/metcalf/miniconda2/envs/tf2gpu/share/psi4/basis/cc-pvdz.gbs
    atoms 5-7, 10-15 entry H          line    22 file /theoryfs2/ds/metcalf/miniconda2/envs/tf2gpu/share/psi4/basis/cc-pvdz.gbs

         ---------------------------------------------------------
                                   SCF
               by Justin Turney, Rob Parrish, Andy Simmonett
                          and Daniel G. A. Smith
                              RHF Reference
                        1 Threads,    500 MiB Core
         ---------------------------------------------------------

  ==> Geometry <==

    Molecular point group: c1
    Full point group: C1

    Geometry (in Angstrom), charge = -1, multiplicity = 1:

       Center              X                  Y                   Z               Mass
    ------------   -----------------  -----------------  -----------------  -----------------
         C            1.253123255680    -0.967633078844    -1.274089657459    12.000000000000
         C           -0.155876744320    -1.153633078844    -0.704089657459    12.000000000000
         O           -0.286876744320    -1.552633078844     0.476910342541    15.994914619570
         O           -1.132876744320    -0.924633078844    -1.456089657459    15.994914619570
         H            1.919123255680    -0.589633078844    -0.496089657459     1.007825032230
         H            1.246123255680    -0.220633078844    -2.069089657459     1.007825032230
         H            1.667155455680    -1.909592078844    -1.663049657459     1.007825032230
         C           -0.371876744320     2.110366921156     0.920910342541    12.000000000000
         C            0.684123255680     2.406366921156     1.982910342541    12.000000000000
         H            0.059123255680     2.184366921156    -0.078089657459     1.007825032230
         H           -0.762876744320     1.105366921156     1.069910342541     1.007825032230
         H           -1.195876744320     2.816366921156     1.010910342541     1.007825032230
         H            0.269123255680     2.147366921156     2.957910342541     1.007825032230
         H            0.970705255680     3.468363921156     1.988630342541     1.007825032230
         H            1.577325955680     1.791614921156     1.797790342541     1.007825032230

  Running in c1 symmetry.

  Rotational constants: A =      0.15940  B =      0.04338  C =      0.04191 [cm^-1]
  Rotational constants: A =   4778.69508  B =   1300.48122  C =   1256.30838 [MHz]
  Nuclear repulsion =  224.198800396713295

  Charge       = -1
  Multiplicity = 1
  Electrons    = 50
  Nalpha       = 25
  Nbeta        = 25

  ==> Algorithm <==

  SCF Algorithm Type is PK.
  DIIS enabled.
  MOM disabled.
  Fractional occupation disabled.
  Guess Type is SAD.
  Energy threshold   = 1.00e-06
  Density threshold  = 1.00e-10
  Integral threshold = 0.00e+00

  ==> Primary Basis <==

  Basis Set: CC-PVDZ
    Blend: CC-PVDZ
    Number of shells: 63
    Number of basis function: 129
    Number of Cartesian functions: 135
    Spherical Harmonics?: true
    Max angular momentum: 2

  ==> Pre-Iterations <==

   -------------------------------------------------------
    Irrep   Nso     Nmo     Nalpha   Nbeta   Ndocc  Nsocc
   -------------------------------------------------------
     A        129     129       0       0       0       0
   -------------------------------------------------------
    Total     129     129      25      25      25       0
   -------------------------------------------------------

  ==> Integral Setup <==

  Using integral reordering PK algorithm.
  Sizing the integral batches needed.
  Building batch lookup table.
   Calculation information:
      Number of atoms:                  15
      Number of AO shells:              63
      Number of primitives:            177
      Number of atomic orbitals:       135
      Number of basis functions:       129

      Integral cutoff                 1.00e-12
      Number of threads:                 1

	Batch   1 pq = [       0,    8385] index = [             0,35158305] size =     35158305
  Task number: 4
  Buffer size: 11059200
  Buffer per thread: 2
  We computed 1795511 shell quartets total.
  Whereas there are 2033136 unique shell quartets.

  ==> DiskJK: Disk-Based J/K Matrices <==

    J tasked:                  Yes
    K tasked:                  Yes
    wK tasked:                  No
    Memory [MiB]:              375
    Schwarz Cutoff:          1E-12

    OpenMP threads:              1

  Minimum eigenvalue in the overlap matrix is 5.5000391181E-03.
  Using Symmetric Orthogonalization.

  SCF Guess: Superposition of Atomic Densities via on-the-fly atomic UHF.

  ==> Iterations <==

                        Total Energy        Delta E     RMS |[F,P]|

   @RHF iter SAD:  -304.81728745596945   -3.04817e+02   0.00000e+00
   @RHF iter   1:  -306.20977790956385   -1.39249e+00   5.66119e-03 DIIS
   @RHF iter   2:  -306.40998709799698   -2.00209e-01   3.18442e-03 DIIS
   @RHF iter   3:  -306.47178640694995   -6.17993e-02   4.73233e-04 DIIS
   @RHF iter   4:  -306.47433714018587   -2.55073e-03   1.78034e-04 DIIS
   @RHF iter   5:  -306.47471981082833   -3.82671e-04   2.54035e-05 DIIS
   @RHF iter   6:  -306.47472998915322   -1.01783e-05   5.65829e-06 DIIS
   @RHF iter   7:  -306.47473046880600   -4.79653e-07   1.77292e-06 DIIS
   @RHF iter   8:  -306.47473051329479   -4.44888e-08   6.74950e-07 DIIS
   @RHF iter   9:  -306.47473051844571   -5.15092e-09   2.48199e-07 DIIS
   @RHF iter  10:  -306.47473051967728   -1.23157e-09   1.02401e-07 DIIS
   @RHF iter  11:  -306.47473051992750   -2.50225e-10   2.74048e-08 DIIS
   @RHF iter  12:  -306.47473051995036   -2.28511e-11   8.23236e-09 DIIS
   @RHF iter  13:  -306.47473051995291   -2.55795e-12   2.55844e-09 DIIS
   @RHF iter  14:  -306.47473051995473   -1.81899e-12   7.96703e-10 DIIS
   @RHF iter  15:  -306.47473051995297    1.76215e-12   3.20854e-10 DIIS
   @RHF iter  16:  -306.47473051995223    7.38964e-13   1.01003e-10 DIIS
   @RHF iter  17:  -306.47473051995217    5.68434e-14   4.38219e-11 DIIS
  Energy and wave function converged.

  ==> Post-Iterations <==

    Orbital Energies [Eh]
    ---------------------

    Doubly Occupied:

       1A    -20.254748     2A    -20.253026     3A    -11.113139
       4A    -11.106158     5A    -11.085060     6A    -11.049563
       7A     -1.142038     8A     -1.028629     9A     -0.897019
      10A     -0.792633    11A     -0.714260    12A     -0.497275
      13A     -0.478929    14A     -0.475690    15A     -0.409342
      16A     -0.401148    17A     -0.397710    18A     -0.378064
      19A     -0.364994    20A     -0.361093    21A     -0.336330
      22A     -0.299103    23A     -0.178782    24A     -0.166255
      25A     -0.154862

    Virtual:

      26A      0.294933    27A      0.338235    28A      0.351289
      29A      0.366886    30A      0.382997    31A      0.388825
      32A      0.413112    33A      0.442027    34A      0.464548
      35A      0.494513    36A      0.521146    37A      0.576609
      38A      0.681893    39A      0.698414    40A      0.719579
      41A      0.739544    42A      0.752420    43A      0.795707
      44A      0.812398    45A      0.854412    46A      0.872956
      47A      0.966140    48A      0.969383    49A      0.997621
      50A      1.003314    51A      1.010894    52A      1.017856
      53A      1.029415    54A      1.043670    55A      1.048222
      56A      1.065484    57A      1.075465    58A      1.107701
      59A      1.123205    60A      1.149224    61A      1.218213
      62A      1.246216    63A      1.276659    64A      1.327635
      65A      1.357537    66A      1.365225    67A      1.400078
      68A      1.542419    69A      1.577481    70A      1.584835
      71A      1.593870    72A      1.597463    73A      1.613676
      74A      1.656830    75A      1.676085    76A      1.726708
      77A      1.754367    78A      1.793579    79A      1.830184
      80A      1.844753    81A      1.846965    82A      1.980328
      83A      1.992529    84A      2.019220    85A      2.053143
      86A      2.061865    87A      2.068111    88A      2.073392
      89A      2.076796    90A      2.084363    91A      2.087124
      92A      2.133995    93A      2.157764    94A      2.221622
      95A      2.235597    96A      2.248895    97A      2.264601
      98A      2.381746    99A      2.396122   100A      2.422201
     101A      2.439617   102A      2.456072   103A      2.552053
     104A      2.575229   105A      2.605323   106A      2.680350
     107A      2.690893   108A      2.704872   109A      2.729625
     110A      2.781427   111A      2.874138   112A      2.912455
     113A      2.933604   114A      2.966046   115A      2.974811
     116A      2.978769   117A      2.990526   118A      3.083057
     119A      3.090716   120A      3.248067   121A      3.281893
     122A      3.303267   123A      3.366131   124A      3.642437
     125A      3.768216   126A      3.836241   127A      4.066106
     128A      4.075722   129A      4.192276

    Final Occupation by Irrep:
              A
    DOCC [    25 ]

  @RHF Final Energy:  -306.47473051995217

   => Energetics <=

    Nuclear Repulsion Energy =            224.1988003967132954
    One-Electron Energy =                -872.6753615142100671
    Two-Electron Energy =                 342.0018305975445969
    Total Energy =                       -306.4747305199521747

Computation Completed

Properties will be evaluated at   0.000000,   0.000000,   0.000000 [a0]

Properties computed using the SCF density matrix

  Nuclear Dipole Moment: [e a0]
     X:     5.3836      Y:    10.1068      Z:     4.2316

  Electronic Dipole Moment: [e a0]
     X:    -3.9363      Y:    -8.1130      Z:    -3.5599

  Dipole Moment: [e a0]
     X:     1.4472      Y:     1.9937      Z:     0.6717     Total:     2.5535

  Dipole Moment: [D]
     X:     3.6784      Y:     5.0676      Z:     1.7072     Total:     6.4904

*** tstop() called on ds3 at Mon Apr 27 18:43:16 2020
Module time:
	user time   =      12.79 seconds =       0.21 minutes
	system time =       5.08 seconds =       0.08 minutes
	total time  =         18 seconds =       0.30 minutes
Total time:
	user time   =      12.79 seconds =       0.21 minutes
	system time =       5.08 seconds =       0.08 minutes
	total time  =         18 seconds =       0.30 minutes
                                     G D M A

                                 by Anthony Stone

                           version 2.2.06, 22 June 2011

               Distributed Multipoles from Gaussian wavefunctions

Starting at 18:43:16 on 27 Apr 2020

Using SCF density matrix from file ./SSI/SSI-078GLU-099THR-1-dimer.test.28148.fchk

                         Distributed Multipole Analysis

Standard DMA

Positions and radii in angstrom
Multipole moments in atomic units, ea_0^k for rank k

C          x =  1.253123  y = -0.967633  z = -1.274090 angstrom
           Maximum rank =  0   Radius =  0.650 angstrom
                   Q00  =  -0.286609

C          x = -0.155877  y = -1.153633  z = -0.704090 angstrom
           Maximum rank =  0   Radius =  0.650 angstrom
                   Q00  =   0.974532

O          x = -0.286877  y = -1.552633  z =  0.476910 angstrom
           Maximum rank =  0   Radius =  0.650 angstrom
                   Q00  =  -0.933215

O          x = -1.132877  y = -0.924633  z = -1.456090 angstrom
           Maximum rank =  0   Radius =  0.650 angstrom
                   Q00  =  -0.929548

H          x =  1.919123  y = -0.589633  z = -0.496090 angstrom
           Maximum rank =  0   Radius =  0.325 angstrom
                   Q00  =   0.050670

H          x =  1.246123  y = -0.220633  z = -2.069090 angstrom
           Maximum rank =  0   Radius =  0.325 angstrom
                   Q00  =   0.052226

H          x =  1.667155  y = -1.909592  z = -1.663050 angstrom
           Maximum rank =  0   Radius =  0.325 angstrom
                   Q00  =   0.078251

C          x = -0.371877  y =  2.110367  z =  0.920910 angstrom
           Maximum rank =  0   Radius =  0.650 angstrom
                   Q00  =  -0.194506

C          x =  0.684123  y =  2.406367  z =  1.982910 angstrom
           Maximum rank =  0   Radius =  0.650 angstrom
                   Q00  =  -0.241844

H          x =  0.059123  y =  2.184367  z = -0.078090 angstrom
           Maximum rank =  0   Radius =  0.325 angstrom
                   Q00  =   0.074481

H          x = -0.762877  y =  1.105367  z =  1.069910 angstrom
           Maximum rank =  0   Radius =  0.325 angstrom
                   Q00  =   0.123300

H          x = -1.195877  y =  2.816367  z =  1.010910 angstrom
           Maximum rank =  0   Radius =  0.325 angstrom
                   Q00  =   0.040365

H          x =  0.269123  y =  2.147367  z =  2.957910 angstrom
           Maximum rank =  0   Radius =  0.325 angstrom
                   Q00  =   0.067285

H          x =  0.970705  y =  3.468364  z =  1.988630 angstrom
           Maximum rank =  0   Radius =  0.325 angstrom
                   Q00  =   0.040867

H          x =  1.577326  y =  1.791615  z =  1.797790 angstrom
           Maximum rank =  0   Radius =  0.325 angstrom
                   Q00  =   0.083747

Total multipoles referred to origin at
           x =   0.000000,  y =    0.000000,  z =    0.000000 angstrom
                   Q00  =  -1.000000

Finished at 18:43:16 on 27 Apr 2020

  DMA results are available in the Python driver through the
	  variable('DMA DISTRIBUTED MULTIPOLES')
  and
	  variable('DMA TOTAL MULTIPOLES')
  commands.

    Psi4 stopped on: Monday, 27 April 2020 06:43PM
    Psi4 wall time for execution: 0:00:18.40

*** Psi4 exiting successfully. Buy a developer a beer!
