                               Psi4 1.3.2 release

  ==> Input File <==

--------------------------------------------------------------------------
import numpy as np
set {scf_type pk
basis cc-pvdz
d_convergence 10
gdma_switch   0
gdma_limit    0
gdma_origin   [ 0.0,  0.0,  0.0 ]
}
molecule test {
    units Angstrom
    0 1
    --
    0 1
    C               -0.922327729081890     2.634134967742671     3.158000331186140
    C               -0.569327729081890     3.849134967742671     4.008000331186140
    H               -1.042327729081890     1.755134967742671     3.792000331186140
    H               -1.852327729081890     2.818134967742671     2.619000331186140
    H               -0.130327729081890     2.455134967742671     2.430000331186140
    H               -0.445327729081890     4.685134967742671     3.321000331186140
    H                0.371452270918110     3.690544967742671     4.555530331186140
    H               -1.392767729081890     4.101838967742671     4.692167331186139
    C                1.777672270918110    -1.298865032257329    -3.255999668813860
    C                0.288672270918110    -0.455865032257329     0.085000331186140
    C                0.131672270918110    -0.891865032257329    -1.255999668813860
    C                1.440672270918110    -0.908865032257329    -1.854999668813860
    C                2.306672270918110    -0.499865032257329    -0.890999668813860
    C               -0.781327729081890    -0.312865032257329     0.952000331186140
    C               -2.042327729081890    -0.620865032257329     0.476000331186140
    C               -2.234327729081890    -1.049865032257329    -0.842999668813860
    C               -1.160327729081890    -1.185865032257329    -1.716999668813860
    N                1.624672270918110    -0.226865032257329     0.271000331186140
    H               -0.634327729081890     0.026134967742671     1.965000331186140
    H               -2.897327729081890    -0.484865032257329     1.124000331186140
    H                2.037672270918110     0.184134967742671     1.106000331186139
    H               -3.237327729081890    -1.251865032257329    -1.194999668813860
    H                3.377672270918110    -0.406865032257329    -1.028999668813860
    H               -1.346327729081890    -1.469865032257329    -2.737999668813860
    H                2.861672270918110    -1.385865032257329    -3.342999668813861
    H                1.451672270918110    -0.494865032257329    -3.916999668813860
    H                1.315332270918110    -2.240765032257329    -3.586240668813860

}
e, wfn = energy('scf', return_wfn=True)
gdma(wfn)
dmavals = variable('DMA DISTRIBUTED MULTIPOLES')
charges = np.array(dmavals)
print(charges)
np.save('SSI-010LEU-096TRP-1-dimer.npy', np.array(charges))--------------------------------------------------------------------------

*** tstart() called on ds3
*** at Mon Apr 27 12:56:10 2020

   => Loading Basis Set <=

    Name: CC-PVDZ
    Role: ORBITAL
    Keyword: BASIS
    atoms 1-2, 9-17  entry C          line   138 file /theoryfs2/ds/metcalf/miniconda2/envs/tf2gpu/share/psi4/basis/cc-pvdz.gbs
    atoms 3-8, 19-27 entry H          line    22 file /theoryfs2/ds/metcalf/miniconda2/envs/tf2gpu/share/psi4/basis/cc-pvdz.gbs
    atoms 18         entry N          line   168 file /theoryfs2/ds/metcalf/miniconda2/envs/tf2gpu/share/psi4/basis/cc-pvdz.gbs

         ---------------------------------------------------------
                                   SCF
               by Justin Turney, Rob Parrish, Andy Simmonett
                          and Daniel G. A. Smith
                              RHF Reference
                        1 Threads,    500 MiB Core
         ---------------------------------------------------------

  ==> Geometry <==

    Molecular point group: c1
    Full point group: C1

    Geometry (in Angstrom), charge = 0, multiplicity = 1:

       Center              X                  Y                   Z               Mass
    ------------   -----------------  -----------------  -----------------  -----------------
         C           -0.922327729082     2.634134967743     3.158000331186    12.000000000000
         C           -0.569327729082     3.849134967743     4.008000331186    12.000000000000
         H           -1.042327729082     1.755134967743     3.792000331186     1.007825032230
         H           -1.852327729082     2.818134967743     2.619000331186     1.007825032230
         H           -0.130327729082     2.455134967743     2.430000331186     1.007825032230
         H           -0.445327729082     4.685134967743     3.321000331186     1.007825032230
         H            0.371452270918     3.690544967743     4.555530331186     1.007825032230
         H           -1.392767729082     4.101838967743     4.692167331186     1.007825032230
         C            1.777672270918    -1.298865032257    -3.255999668814    12.000000000000
         C            0.288672270918    -0.455865032257     0.085000331186    12.000000000000
         C            0.131672270918    -0.891865032257    -1.255999668814    12.000000000000
         C            1.440672270918    -0.908865032257    -1.854999668814    12.000000000000
         C            2.306672270918    -0.499865032257    -0.890999668814    12.000000000000
         C           -0.781327729082    -0.312865032257     0.952000331186    12.000000000000
         C           -2.042327729082    -0.620865032257     0.476000331186    12.000000000000
         C           -2.234327729082    -1.049865032257    -0.842999668814    12.000000000000
         C           -1.160327729082    -1.185865032257    -1.716999668814    12.000000000000
         N            1.624672270918    -0.226865032257     0.271000331186    14.003074004430
         H           -0.634327729082     0.026134967743     1.965000331186     1.007825032230
         H           -2.897327729082    -0.484865032257     1.124000331186     1.007825032230
         H            2.037672270918     0.184134967743     1.106000331186     1.007825032230
         H           -3.237327729082    -1.251865032257    -1.194999668814     1.007825032230
         H            3.377672270918    -0.406865032257    -1.028999668814     1.007825032230
         H           -1.346327729082    -1.469865032257    -2.737999668814     1.007825032230
         H            2.861672270918    -1.385865032257    -3.342999668814     1.007825032230
         H            1.451672270918    -0.494865032257    -3.916999668814     1.007825032230
         H            1.315332270918    -2.240765032257    -3.586240668814     1.007825032230

  Running in c1 symmetry.

  Rotational constants: A =      0.04575  B =      0.01441  C =      0.01156 [cm^-1]
  Rotational constants: A =   1371.69523  B =    431.91607  C =    346.57936 [MHz]
  Nuclear repulsion =  639.774536292673815

  Charge       = 0
  Multiplicity = 1
  Electrons    = 88
  Nalpha       = 44
  Nbeta        = 44

  ==> Algorithm <==

  SCF Algorithm Type is PK.
  DIIS enabled.
  MOM disabled.
  Fractional occupation disabled.
  Guess Type is SAD.
  Energy threshold   = 1.00e-06
  Density threshold  = 1.00e-10
  Integral threshold = 0.00e+00

  ==> Primary Basis <==

  Basis Set: CC-PVDZ
    Blend: CC-PVDZ
    Number of shells: 117
    Number of basis function: 243
    Number of Cartesian functions: 255
    Spherical Harmonics?: true
    Max angular momentum: 2

  ==> Pre-Iterations <==

   -------------------------------------------------------
    Irrep   Nso     Nmo     Nalpha   Nbeta   Ndocc  Nsocc
   -------------------------------------------------------
     A        243     243       0       0       0       0
   -------------------------------------------------------
    Total     243     243      44      44      44       0
   -------------------------------------------------------

  ==> Integral Setup <==

  Using integral reordering PK algorithm.
  Sizing the integral batches needed.
  Building batch lookup table.
   Calculation information:
      Number of atoms:                  27
      Number of AO shells:             117
      Number of primitives:            339
      Number of atomic orbitals:       255
      Number of basis functions:       243

      Integral cutoff                 1.00e-12
      Number of threads:                 1

	Batch   1 pq = [       0,    9405] index = [             0,44231715] size =     44231715
	Batch   2 pq = [    9405,   13301] index = [      44231715,88464951] size =     44233236
	Batch   3 pq = [   13301,   16290] index = [      88464951,132690195] size =     44225244
	Batch   4 pq = [   16290,   18810] index = [     132690195,176917455] size =     44227260
	Batch   5 pq = [   18810,   21030] index = [     176917455,221140965] size =     44223510
	Batch   6 pq = [   21030,   23037] index = [     221140965,265363203] size =     44222238
	Batch   7 pq = [   23037,   24883] index = [     265363203,309594286] size =     44231083
	Batch   8 pq = [   24883,   26601] index = [     309594286,353819901] size =     44225615
	Batch   9 pq = [   26601,   28214] index = [     353819901,398029005] size =     44209104
	Batch  10 pq = [   28214,   29646] index = [     398029005,439457481] size =     41428476
  Task number: 40
  Buffer size: 11059200
  Buffer per thread: 2
  We computed 20036620 shell quartets total.
  Whereas there are 23829156 unique shell quartets.

  ==> DiskJK: Disk-Based J/K Matrices <==

    J tasked:                  Yes
    K tasked:                  Yes
    wK tasked:                  No
    Memory [MiB]:              375
    Schwarz Cutoff:          1E-12

    OpenMP threads:              1

  Minimum eigenvalue in the overlap matrix is 2.3536630146E-04.
  Using Symmetric Orthogonalization.

  SCF Guess: Superposition of Atomic Densities via on-the-fly atomic UHF.

  ==> Iterations <==

                        Total Energy        Delta E     RMS |[F,P]|

   @RHF iter SAD:  -479.06384023067085   -4.79064e+02   0.00000e+00
   @RHF iter   1:  -479.48839819048465   -4.24558e-01   2.61335e-03 DIIS
   @RHF iter   2:  -479.72208358488712   -2.33685e-01   1.16234e-03 DIIS
   @RHF iter   3:  -479.76421591029032   -4.21323e-02   3.02643e-04 DIIS
   @RHF iter   4:  -479.76802025035795   -3.80434e-03   1.39748e-04 DIIS
   @RHF iter   5:  -479.76867178477517   -6.51534e-04   2.00367e-05 DIIS
   @RHF iter   6:  -479.76870084312168   -2.90583e-05   9.11452e-06 DIIS
   @RHF iter   7:  -479.76870668574082   -5.84262e-06   3.77300e-06 DIIS
   @RHF iter   8:  -479.76870830273737   -1.61700e-06   1.47428e-06 DIIS
   @RHF iter   9:  -479.76870861735460   -3.14617e-07   6.47140e-07 DIIS
   @RHF iter  10:  -479.76870867951664   -6.21620e-08   2.99920e-07 DIIS
   @RHF iter  11:  -479.76870869511924   -1.56026e-08   1.13838e-07 DIIS
   @RHF iter  12:  -479.76870869736973   -2.25049e-09   3.66251e-08 DIIS
   @RHF iter  13:  -479.76870869752764   -1.57911e-10   9.76753e-09 DIIS
   @RHF iter  14:  -479.76870869753645   -8.81073e-12   3.94778e-09 DIIS
   @RHF iter  15:  -479.76870869753890   -2.44427e-12   2.14827e-09 DIIS
   @RHF iter  16:  -479.76870869754123   -2.33058e-12   9.27846e-10 DIIS
   @RHF iter  17:  -479.76870869754464   -3.41061e-12   3.80834e-10 DIIS
   @RHF iter  18:  -479.76870869753890    5.74119e-12   1.53278e-10 DIIS
   @RHF iter  19:  -479.76870869754219   -3.29692e-12   5.16906e-11 DIIS
  Energy and wave function converged.

  ==> Post-Iterations <==

    Orbital Energies [Eh]
    ---------------------

    Doubly Occupied:

       1A    -15.599676     2A    -11.262597     3A    -11.261347
       4A    -11.228980     5A    -11.227289     6A    -11.226027
       7A    -11.225941     8A    -11.221666     9A    -11.220186
      10A    -11.219337    11A    -11.219074    12A    -11.216586
      13A     -1.294258    14A     -1.127152    15A     -1.072976
      16A     -1.023078    17A     -0.996671    18A     -0.986579
      19A     -0.930488    20A     -0.840557    21A     -0.836594
      22A     -0.802068    23A     -0.751961    24A     -0.718449
      25A     -0.661759    26A     -0.640543    27A     -0.604123
      28A     -0.601774    29A     -0.599932    30A     -0.592645
      31A     -0.588617    32A     -0.566025    33A     -0.552310
      34A     -0.537638    35A     -0.526502    36A     -0.504125
      37A     -0.494385    38A     -0.490131    39A     -0.486722
      40A     -0.468224    41A     -0.460387    42A     -0.370798
      43A     -0.293982    44A     -0.274511

    Virtual:

      45A      0.127280    46A      0.165105    47A      0.171332
      48A      0.187677    49A      0.190800    50A      0.202784
      51A      0.222248    52A      0.227969    53A      0.229884
      54A      0.246088    55A      0.259764    56A      0.267213
      57A      0.273390    58A      0.281155    59A      0.283664
      60A      0.289660    61A      0.298190    62A      0.313589
      63A      0.376021    64A      0.376162    65A      0.403311
      66A      0.408189    67A      0.431464    68A      0.444723
      69A      0.479238    70A      0.485184    71A      0.499227
      72A      0.512479    73A      0.587682    74A      0.596290
      75A      0.601361    76A      0.611076    77A      0.620875
      78A      0.635105    79A      0.641997    80A      0.663401
      81A      0.678206    82A      0.692116    83A      0.704808
      84A      0.712765    85A      0.720822    86A      0.731519
      87A      0.740805    88A      0.741470    89A      0.749346
      90A      0.762095    91A      0.765464    92A      0.778886
      93A      0.783535    94A      0.793400    95A      0.810374
      96A      0.825310    97A      0.833594    98A      0.869693
      99A      0.878074   100A      0.885348   101A      0.889487
     102A      0.890099   103A      0.894411   104A      0.896575
     105A      0.905886   106A      0.912751   107A      0.916961
     108A      0.929639   109A      0.937775   110A      0.949459
     111A      0.958233   112A      0.960453   113A      0.982323
     114A      0.997957   115A      1.009936   116A      1.017541
     117A      1.067069   118A      1.074257   119A      1.093657
     120A      1.120800   121A      1.125090   122A      1.134894
     123A      1.143715   124A      1.154597   125A      1.160886
     126A      1.175977   127A      1.211128   128A      1.216114
     129A      1.231329   130A      1.237940   131A      1.243557
     132A      1.255684   133A      1.271043   134A      1.298523
     135A      1.317209   136A      1.329677   137A      1.338064
     138A      1.359853   139A      1.373060   140A      1.402407
     141A      1.446640   142A      1.468365   143A      1.481610
     144A      1.530915   145A      1.563133   146A      1.578142
     147A      1.584689   148A      1.593095   149A      1.634486
     150A      1.640897   151A      1.656804   152A      1.675171
     153A      1.687051   154A      1.688933   155A      1.695290
     156A      1.744564   157A      1.763855   158A      1.778348
     159A      1.790331   160A      1.805610   161A      1.822265
     162A      1.832042   163A      1.857581   164A      1.863423
     165A      1.883618   166A      1.886522   167A      1.901717
     168A      1.912327   169A      1.919406   170A      1.923823
     171A      1.933067   172A      1.937549   173A      1.942400
     174A      1.948263   175A      1.951722   176A      1.964919
     177A      1.974087   178A      1.976440   179A      2.006251
     180A      2.012418   181A      2.022117   182A      2.024024
     183A      2.046424   184A      2.074671   185A      2.082424
     186A      2.093089   187A      2.099373   188A      2.104669
     189A      2.119685   190A      2.120954   191A      2.127373
     192A      2.146807   193A      2.152390   194A      2.175853
     195A      2.190741   196A      2.225626   197A      2.243731
     198A      2.289800   199A      2.296092   200A      2.298417
     201A      2.317171   202A      2.337845   203A      2.353193
     204A      2.356262   205A      2.393794   206A      2.429067
     207A      2.447210   208A      2.457090   209A      2.468784
     210A      2.472696   211A      2.536726   212A      2.553060
     213A      2.574123   214A      2.586112   215A      2.613045
     216A      2.652153   217A      2.655929   218A      2.684885
     219A      2.704607   220A      2.759857   221A      2.767963
     222A      2.774563   223A      2.780363   224A      2.790459
     225A      2.806679   226A      2.833001   227A      2.841200
     228A      2.853886   229A      2.864216   230A      2.882961
     231A      2.918307   232A      2.939772   233A      2.954611
     234A      2.980100   235A      3.044245   236A      3.053523
     237A      3.083378   238A      3.122180   239A      3.207932
     240A      3.317419   241A      3.384146   242A      3.739924
     243A      3.957640

    Final Occupation by Irrep:
              A
    DOCC [    44 ]

  @RHF Final Energy:  -479.76870869754219

   => Energetics <=

    Nuclear Repulsion Energy =            639.7745362926738153
    One-Electron Energy =               -1917.4371537646095476
    Two-Electron Energy =                 797.8939087743935943
    Total Energy =                       -479.7687086975422517

Computation Completed

Properties will be evaluated at   0.000000,   0.000000,   0.000000 [a0]

Properties computed using the SCF density matrix

  Nuclear Dipole Moment: [e a0]
     X:    -1.4699      Y:    11.2327      Z:     9.1831

  Electronic Dipole Moment: [e a0]
     X:     2.0993      Y:   -10.9076      Z:    -8.8477

  Dipole Moment: [e a0]
     X:     0.6294      Y:     0.3251      Z:     0.3354     Total:     0.7838

  Dipole Moment: [D]
     X:     1.5997      Y:     0.8263      Z:     0.8526     Total:     1.9922

*** tstop() called on ds3 at Mon Apr 27 13:00:43 2020
Module time:
	user time   =     187.24 seconds =       3.12 minutes
	system time =      84.32 seconds =       1.41 minutes
	total time  =        273 seconds =       4.55 minutes
Total time:
	user time   =     187.24 seconds =       3.12 minutes
	system time =      84.32 seconds =       1.41 minutes
	total time  =        273 seconds =       4.55 minutes
                                     G D M A

                                 by Anthony Stone

                           version 2.2.06, 22 June 2011

               Distributed Multipoles from Gaussian wavefunctions

Starting at 13:0:43 on 27 Apr 2020

Using SCF density matrix from file ./SSI/SSI-010LEU-096TRP-1-dimer.test.4696.fchk

                         Distributed Multipole Analysis

Standard DMA

Positions and radii in angstrom
Multipole moments in atomic units, ea_0^k for rank k

C          x = -0.922328  y =  2.634135  z =  3.158000 angstrom
           Maximum rank =  0   Radius =  0.650 angstrom
                   Q00  =  -0.236970

C          x = -0.569328  y =  3.849135  z =  4.008000 angstrom
           Maximum rank =  0   Radius =  0.650 angstrom
                   Q00  =  -0.232515

H          x = -1.042328  y =  1.755135  z =  3.792000 angstrom
           Maximum rank =  0   Radius =  0.325 angstrom
                   Q00  =   0.072224

H          x = -1.852328  y =  2.818135  z =  2.619000 angstrom
           Maximum rank =  0   Radius =  0.325 angstrom
                   Q00  =   0.087031

H          x = -0.130328  y =  2.455135  z =  2.430000 angstrom
           Maximum rank =  0   Radius =  0.325 angstrom
                   Q00  =   0.072570

H          x = -0.445328  y =  4.685135  z =  3.321000 angstrom
           Maximum rank =  0   Radius =  0.325 angstrom
                   Q00  =   0.078035

H          x =  0.371452  y =  3.690545  z =  4.555530 angstrom
           Maximum rank =  0   Radius =  0.325 angstrom
                   Q00  =   0.078139

H          x = -1.392768  y =  4.101839  z =  4.692167 angstrom
           Maximum rank =  0   Radius =  0.325 angstrom
                   Q00  =   0.081794

C          x =  1.777672  y = -1.298865  z = -3.256000 angstrom
           Maximum rank =  0   Radius =  0.650 angstrom
                   Q00  =  -0.205209

C          x =  0.288672  y = -0.455865  z =  0.085000 angstrom
           Maximum rank =  0   Radius =  0.650 angstrom
                   Q00  =   0.279578

C          x =  0.131672  y = -0.891865  z = -1.256000 angstrom
           Maximum rank =  0   Radius =  0.650 angstrom
                   Q00  =  -0.056296

C          x =  1.440672  y = -0.908865  z = -1.855000 angstrom
           Maximum rank =  0   Radius =  0.650 angstrom
                   Q00  =  -0.117775

C          x =  2.306672  y = -0.499865  z = -0.891000 angstrom
           Maximum rank =  0   Radius =  0.650 angstrom
                   Q00  =   0.069565

C          x = -0.781328  y = -0.312865  z =  0.952000 angstrom
           Maximum rank =  0   Radius =  0.650 angstrom
                   Q00  =  -0.119646

C          x = -2.042328  y = -0.620865  z =  0.476000 angstrom
           Maximum rank =  0   Radius =  0.650 angstrom
                   Q00  =  -0.030111

C          x = -2.234328  y = -1.049865  z = -0.843000 angstrom
           Maximum rank =  0   Radius =  0.650 angstrom
                   Q00  =  -0.098972

C          x = -1.160328  y = -1.185865  z = -1.717000 angstrom
           Maximum rank =  0   Radius =  0.650 angstrom
                   Q00  =  -0.101889

N          x =  1.624672  y = -0.226865  z =  0.271000 angstrom
           Maximum rank =  0   Radius =  0.650 angstrom
                   Q00  =  -0.502747

H          x = -0.634328  y =  0.026135  z =  1.965000 angstrom
           Maximum rank =  0   Radius =  0.325 angstrom
                   Q00  =   0.077005

H          x = -2.897328  y = -0.484865  z =  1.124000 angstrom
           Maximum rank =  0   Radius =  0.325 angstrom
                   Q00  =   0.062508

H          x =  2.037672  y =  0.184135  z =  1.106000 angstrom
           Maximum rank =  0   Radius =  0.325 angstrom
                   Q00  =   0.216788

H          x = -3.237328  y = -1.251865  z = -1.195000 angstrom
           Maximum rank =  0   Radius =  0.325 angstrom
                   Q00  =   0.058977

H          x =  3.377672  y = -0.406865  z = -1.029000 angstrom
           Maximum rank =  0   Radius =  0.325 angstrom
                   Q00  =   0.100339

H          x = -1.346328  y = -1.469865  z = -2.738000 angstrom
           Maximum rank =  0   Radius =  0.325 angstrom
                   Q00  =   0.068218

H          x =  2.861672  y = -1.385865  z = -3.343000 angstrom
           Maximum rank =  0   Radius =  0.325 angstrom
                   Q00  =   0.102433

H          x =  1.451672  y = -0.494865  z = -3.917000 angstrom
           Maximum rank =  0   Radius =  0.325 angstrom
                   Q00  =   0.097226

H          x =  1.315332  y = -2.240765  z = -3.586241 angstrom
           Maximum rank =  0   Radius =  0.325 angstrom
                   Q00  =   0.099697

Total multipoles referred to origin at
           x =   0.000000,  y =    0.000000,  z =    0.000000 angstrom
                   Q00  =  -0.000000

Finished at 13:0:43 on 27 Apr 2020

  DMA results are available in the Python driver through the
	  variable('DMA DISTRIBUTED MULTIPOLES')
  and
	  variable('DMA TOTAL MULTIPOLES')
  commands.

    Psi4 stopped on: Monday, 27 April 2020 01:00PM
    Psi4 wall time for execution: 0:04:32.94

*** Psi4 exiting successfully. Buy a developer a beer!
