                               Psi4 1.3.2 release

  ==> Input File <==

--------------------------------------------------------------------------
import numpy as np
set {scf_type pk
basis cc-pvdz
d_convergence 10
gdma_switch   0
gdma_limit    0
gdma_origin   [ 0.0,  0.0,  0.0 ]
}
molecule test {
    units Angstrom
    0 1
    --
    0 1
    C               -1.182567573057464    -1.477697284586510     1.762096052190757
    C               -2.250567573057464    -2.555697284586509     1.650096052190757
    O                0.100432426942536    -2.045697284586510     1.998096052190757
    H               -1.155567573057464    -0.931697284586509     0.822096052190757
    H               -1.434567573057464    -0.782697284586509     2.563096052190757
    H               -2.010567573057464    -3.212697284586509     0.816096052190757
    H                0.180432426942536    -2.397697284586509     2.904096052190757
    H               -3.241527573057464    -2.101007284586510     1.504326052190757
    H               -2.252757573057464    -3.149607284586510     2.575986052190757
    C                2.318432426942536     1.617302715413490     1.438096052190757
    C                0.408432426942536     0.988302715413491    -0.265903947809243
    C                1.769432426942536     0.941302715413491     0.222096052190757
    C                0.350432426942536     0.158302715413491    -1.411903947809243
    C                2.441432426942536     0.085302715413491    -0.604903947809243
    C               -0.762567573057464     1.664302715413490     0.124096052190757
    C               -0.816567573057464    -0.017697284586509    -2.145903947809243
    C               -1.941567573057464     1.471302715413491    -0.600903947809243
    C               -1.955567573057464     0.666302715413491    -1.745903947809243
    N                1.599432426942536    -0.377697284586509    -1.583903947809243
    H               -0.757567573057464     2.301302715413490     0.993096052190757
    H                3.165432426942536     1.032302715413491     1.786096052190757
    H                1.550432426942536     1.571302715413491     2.205096052190757
    H                3.479432426942536    -0.203697284586509    -0.483903947809243
    H                1.860432426942536    -1.086697284586509    -2.266903947809243
    H               -0.831567573057464    -0.658697284586509    -3.015903947809243
    H               -2.846567573057464     1.977302715413491    -0.301903947809243
    H               -2.874567573057464     0.536302715413491    -2.300903947809243
    H                2.655952426942536     2.654532715413490     1.295826052190757

}
e, wfn = energy('scf', return_wfn=True)
gdma(wfn)
dmavals = variable('DMA DISTRIBUTED MULTIPOLES')
charges = np.array(dmavals)
print(charges)
np.save('SSI-219SER-229TRP-1-dimer.npy', np.array(charges))--------------------------------------------------------------------------

*** tstart() called on ds3
*** at Tue Apr 28 03:16:14 2020

   => Loading Basis Set <=

    Name: CC-PVDZ
    Role: ORBITAL
    Keyword: BASIS
    atoms 1-2, 10-18 entry C          line   138 file /theoryfs2/ds/metcalf/miniconda2/envs/tf2gpu/share/psi4/basis/cc-pvdz.gbs
    atoms 3          entry O          line   198 file /theoryfs2/ds/metcalf/miniconda2/envs/tf2gpu/share/psi4/basis/cc-pvdz.gbs
    atoms 4-9, 20-28 entry H          line    22 file /theoryfs2/ds/metcalf/miniconda2/envs/tf2gpu/share/psi4/basis/cc-pvdz.gbs
    atoms 19         entry N          line   168 file /theoryfs2/ds/metcalf/miniconda2/envs/tf2gpu/share/psi4/basis/cc-pvdz.gbs

         ---------------------------------------------------------
                                   SCF
               by Justin Turney, Rob Parrish, Andy Simmonett
                          and Daniel G. A. Smith
                              RHF Reference
                        1 Threads,    500 MiB Core
         ---------------------------------------------------------

  ==> Geometry <==

    Molecular point group: c1
    Full point group: C1

    Geometry (in Angstrom), charge = 0, multiplicity = 1:

       Center              X                  Y                   Z               Mass
    ------------   -----------------  -----------------  -----------------  -----------------
         C           -1.182567573057    -1.477697284587     1.762096052191    12.000000000000
         C           -2.250567573057    -2.555697284587     1.650096052191    12.000000000000
         O            0.100432426943    -2.045697284587     1.998096052191    15.994914619570
         H           -1.155567573057    -0.931697284587     0.822096052191     1.007825032230
         H           -1.434567573057    -0.782697284587     2.563096052191     1.007825032230
         H           -2.010567573057    -3.212697284587     0.816096052191     1.007825032230
         H            0.180432426943    -2.397697284587     2.904096052191     1.007825032230
         H           -3.241527573057    -2.101007284587     1.504326052191     1.007825032230
         H           -2.252757573057    -3.149607284587     2.575986052191     1.007825032230
         C            2.318432426943     1.617302715413     1.438096052191    12.000000000000
         C            0.408432426943     0.988302715413    -0.265903947809    12.000000000000
         C            1.769432426943     0.941302715413     0.222096052191    12.000000000000
         C            0.350432426943     0.158302715413    -1.411903947809    12.000000000000
         C            2.441432426943     0.085302715413    -0.604903947809    12.000000000000
         C           -0.762567573057     1.664302715413     0.124096052191    12.000000000000
         C           -0.816567573057    -0.017697284587    -2.145903947809    12.000000000000
         C           -1.941567573057     1.471302715413    -0.600903947809    12.000000000000
         C           -1.955567573057     0.666302715413    -1.745903947809    12.000000000000
         N            1.599432426943    -0.377697284587    -1.583903947809    14.003074004430
         H           -0.757567573057     2.301302715413     0.993096052191     1.007825032230
         H            3.165432426943     1.032302715413     1.786096052191     1.007825032230
         H            1.550432426943     1.571302715413     2.205096052191     1.007825032230
         H            3.479432426943    -0.203697284587    -0.483903947809     1.007825032230
         H            1.860432426943    -1.086697284587    -2.266903947809     1.007825032230
         H           -0.831567573057    -0.658697284587    -3.015903947809     1.007825032230
         H           -2.846567573057     1.977302715413    -0.301903947809     1.007825032230
         H           -2.874567573057     0.536302715413    -2.300903947809     1.007825032230
         H            2.655952426943     2.654532715413     1.295826052191     1.007825032230

  Running in c1 symmetry.

  Rotational constants: A =      0.02735  B =      0.02188  C =      0.01679 [cm^-1]
  Rotational constants: A =    819.94330  B =    655.89978  C =    503.42533 [MHz]
  Nuclear repulsion =  777.351681143412748

  Charge       = 0
  Multiplicity = 1
  Electrons    = 96
  Nalpha       = 48
  Nbeta        = 48

  ==> Algorithm <==

  SCF Algorithm Type is PK.
  DIIS enabled.
  MOM disabled.
  Fractional occupation disabled.
  Guess Type is SAD.
  Energy threshold   = 1.00e-06
  Density threshold  = 1.00e-10
  Integral threshold = 0.00e+00

  ==> Primary Basis <==

  Basis Set: CC-PVDZ
    Blend: CC-PVDZ
    Number of shells: 123
    Number of basis function: 257
    Number of Cartesian functions: 270
    Spherical Harmonics?: true
    Max angular momentum: 2

  ==> Pre-Iterations <==

   -------------------------------------------------------
    Irrep   Nso     Nmo     Nalpha   Nbeta   Ndocc  Nsocc
   -------------------------------------------------------
     A        257     257       0       0       0       0
   -------------------------------------------------------
    Total     257     257      48      48      48       0
   -------------------------------------------------------

  ==> Integral Setup <==

  Using integral reordering PK algorithm.
  Sizing the integral batches needed.
  Building batch lookup table.
   Calculation information:
      Number of atoms:                  28
      Number of AO shells:             123
      Number of primitives:            361
      Number of atomic orbitals:       270
      Number of basis functions:       257

      Integral cutoff                 1.00e-12
      Number of threads:                 1

	Batch   1 pq = [       0,    9405] index = [             0,44231715] size =     44231715
	Batch   2 pq = [    9405,   13301] index = [      44231715,88464951] size =     44233236
	Batch   3 pq = [   13301,   16290] index = [      88464951,132690195] size =     44225244
	Batch   4 pq = [   16290,   18810] index = [     132690195,176917455] size =     44227260
	Batch   5 pq = [   18810,   21030] index = [     176917455,221140965] size =     44223510
	Batch   6 pq = [   21030,   23037] index = [     221140965,265363203] size =     44222238
	Batch   7 pq = [   23037,   24883] index = [     265363203,309594286] size =     44231083
	Batch   8 pq = [   24883,   26601] index = [     309594286,353819901] size =     44225615
	Batch   9 pq = [   26601,   28214] index = [     353819901,398029005] size =     44209104
	Batch  10 pq = [   28214,   29740] index = [     398029005,442248670] size =     44219665
	Batch  11 pq = [   29740,   31191] index = [     442248670,486454836] size =     44206166
	Batch  12 pq = [   31191,   32578] index = [     486454836,530679331] size =     44224495
	Batch  13 pq = [   32578,   33153] index = [     530679331,549577281] size =     18897950
  Task number: 50
  Buffer size: 11059200
  Buffer per thread: 2
  We computed 31600776 shell quartets total.
  Whereas there are 29081751 unique shell quartets.
     8.66 percent of shell quartets recomputed by reordering.

  ==> DiskJK: Disk-Based J/K Matrices <==

    J tasked:                  Yes
    K tasked:                  Yes
    wK tasked:                  No
    Memory [MiB]:              375
    Schwarz Cutoff:          1E-12

    OpenMP threads:              1

  Minimum eigenvalue in the overlap matrix is 2.4764863995E-04.
  Using Symmetric Orthogonalization.

  SCF Guess: Superposition of Atomic Densities via on-the-fly atomic UHF.

  ==> Iterations <==

                        Total Energy        Delta E     RMS |[F,P]|

   @RHF iter SAD:  -553.73818621789951   -5.53738e+02   0.00000e+00
   @RHF iter   1:  -554.32169760991871   -5.83511e-01   2.64619e-03 DIIS
   @RHF iter   2:  -554.57054222775218   -2.48845e-01   1.23317e-03 DIIS
   @RHF iter   3:  -554.61780833901855   -4.72661e-02   2.98605e-04 DIIS
   @RHF iter   4:  -554.62181181520623   -4.00348e-03   1.25942e-04 DIIS
   @RHF iter   5:  -554.62240757218638   -5.95757e-04   2.30063e-05 DIIS
   @RHF iter   6:  -554.62244113055135   -3.35584e-05   1.03884e-05 DIIS
   @RHF iter   7:  -554.62244861010720   -7.47956e-06   3.65213e-06 DIIS
   @RHF iter   8:  -554.62245041959022   -1.80948e-06   1.46974e-06 DIIS
   @RHF iter   9:  -554.62245078370177   -3.64112e-07   6.50422e-07 DIIS
   @RHF iter  10:  -554.62245084951451   -6.58127e-08   3.03821e-07 DIIS
   @RHF iter  11:  -554.62245086771691   -1.82024e-08   1.20277e-07 DIIS
   @RHF iter  12:  -554.62245087032022   -2.60331e-09   4.32380e-08 DIIS
   @RHF iter  13:  -554.62245087055317   -2.32944e-10   1.52481e-08 DIIS
   @RHF iter  14:  -554.62245087058113   -2.79670e-11   6.04658e-09 DIIS
   @RHF iter  15:  -554.62245087058159   -4.54747e-13   2.45474e-09 DIIS
   @RHF iter  16:  -554.62245087058625   -4.66116e-12   1.23813e-09 DIIS
   @RHF iter  17:  -554.62245087058068    5.57066e-12   5.68689e-10 DIIS
   @RHF iter  18:  -554.62245087058091   -2.27374e-13   1.95950e-10 DIIS
   @RHF iter  19:  -554.62245087059205   -1.11413e-11   7.25846e-11 DIIS
  Energy and wave function converged.

  ==> Post-Iterations <==

    Orbital Energies [Eh]
    ---------------------

    Doubly Occupied:

       1A    -20.535011     2A    -15.597551     3A    -11.261447
       4A    -11.260213     5A    -11.257255     6A    -11.230457
       7A    -11.230027     8A    -11.228664     9A    -11.221455
      10A    -11.220815    11A    -11.219632    12A    -11.213708
      13A    -11.210087    14A     -1.332365    15A     -1.291273
      16A     -1.126545    17A     -1.067373    18A     -0.996350
      19A     -0.994562    20A     -0.986549    21A     -0.926024
      22A     -0.838099    23A     -0.826607    24A     -0.800188
      25A     -0.749291    26A     -0.716469    27A     -0.668652
      28A     -0.660226    29A     -0.641175    30A     -0.611379
      31A     -0.599754    32A     -0.588803    33A     -0.585146
      34A     -0.578385    35A     -0.564869    36A     -0.548859
      37A     -0.533186    38A     -0.529795    39A     -0.524685
      40A     -0.507638    41A     -0.492678    42A     -0.468125
      43A     -0.468078    44A     -0.448046    45A     -0.420000
      46A     -0.367600    47A     -0.295068    48A     -0.270796

    Virtual:

      49A      0.126532    50A      0.169620    51A      0.178402
      52A      0.184403    53A      0.198896    54A      0.202733
      55A      0.222601    56A      0.230139    57A      0.230902
      58A      0.236919    59A      0.258947    60A      0.267506
      61A      0.270531    62A      0.275285    63A      0.284470
      64A      0.294321    65A      0.302721    66A      0.322599
      67A      0.377069    68A      0.384825    69A      0.396053
      70A      0.408586    71A      0.414452    72A      0.423060
      73A      0.443785    74A      0.474591    75A      0.483951
      76A      0.503282    77A      0.517175    78A      0.591310
      79A      0.596643    80A      0.615122    81A      0.621983
      82A      0.641305    83A      0.643138    84A      0.665199
      85A      0.681485    86A      0.693686    87A      0.698909
      88A      0.713853    89A      0.724655    90A      0.733022
      91A      0.736444    92A      0.742594    93A      0.750566
      94A      0.760980    95A      0.770083    96A      0.780079
      97A      0.788675    98A      0.791996    99A      0.807970
     100A      0.826614   101A      0.847827   102A      0.858451
     103A      0.872262   104A      0.877799   105A      0.884525
     106A      0.889473   107A      0.896201   108A      0.897971
     109A      0.902937   110A      0.906084   111A      0.920426
     112A      0.923379   113A      0.929959   114A      0.944445
     115A      0.955414   116A      0.958100   117A      0.965877
     118A      0.983932   119A      1.000900   120A      1.015965
     121A      1.038854   122A      1.066427   123A      1.080070
     124A      1.104568   125A      1.125993   126A      1.130066
     127A      1.136999   128A      1.156533   129A      1.157987
     130A      1.164289   131A      1.180531   132A      1.207793
     133A      1.228977   134A      1.229980   135A      1.239308
     136A      1.254576   137A      1.274567   138A      1.284576
     139A      1.290700   140A      1.297115   141A      1.317616
     142A      1.329200   143A      1.345261   144A      1.362168
     145A      1.364878   146A      1.385240   147A      1.415801
     148A      1.426457   149A      1.448592   150A      1.510976
     151A      1.514976   152A      1.540036   153A      1.555460
     154A      1.578169   155A      1.601761   156A      1.628430
     157A      1.638356   158A      1.644057   159A      1.651499
     160A      1.668494   161A      1.688412   162A      1.691558
     163A      1.704690   164A      1.747115   165A      1.754642
     166A      1.768846   167A      1.774272   168A      1.782039
     169A      1.812887   170A      1.828877   171A      1.842801
     172A      1.867305   173A      1.889632   174A      1.892628
     175A      1.899643   176A      1.904446   177A      1.913710
     178A      1.915083   179A      1.930144   180A      1.934687
     181A      1.942127   182A      1.953330   183A      1.972508
     184A      1.975097   185A      1.985334   186A      1.990556
     187A      1.996779   188A      2.005012   189A      2.008248
     190A      2.031661   191A      2.044095   192A      2.063313
     193A      2.081904   194A      2.089176   195A      2.100306
     196A      2.101570   197A      2.112739   198A      2.117333
     199A      2.120476   200A      2.151735   201A      2.169660
     202A      2.176236   203A      2.180873   204A      2.207057
     205A      2.220165   206A      2.260167   207A      2.279489
     208A      2.286984   209A      2.300206   210A      2.304087
     211A      2.320015   212A      2.341201   213A      2.360349
     214A      2.368446   215A      2.414351   216A      2.421349
     217A      2.433603   218A      2.452318   219A      2.474209
     220A      2.532507   221A      2.547827   222A      2.563975
     223A      2.572115   224A      2.593017   225A      2.608233
     226A      2.636424   227A      2.664120   228A      2.681789
     229A      2.711431   230A      2.766428   231A      2.780943
     232A      2.787047   233A      2.790349   234A      2.793456
     235A      2.803820   236A      2.819392   237A      2.833596
     238A      2.871342   239A      2.892664   240A      2.907469
     241A      2.913922   242A      2.962620   243A      2.995271
     244A      3.021622   245A      3.060202   246A      3.071825
     247A      3.121714   248A      3.199048   249A      3.295667
     250A      3.322595   251A      3.381378   252A      3.414259
     253A      3.461837   254A      3.667870   255A      3.740848
     256A      3.941734   257A      4.105701

    Final Occupation by Irrep:
              A
    DOCC [    48 ]

  @RHF Final Energy:  -554.62245087059205

   => Energetics <=

    Nuclear Repulsion Energy =            777.3516811434127476
    One-Electron Energy =               -2296.5263405652685833
    Two-Electron Energy =                 964.5522085512636750
    Total Energy =                       -554.6224508705920471

Computation Completed

Properties will be evaluated at   0.000000,   0.000000,   0.000000 [a0]

Properties computed using the SCF density matrix

  Nuclear Dipole Moment: [e a0]
     X:    -4.2351      Y:    -4.1818      Z:     8.5417

  Electronic Dipole Moment: [e a0]
     X:     4.4545      Y:     3.7166      Z:    -8.4563

  Dipole Moment: [e a0]
     X:     0.2194      Y:    -0.4652      Z:     0.0854     Total:     0.5214

  Dipole Moment: [D]
     X:     0.5577      Y:    -1.1825      Z:     0.2170     Total:     1.3253

*** tstop() called on ds3 at Tue Apr 28 03:21:57 2020
Module time:
	user time   =     258.54 seconds =       4.31 minutes
	system time =      95.91 seconds =       1.60 minutes
	total time  =        343 seconds =       5.72 minutes
Total time:
	user time   =     258.54 seconds =       4.31 minutes
	system time =      95.91 seconds =       1.60 minutes
	total time  =        343 seconds =       5.72 minutes
                                     G D M A

                                 by Anthony Stone

                           version 2.2.06, 22 June 2011

               Distributed Multipoles from Gaussian wavefunctions

Starting at 3:21:57 on 28 Apr 2020

Using SCF density matrix from file ./SSI/SSI-219SER-229TRP-1-dimer.test.32233.fchk

                         Distributed Multipole Analysis

Standard DMA

Positions and radii in angstrom
Multipole moments in atomic units, ea_0^k for rank k

C          x = -1.182568  y = -1.477697  z =  1.762096 angstrom
           Maximum rank =  0   Radius =  0.650 angstrom
                   Q00  =   0.131796

C          x = -2.250568  y = -2.555697  z =  1.650096 angstrom
           Maximum rank =  0   Radius =  0.650 angstrom
                   Q00  =  -0.256009

O          x =  0.100432  y = -2.045697  z =  1.998096 angstrom
           Maximum rank =  0   Radius =  0.650 angstrom
                   Q00  =  -0.626414

H          x = -1.155568  y = -0.931697  z =  0.822096 angstrom
           Maximum rank =  0   Radius =  0.325 angstrom
                   Q00  =   0.099652

H          x = -1.434568  y = -0.782697  z =  2.563096 angstrom
           Maximum rank =  0   Radius =  0.325 angstrom
                   Q00  =   0.025626

H          x = -2.010568  y = -3.212697  z =  0.816096 angstrom
           Maximum rank =  0   Radius =  0.325 angstrom
                   Q00  =   0.088457

H          x =  0.180432  y = -2.397697  z =  2.904096 angstrom
           Maximum rank =  0   Radius =  0.325 angstrom
                   Q00  =   0.381373

H          x = -3.241528  y = -2.101007  z =  1.504326 angstrom
           Maximum rank =  0   Radius =  0.325 angstrom
                   Q00  =   0.080477

H          x = -2.252758  y = -3.149607  z =  2.575986 angstrom
           Maximum rank =  0   Radius =  0.325 angstrom
                   Q00  =   0.064818

C          x =  2.318432  y =  1.617303  z =  1.438096 angstrom
           Maximum rank =  0   Radius =  0.650 angstrom
                   Q00  =  -0.204215

C          x =  0.408432  y =  0.988303  z = -0.265904 angstrom
           Maximum rank =  0   Radius =  0.650 angstrom
                   Q00  =  -0.047336

C          x =  1.769432  y =  0.941303  z =  0.222096 angstrom
           Maximum rank =  0   Radius =  0.650 angstrom
                   Q00  =  -0.118785

C          x =  0.350432  y =  0.158303  z = -1.411904 angstrom
           Maximum rank =  0   Radius =  0.650 angstrom
                   Q00  =   0.296668

C          x =  2.441432  y =  0.085303  z = -0.604904 angstrom
           Maximum rank =  0   Radius =  0.650 angstrom
                   Q00  =   0.079391

C          x = -0.762568  y =  1.664303  z =  0.124096 angstrom
           Maximum rank =  0   Radius =  0.650 angstrom
                   Q00  =  -0.096938

C          x = -0.816568  y = -0.017697  z = -2.145904 angstrom
           Maximum rank =  0   Radius =  0.650 angstrom
                   Q00  =  -0.122447

C          x = -1.941568  y =  1.471303  z = -0.600904 angstrom
           Maximum rank =  0   Radius =  0.650 angstrom
                   Q00  =  -0.092240

C          x = -1.955568  y =  0.666303  z = -1.745904 angstrom
           Maximum rank =  0   Radius =  0.650 angstrom
                   Q00  =  -0.073498

N          x =  1.599432  y = -0.377697  z = -1.583904 angstrom
           Maximum rank =  0   Radius =  0.650 angstrom
                   Q00  =  -0.493736

H          x = -0.757568  y =  2.301303  z =  0.993096 angstrom
           Maximum rank =  0   Radius =  0.325 angstrom
                   Q00  =   0.068729

H          x =  3.165432  y =  1.032303  z =  1.786096 angstrom
           Maximum rank =  0   Radius =  0.325 angstrom
                   Q00  =   0.102536

H          x =  1.550432  y =  1.571303  z =  2.205096 angstrom
           Maximum rank =  0   Radius =  0.325 angstrom
                   Q00  =   0.100665

H          x =  3.479432  y = -0.203697  z = -0.483904 angstrom
           Maximum rank =  0   Radius =  0.325 angstrom
                   Q00  =   0.101541

H          x =  1.860432  y = -1.086697  z = -2.266904 angstrom
           Maximum rank =  0   Radius =  0.325 angstrom
                   Q00  =   0.216926

H          x = -0.831568  y = -0.658697  z = -3.015904 angstrom
           Maximum rank =  0   Radius =  0.325 angstrom
                   Q00  =   0.073442

H          x = -2.846568  y =  1.977303  z = -0.301904 angstrom
           Maximum rank =  0   Radius =  0.325 angstrom
                   Q00  =   0.060065

H          x = -2.874568  y =  0.536303  z = -2.300904 angstrom
           Maximum rank =  0   Radius =  0.325 angstrom
                   Q00  =   0.064192

H          x =  2.655952  y =  2.654533  z =  1.295826 angstrom
           Maximum rank =  0   Radius =  0.325 angstrom
                   Q00  =   0.095264

Total multipoles referred to origin at
           x =   0.000000,  y =    0.000000,  z =    0.000000 angstrom
                   Q00  =  -0.000000

Finished at 3:21:57 on 28 Apr 2020

  DMA results are available in the Python driver through the
	  variable('DMA DISTRIBUTED MULTIPOLES')
  and
	  variable('DMA TOTAL MULTIPOLES')
  commands.

    Psi4 stopped on: Tuesday, 28 April 2020 03:21AM
    Psi4 wall time for execution: 0:05:43.15

*** Psi4 exiting successfully. Buy a developer a beer!
