                               Psi4 1.3.2 release

  ==> Input File <==

--------------------------------------------------------------------------
import numpy as np
set {scf_type pk
basis cc-pvdz
d_convergence 10
gdma_switch   0
gdma_limit    0
gdma_origin   [ 0.0,  0.0,  0.0 ]
}
molecule test {
    units Angstrom
    0 1
    --
    0 1
    C               -0.772782264507471    -1.888551898328572    -1.257543874833230
    C               -0.303782264507471    -3.192551898328572    -0.619543874833230
    C               -2.046782264507470    -1.389551898328572    -0.608543874833230
    O               -2.638782264507471    -2.101551898328572     0.218456125166770
    N               -2.501782264507471    -0.214551898328572    -0.994543874833230
    H               -0.003782264507471    -1.134551898328572    -1.120543874833230
    H               -0.930782264507471    -2.018551898328572    -2.326543874833230
    H               -0.249782264507471    -3.023551898328573     0.458456125166770
    H               -3.346782264507470     0.179448101671428    -0.613543874833230
    H               -1.952782264507470     0.292448101671428    -1.680543874833230
    H                0.687167735492529    -3.482215898328572    -0.999155874833230
    H               -1.026562264507471    -3.999643898328572    -0.809786874833230
    C                0.786217735492529     3.257448101671427    -1.576543874833230
    C                0.439217735492529     0.602448101671428     1.119456125166770
    C                1.147217735492529     1.169448101671428     0.019456125166770
    C                0.436217735492529     2.350448101671428    -0.401543874833230
    C               -0.628782264507471     2.460448101671428     0.446456125166770
    C                0.877217735492529    -0.551551898328572     1.763456125166770
    C                2.029217735492530    -1.161551898328572     1.286456125166770
    C                2.280217735492529     0.496448101671428    -0.471543874833230
    C                2.727217735492529    -0.645551898328572     0.179456125166770
    N               -0.625782264507471     1.426448101671428     1.369456125166770
    H               -1.317782264507470     1.309448101671428     2.102456125166770
    H                0.340217735492529    -0.952551898328572     2.612456125166770
    H               -1.378782264507471     3.226448101671428     0.415456125166770
    H                2.396217735492530    -2.055551898328572     1.776456125166770
    H                2.820217735492529     0.896448101671428    -1.318543874833230
    H                1.847217735492529     3.148448101671428    -1.793543874833230
    H                0.607217735492529     4.293448101671428    -1.286543874833230
    H                3.619217735492529    -1.152551898328572    -0.159543874833230
    H                0.226537735492529     3.039595501671427    -2.498117874833230

}
e, wfn = energy('scf', return_wfn=True)
gdma(wfn)
dmavals = variable('DMA DISTRIBUTED MULTIPOLES')
charges = np.array(dmavals)
print(charges)
np.save('SSI-081ASN-100TRP-1-dimer.npy', np.array(charges))--------------------------------------------------------------------------

*** tstart() called on ds3
*** at Mon Apr 27 17:54:38 2020

   => Loading Basis Set <=

    Name: CC-PVDZ
    Role: ORBITAL
    Keyword: BASIS
    atoms 1-3, 13-21  entry C          line   138 file /theoryfs2/ds/metcalf/miniconda2/envs/tf2gpu/share/psi4/basis/cc-pvdz.gbs
    atoms 4           entry O          line   198 file /theoryfs2/ds/metcalf/miniconda2/envs/tf2gpu/share/psi4/basis/cc-pvdz.gbs
    atoms 5, 22       entry N          line   168 file /theoryfs2/ds/metcalf/miniconda2/envs/tf2gpu/share/psi4/basis/cc-pvdz.gbs
    atoms 6-12, 23-31 entry H          line    22 file /theoryfs2/ds/metcalf/miniconda2/envs/tf2gpu/share/psi4/basis/cc-pvdz.gbs

         ---------------------------------------------------------
                                   SCF
               by Justin Turney, Rob Parrish, Andy Simmonett
                          and Daniel G. A. Smith
                              RHF Reference
                        1 Threads,    500 MiB Core
         ---------------------------------------------------------

  ==> Geometry <==

    Molecular point group: c1
    Full point group: C1

    Geometry (in Angstrom), charge = 0, multiplicity = 1:

       Center              X                  Y                   Z               Mass
    ------------   -----------------  -----------------  -----------------  -----------------
         C           -0.772782264507    -1.888551898329    -1.257543874833    12.000000000000
         C           -0.303782264507    -3.192551898329    -0.619543874833    12.000000000000
         C           -2.046782264507    -1.389551898329    -0.608543874833    12.000000000000
         O           -2.638782264507    -2.101551898329     0.218456125167    15.994914619570
         N           -2.501782264507    -0.214551898329    -0.994543874833    14.003074004430
         H           -0.003782264507    -1.134551898329    -1.120543874833     1.007825032230
         H           -0.930782264507    -2.018551898329    -2.326543874833     1.007825032230
         H           -0.249782264507    -3.023551898329     0.458456125167     1.007825032230
         H           -3.346782264507     0.179448101671    -0.613543874833     1.007825032230
         H           -1.952782264507     0.292448101671    -1.680543874833     1.007825032230
         H            0.687167735493    -3.482215898329    -0.999155874833     1.007825032230
         H           -1.026562264507    -3.999643898329    -0.809786874833     1.007825032230
         C            0.786217735493     3.257448101671    -1.576543874833    12.000000000000
         C            0.439217735493     0.602448101671     1.119456125167    12.000000000000
         C            1.147217735493     1.169448101671     0.019456125167    12.000000000000
         C            0.436217735493     2.350448101671    -0.401543874833    12.000000000000
         C           -0.628782264507     2.460448101671     0.446456125167    12.000000000000
         C            0.877217735493    -0.551551898329     1.763456125167    12.000000000000
         C            2.029217735493    -1.161551898329     1.286456125167    12.000000000000
         C            2.280217735493     0.496448101671    -0.471543874833    12.000000000000
         C            2.727217735493    -0.645551898329     0.179456125167    12.000000000000
         N           -0.625782264507     1.426448101671     1.369456125167    14.003074004430
         H           -1.317782264507     1.309448101671     2.102456125167     1.007825032230
         H            0.340217735493    -0.952551898329     2.612456125167     1.007825032230
         H           -1.378782264507     3.226448101671     0.415456125167     1.007825032230
         H            2.396217735493    -2.055551898329     1.776456125167     1.007825032230
         H            2.820217735493     0.896448101671    -1.318543874833     1.007825032230
         H            1.847217735493     3.148448101671    -1.793543874833     1.007825032230
         H            0.607217735493     4.293448101671    -1.286543874833     1.007825032230
         H            3.619217735493    -1.152551898329    -0.159543874833     1.007825032230
         H            0.226537735493     3.039595501671    -2.498117874833     1.007825032230

  Running in c1 symmetry.

  Rotational constants: A =      0.02472  B =      0.01691  C =      0.01317 [cm^-1]
  Rotational constants: A =    741.02244  B =    506.81895  C =    394.96076 [MHz]
  Nuclear repulsion =  992.048778250330201

  Charge       = 0
  Multiplicity = 1
  Electrons    = 110
  Nalpha       = 55
  Nbeta        = 55

  ==> Algorithm <==

  SCF Algorithm Type is PK.
  DIIS enabled.
  MOM disabled.
  Fractional occupation disabled.
  Guess Type is SAD.
  Energy threshold   = 1.00e-06
  Density threshold  = 1.00e-10
  Integral threshold = 0.00e+00

  ==> Primary Basis <==

  Basis Set: CC-PVDZ
    Blend: CC-PVDZ
    Number of shells: 138
    Number of basis function: 290
    Number of Cartesian functions: 305
    Spherical Harmonics?: true
    Max angular momentum: 2

  ==> Pre-Iterations <==

   -------------------------------------------------------
    Irrep   Nso     Nmo     Nalpha   Nbeta   Ndocc  Nsocc
   -------------------------------------------------------
     A        290     290       0       0       0       0
   -------------------------------------------------------
    Total     290     290      55      55      55       0
   -------------------------------------------------------

  ==> Integral Setup <==

  Using integral reordering PK algorithm.
  Sizing the integral batches needed.
  Building batch lookup table.
   Calculation information:
      Number of atoms:                  31
      Number of AO shells:             138
      Number of primitives:            410
      Number of atomic orbitals:       305
      Number of basis functions:       290

      Integral cutoff                 1.00e-12
      Number of threads:                 1

	Batch   1 pq = [       0,    9405] index = [             0,44231715] size =     44231715
	Batch   2 pq = [    9405,   13301] index = [      44231715,88464951] size =     44233236
	Batch   3 pq = [   13301,   16290] index = [      88464951,132690195] size =     44225244
	Batch   4 pq = [   16290,   18810] index = [     132690195,176917455] size =     44227260
	Batch   5 pq = [   18810,   21030] index = [     176917455,221140965] size =     44223510
	Batch   6 pq = [   21030,   23037] index = [     221140965,265363203] size =     44222238
	Batch   7 pq = [   23037,   24883] index = [     265363203,309594286] size =     44231083
	Batch   8 pq = [   24883,   26601] index = [     309594286,353819901] size =     44225615
	Batch   9 pq = [   26601,   28214] index = [     353819901,398029005] size =     44209104
	Batch  10 pq = [   28214,   29740] index = [     398029005,442248670] size =     44219665
	Batch  11 pq = [   29740,   31191] index = [     442248670,486454836] size =     44206166
	Batch  12 pq = [   31191,   32578] index = [     486454836,530679331] size =     44224495
	Batch  13 pq = [   32578,   33908] index = [     530679331,574893186] size =     44213855
	Batch  14 pq = [   33908,   35188] index = [     574893186,619115266] size =     44222080
	Batch  15 pq = [   35188,   36423] index = [     619115266,663335676] size =     44220410
	Batch  16 pq = [   36423,   37617] index = [     663335676,707538153] size =     44202477
	Batch  17 pq = [   37617,   38775] index = [     707538153,751769700] size =     44231547
	Batch  18 pq = [   38775,   39899] index = [     751769700,795985050] size =     44215350
	Batch  19 pq = [   39899,   40992] index = [     795985050,840192528] size =     44207478
	Batch  20 pq = [   40992,   42057] index = [     840192528,884416653] size =     44224125
	Batch  21 pq = [   42057,   42195] index = [     884416653,890230110] size =      5813457
  Task number: 81
  Buffer size: 11059200
  Buffer per thread: 2
  We computed 56371394 shell quartets total.
  Whereas there are 45998436 unique shell quartets.
    22.55 percent of shell quartets recomputed by reordering.

  ==> DiskJK: Disk-Based J/K Matrices <==

    J tasked:                  Yes
    K tasked:                  Yes
    wK tasked:                  No
    Memory [MiB]:              375
    Schwarz Cutoff:          1E-12

    OpenMP threads:              1

  Minimum eigenvalue in the overlap matrix is 2.4736458507E-04.
  Using Symmetric Orthogonalization.

  SCF Guess: Superposition of Atomic Densities via on-the-fly atomic UHF.

  ==> Iterations <==

                        Total Energy        Delta E     RMS |[F,P]|

   @RHF iter SAD:  -646.55679590421744   -6.46557e+02   0.00000e+00
   @RHF iter   1:  -647.19450519642101   -6.37709e-01   2.67518e-03 DIIS
   @RHF iter   2:  -647.48740172783869   -2.92897e-01   1.40593e-03 DIIS
   @RHF iter   3:  -647.55735161054531   -6.99499e-02   3.42621e-04 DIIS
   @RHF iter   4:  -647.56316649436053   -5.81488e-03   1.35554e-04 DIIS
   @RHF iter   5:  -647.56407309225301   -9.06598e-04   2.14123e-05 DIIS
   @RHF iter   6:  -647.56412426794623   -5.11757e-05   1.04172e-05 DIIS
   @RHF iter   7:  -647.56413436049513   -1.00925e-05   4.33747e-06 DIIS
   @RHF iter   8:  -647.56413680208539   -2.44159e-06   1.63325e-06 DIIS
   @RHF iter   9:  -647.56413721012098   -4.08036e-07   6.78557e-07 DIIS
   @RHF iter  10:  -647.56413728204188   -7.19209e-08   2.87725e-07 DIIS
   @RHF iter  11:  -647.56413729985616   -1.78143e-08   1.27569e-07 DIIS
   @RHF iter  12:  -647.56413730343752   -3.58136e-09   6.23929e-08 DIIS
   @RHF iter  13:  -647.56413730416216   -7.24640e-10   2.32060e-08 DIIS
   @RHF iter  14:  -647.56413730428540   -1.23237e-10   9.60327e-09 DIIS
   @RHF iter  15:  -647.56413730428562   -2.27374e-13   2.92830e-09 DIIS
   @RHF iter  16:  -647.56413730428994   -4.32010e-12   1.40656e-09 DIIS
   @RHF iter  17:  -647.56413730429585   -5.91172e-12   5.91918e-10 DIIS
   @RHF iter  18:  -647.56413730429631   -4.54747e-13   2.27186e-10 DIIS
   @RHF iter  19:  -647.56413730429767   -1.36424e-12   1.09627e-10 DIIS
   @RHF iter  20:  -647.56413730429540    2.27374e-12   5.21632e-11 DIIS
  Energy and wave function converged.

  ==> Post-Iterations <==

    Orbital Energies [Eh]
    ---------------------

    Doubly Occupied:

       1A    -20.492448     2A    -15.608473     3A    -15.580630
       4A    -11.332858     5A    -11.273070     6A    -11.271742
       7A    -11.239835     8A    -11.238433     9A    -11.236363
      10A    -11.235139    11A    -11.231459    12A    -11.230205
      13A    -11.228543    14A    -11.221777    15A    -11.204941
      16A     -1.351120    17A     -1.298362    18A     -1.209086
      19A     -1.133497    20A     -1.077780    21A     -1.031309
      22A     -1.003123    23A     -0.992030    24A     -0.940076
      25A     -0.873150    26A     -0.845527    27A     -0.809809
      28A     -0.772326    29A     -0.760242    30A     -0.725299
      31A     -0.713288    32A     -0.667510    33A     -0.654278
      34A     -0.649738    35A     -0.626660    36A     -0.607522
      37A     -0.596262    38A     -0.594342    39A     -0.575891
      40A     -0.570700    41A     -0.560406    42A     -0.543410
      43A     -0.534287    44A     -0.533793    45A     -0.503939
      46A     -0.502391    47A     -0.489172    48A     -0.478141
      49A     -0.477006    50A     -0.462256    51A     -0.397906
      52A     -0.393178    53A     -0.381065    54A     -0.301850
      55A     -0.282994

    Virtual:

      56A      0.116765    57A      0.160174    58A      0.161497
      59A      0.176587    60A      0.188641    61A      0.198041
      62A      0.204407    63A      0.218889    64A      0.223687
      65A      0.225006    66A      0.229956    67A      0.239596
      68A      0.257631    69A      0.263637    70A      0.274074
      71A      0.281610    72A      0.298784    73A      0.305632
      74A      0.312470    75A      0.332262    76A      0.363827
      77A      0.374720    78A      0.391859    79A      0.399859
      80A      0.416284    81A      0.429576    82A      0.436962
      83A      0.461487    84A      0.472569    85A      0.488466
      86A      0.493765    87A      0.508744    88A      0.558342
      89A      0.582452    90A      0.594293    91A      0.608348
      92A      0.622961    93A      0.633163    94A      0.642704
      95A      0.651556    96A      0.669490    97A      0.676142
      98A      0.693072    99A      0.701064   100A      0.709424
     101A      0.718314   102A      0.722761   103A      0.731255
     104A      0.747034   105A      0.748217   106A      0.753064
     107A      0.773973   108A      0.777746   109A      0.790463
     110A      0.795852   111A      0.808363   112A      0.815847
     113A      0.839905   114A      0.852193   115A      0.856683
     116A      0.862644   117A      0.864632   118A      0.872382
     119A      0.882904   120A      0.886556   121A      0.890946
     122A      0.911894   123A      0.912238   124A      0.917822
     125A      0.928449   126A      0.936673   127A      0.941648
     128A      0.945974   129A      0.946638   130A      0.952158
     131A      0.965357   132A      0.975690   133A      0.990472
     134A      1.001657   135A      1.006556   136A      1.019744
     137A      1.044405   138A      1.063242   139A      1.081524
     140A      1.083228   141A      1.101209   142A      1.114451
     143A      1.125796   144A      1.133193   145A      1.147704
     146A      1.152945   147A      1.163505   148A      1.172645
     149A      1.201890   150A      1.219117   151A      1.220690
     152A      1.223188   153A      1.236645   154A      1.261015
     155A      1.271690   156A      1.280436   157A      1.286155
     158A      1.308212   159A      1.320998   160A      1.332670
     161A      1.343099   162A      1.355265   163A      1.362417
     164A      1.382480   165A      1.403097   166A      1.417910
     167A      1.434433   168A      1.442695   169A      1.451937
     170A      1.492875   171A      1.518677   172A      1.527439
     173A      1.539900   174A      1.560160   175A      1.589297
     176A      1.617349   177A      1.635972   178A      1.641542
     179A      1.666702   180A      1.674794   181A      1.689569
     182A      1.691908   183A      1.706464   184A      1.745775
     185A      1.749039   186A      1.755652   187A      1.778485
     188A      1.785505   189A      1.794758   190A      1.808507
     191A      1.811566   192A      1.835149   193A      1.861093
     194A      1.867790   195A      1.878824   196A      1.881330
     197A      1.891963   198A      1.895659   199A      1.906536
     200A      1.909787   201A      1.921110   202A      1.930378
     203A      1.933209   204A      1.952689   205A      1.962570
     206A      1.965646   207A      1.971982   208A      1.985191
     209A      1.990213   210A      1.994812   211A      2.005485
     212A      2.017157   213A      2.029360   214A      2.036405
     215A      2.050515   216A      2.052750   217A      2.066675
     218A      2.075220   219A      2.080639   220A      2.092086
     221A      2.109488   222A      2.124809   223A      2.129638
     224A      2.139628   225A      2.159135   226A      2.161292
     227A      2.177362   228A      2.188113   229A      2.201558
     230A      2.220470   231A      2.256822   232A      2.269551
     233A      2.281015   234A      2.294985   235A      2.304940
     236A      2.314820   237A      2.332231   238A      2.348727
     239A      2.357188   240A      2.377949   241A      2.389184
     242A      2.411969   243A      2.444907   244A      2.453085
     245A      2.463718   246A      2.497386   247A      2.544299
     248A      2.560373   249A      2.572708   250A      2.581761
     251A      2.588951   252A      2.606135   253A      2.631561
     254A      2.632854   255A      2.643247   256A      2.665020
     257A      2.678175   258A      2.705104   259A      2.748379
     260A      2.761233   261A      2.771699   262A      2.778946
     263A      2.795089   264A      2.806531   265A      2.817818
     266A      2.838752   267A      2.856242   268A      2.866577
     269A      2.903424   270A      2.919207   271A      2.930058
     272A      2.969555   273A      2.987894   274A      3.009329
     275A      3.045374   276A      3.060636   277A      3.069148
     278A      3.113941   279A      3.133948   280A      3.169260
     281A      3.194076   282A      3.283517   283A      3.322023
     284A      3.358671   285A      3.515555   286A      3.554003
     287A      3.731608   288A      3.860683   289A      3.907493
     290A      3.933560

    Final Occupation by Irrep:
              A
    DOCC [    55 ]

  @RHF Final Energy:  -647.56413730429540

   => Energetics <=

    Nuclear Repulsion Energy =            992.0487782503302014
    One-Electron Energy =               -2850.1325584301157505
    Two-Electron Energy =                1210.5196428754902627
    Total Energy =                       -647.5641373042954001

Computation Completed

Properties will be evaluated at   0.000000,   0.000000,   0.000000 [a0]

Properties computed using the SCF density matrix

  Nuclear Dipole Moment: [e a0]
     X:     2.1872      Y:    -1.3574      Z:    -6.7884

  Electronic Dipole Moment: [e a0]
     X:    -2.1598      Y:     2.8897      Z:     6.2212

  Dipole Moment: [e a0]
     X:     0.0274      Y:     1.5323      Z:    -0.5671     Total:     1.6341

  Dipole Moment: [D]
     X:     0.0698      Y:     3.8947      Z:    -1.4415     Total:     4.1535

*** tstop() called on ds3 at Mon Apr 27 18:10:56 2020
Module time:
	user time   =     499.25 seconds =       8.32 minutes
	system time =     151.99 seconds =       2.53 minutes
	total time  =        978 seconds =      16.30 minutes
Total time:
	user time   =     499.25 seconds =       8.32 minutes
	system time =     151.99 seconds =       2.53 minutes
	total time  =        978 seconds =      16.30 minutes
                                     G D M A

                                 by Anthony Stone

                           version 2.2.06, 22 June 2011

               Distributed Multipoles from Gaussian wavefunctions

Starting at 18:10:57 on 27 Apr 2020

Using SCF density matrix from file ./SSI/SSI-081ASN-100TRP-1-dimer.test.18418.fchk

                         Distributed Multipole Analysis

Standard DMA

Positions and radii in angstrom
Multipole moments in atomic units, ea_0^k for rank k

C          x = -0.772782  y = -1.888552  z = -1.257544 angstrom
           Maximum rank =  0   Radius =  0.650 angstrom
                   Q00  =  -0.196234

C          x = -0.303782  y = -3.192552  z = -0.619544 angstrom
           Maximum rank =  0   Radius =  0.650 angstrom
                   Q00  =  -0.197620

C          x = -2.046782  y = -1.389552  z = -0.608544 angstrom
           Maximum rank =  0   Radius =  0.650 angstrom
                   Q00  =   0.879792

O          x = -2.638782  y = -2.101552  z =  0.218456 angstrom
           Maximum rank =  0   Radius =  0.650 angstrom
                   Q00  =  -0.840048

N          x = -2.501782  y = -0.214552  z = -0.994544 angstrom
           Maximum rank =  0   Radius =  0.650 angstrom
                   Q00  =  -0.539239

H          x = -0.003782  y = -1.134552  z = -1.120544 angstrom
           Maximum rank =  0   Radius =  0.325 angstrom
                   Q00  =   0.104494

H          x = -0.930782  y = -2.018552  z = -2.326544 angstrom
           Maximum rank =  0   Radius =  0.325 angstrom
                   Q00  =   0.087560

H          x = -0.249782  y = -3.023552  z =  0.458456 angstrom
           Maximum rank =  0   Radius =  0.325 angstrom
                   Q00  =   0.104447

H          x = -3.346782  y =  0.179448  z = -0.613544 angstrom
           Maximum rank =  0   Radius =  0.325 angstrom
                   Q00  =   0.216617

H          x = -1.952782  y =  0.292448  z = -1.680544 angstrom
           Maximum rank =  0   Radius =  0.325 angstrom
                   Q00  =   0.205537

H          x =  0.687168  y = -3.482216  z = -0.999156 angstrom
           Maximum rank =  0   Radius =  0.325 angstrom
                   Q00  =   0.073026

H          x = -1.026562  y = -3.999644  z = -0.809787 angstrom
           Maximum rank =  0   Radius =  0.325 angstrom
                   Q00  =   0.095594

C          x =  0.786218  y =  3.257448  z = -1.576544 angstrom
           Maximum rank =  0   Radius =  0.650 angstrom
                   Q00  =  -0.217026

C          x =  0.439218  y =  0.602448  z =  1.119456 angstrom
           Maximum rank =  0   Radius =  0.650 angstrom
                   Q00  =   0.225839

C          x =  1.147218  y =  1.169448  z =  0.019456 angstrom
           Maximum rank =  0   Radius =  0.650 angstrom
                   Q00  =  -0.057013

C          x =  0.436218  y =  2.350448  z = -0.401544 angstrom
           Maximum rank =  0   Radius =  0.650 angstrom
                   Q00  =  -0.131443

C          x = -0.628782  y =  2.460448  z =  0.446456 angstrom
           Maximum rank =  0   Radius =  0.650 angstrom
                   Q00  =   0.073020

C          x =  0.877218  y = -0.551552  z =  1.763456 angstrom
           Maximum rank =  0   Radius =  0.650 angstrom
                   Q00  =  -0.112317

C          x =  2.029218  y = -1.161552  z =  1.286456 angstrom
           Maximum rank =  0   Radius =  0.650 angstrom
                   Q00  =   0.000660

C          x =  2.280218  y =  0.496448  z = -0.471544 angstrom
           Maximum rank =  0   Radius =  0.650 angstrom
                   Q00  =  -0.102146

C          x =  2.727218  y = -0.645552  z =  0.179456 angstrom
           Maximum rank =  0   Radius =  0.650 angstrom
                   Q00  =  -0.106765

N          x = -0.625782  y =  1.426448  z =  1.369456 angstrom
           Maximum rank =  0   Radius =  0.650 angstrom
                   Q00  =  -0.491393

H          x = -1.317782  y =  1.309448  z =  2.102456 angstrom
           Maximum rank =  0   Radius =  0.325 angstrom
                   Q00  =   0.226804

H          x =  0.340218  y = -0.952552  z =  2.612456 angstrom
           Maximum rank =  0   Radius =  0.325 angstrom
                   Q00  =   0.084032

H          x = -1.378782  y =  3.226448  z =  0.415456 angstrom
           Maximum rank =  0   Radius =  0.325 angstrom
                   Q00  =   0.095565

H          x =  2.396218  y = -2.055552  z =  1.776456 angstrom
           Maximum rank =  0   Radius =  0.325 angstrom
                   Q00  =   0.070350

H          x =  2.820218  y =  0.896448  z = -1.318544 angstrom
           Maximum rank =  0   Radius =  0.325 angstrom
                   Q00  =   0.068971

H          x =  1.847218  y =  3.148448  z = -1.793544 angstrom
           Maximum rank =  0   Radius =  0.325 angstrom
                   Q00  =   0.110779

H          x =  0.607218  y =  4.293448  z = -1.286544 angstrom
           Maximum rank =  0   Radius =  0.325 angstrom
                   Q00  =   0.109476

H          x =  3.619218  y = -1.152552  z = -0.159544 angstrom
           Maximum rank =  0   Radius =  0.325 angstrom
                   Q00  =   0.063274

H          x =  0.226538  y =  3.039596  z = -2.498118 angstrom
           Maximum rank =  0   Radius =  0.325 angstrom
                   Q00  =   0.095407

Total multipoles referred to origin at
           x =   0.000000,  y =    0.000000,  z =    0.000000 angstrom
                   Q00  =  -0.000000

Finished at 18:10:57 on 27 Apr 2020

  DMA results are available in the Python driver through the
	  variable('DMA DISTRIBUTED MULTIPOLES')
  and
	  variable('DMA TOTAL MULTIPOLES')
  commands.

    Psi4 stopped on: Monday, 27 April 2020 06:10PM
    Psi4 wall time for execution: 0:16:18.25

*** Psi4 exiting successfully. Buy a developer a beer!
