                               Psi4 1.3.2 release

  ==> Input File <==

--------------------------------------------------------------------------
import numpy as np
set {scf_type pk
basis cc-pvdz
d_convergence 10
gdma_switch   0
gdma_limit    0
gdma_origin   [ 0.0,  0.0,  0.0 ]
}
molecule test {
    units Angstrom
    0 1
    --
    0 1
    C               -0.802178520719782     2.228220597313806     1.886594708226782
    C               -1.068178520719782     3.274220597313806     2.967594708226783
    O               -0.641178520719782     2.874220597313806     0.637594708226782
    H                0.109821479280218     1.676220597313806     2.121594708226782
    H               -1.642178520719782     1.532220597313806     1.837594708227782
    H               -0.242178520719782     3.984220597313805     2.949594708227782
    H                0.308821479280218     3.148220597313806     0.620594708227782
    H               -1.102289520719782     2.795910597313806     3.957574708226783
    H               -1.987527520719782     3.833950597313805     2.740654708226782
    C                2.794821479280218    -1.310779402686194    -0.344405291772218
    C               -0.823178520719782    -0.263779402686194    -0.939405291772218
    C               -1.407178520719782    -1.467779402686194    -1.331405291772218
    C                0.540821479280218    -0.215779402686194    -0.627405291773218
    C                1.324821479280218    -1.369779402686194    -0.676405291772218
    C               -0.629178520719782    -2.624779402686194    -1.389405291773218
    C                0.731821479280218    -2.575779402686194    -1.061405291772218
    H               -1.420178520719782     0.637220597313806    -0.892405291773218
    H               -2.454178520719782    -1.509779402686194    -1.592405291773218
    H                0.985821479280218     0.726220597313806    -0.338405291772218
    H               -1.074178520719782    -3.568779402686194    -1.668405291772218
    H                2.972821479280218    -1.908779402686194     0.546594708226782
    H                3.075821479280218    -0.280779402686194    -0.114405291772218
    H                1.312821479280218    -3.485779402686194    -1.093405291772218
    H                3.445745479280218    -1.687139402686194    -1.147305291773218

}
e, wfn = energy('scf', return_wfn=True)
gdma(wfn)
dmavals = variable('DMA DISTRIBUTED MULTIPOLES')
charges = np.array(dmavals)
print(charges)
np.save('SSI-055SER-152PHE-1-dimer.npy', np.array(charges))--------------------------------------------------------------------------

*** tstart() called on ds3
*** at Tue Apr 28 20:36:02 2020

   => Loading Basis Set <=

    Name: CC-PVDZ
    Role: ORBITAL
    Keyword: BASIS
    atoms 1-2, 10-16 entry C          line   138 file /theoryfs2/ds/metcalf/miniconda2/envs/tf2gpu/share/psi4/basis/cc-pvdz.gbs
    atoms 3          entry O          line   198 file /theoryfs2/ds/metcalf/miniconda2/envs/tf2gpu/share/psi4/basis/cc-pvdz.gbs
    atoms 4-9, 17-24 entry H          line    22 file /theoryfs2/ds/metcalf/miniconda2/envs/tf2gpu/share/psi4/basis/cc-pvdz.gbs

         ---------------------------------------------------------
                                   SCF
               by Justin Turney, Rob Parrish, Andy Simmonett
                          and Daniel G. A. Smith
                              RHF Reference
                        1 Threads,    500 MiB Core
         ---------------------------------------------------------

  ==> Geometry <==

    Molecular point group: c1
    Full point group: C1

    Geometry (in Angstrom), charge = 0, multiplicity = 1:

       Center              X                  Y                   Z               Mass
    ------------   -----------------  -----------------  -----------------  -----------------
         C           -0.802178520720     2.228220597314     1.886594708227    12.000000000000
         C           -1.068178520720     3.274220597314     2.967594708227    12.000000000000
         O           -0.641178520720     2.874220597314     0.637594708227    15.994914619570
         H            0.109821479280     1.676220597314     2.121594708227     1.007825032230
         H           -1.642178520720     1.532220597314     1.837594708228     1.007825032230
         H           -0.242178520720     3.984220597314     2.949594708228     1.007825032230
         H            0.308821479280     3.148220597314     0.620594708228     1.007825032230
         H           -1.102289520720     2.795910597314     3.957574708227     1.007825032230
         H           -1.987527520720     3.833950597314     2.740654708227     1.007825032230
         C            2.794821479280    -1.310779402686    -0.344405291772    12.000000000000
         C           -0.823178520720    -0.263779402686    -0.939405291772    12.000000000000
         C           -1.407178520720    -1.467779402686    -1.331405291772    12.000000000000
         C            0.540821479280    -0.215779402686    -0.627405291773    12.000000000000
         C            1.324821479280    -1.369779402686    -0.676405291772    12.000000000000
         C           -0.629178520720    -2.624779402686    -1.389405291773    12.000000000000
         C            0.731821479280    -2.575779402686    -1.061405291772    12.000000000000
         H           -1.420178520720     0.637220597314    -0.892405291773     1.007825032230
         H           -2.454178520720    -1.509779402686    -1.592405291773     1.007825032230
         H            0.985821479280     0.726220597314    -0.338405291772     1.007825032230
         H           -1.074178520720    -3.568779402686    -1.668405291772     1.007825032230
         H            2.972821479280    -1.908779402686     0.546594708227     1.007825032230
         H            3.075821479280    -0.280779402686    -0.114405291772     1.007825032230
         H            1.312821479280    -3.485779402686    -1.093405291772     1.007825032230
         H            3.445745479280    -1.687139402686    -1.147305291773     1.007825032230

  Running in c1 symmetry.

  Rotational constants: A =      0.06794  B =      0.01748  C =      0.01505 [cm^-1]
  Rotational constants: A =   2036.64795  B =    524.18518  C =    451.06108 [MHz]
  Nuclear repulsion =  483.463351533854677

  Charge       = 0
  Multiplicity = 1
  Electrons    = 76
  Nalpha       = 38
  Nbeta        = 38

  ==> Algorithm <==

  SCF Algorithm Type is PK.
  DIIS enabled.
  MOM disabled.
  Fractional occupation disabled.
  Guess Type is SAD.
  Energy threshold   = 1.00e-06
  Density threshold  = 1.00e-10
  Integral threshold = 0.00e+00

  ==> Primary Basis <==

  Basis Set: CC-PVDZ
    Blend: CC-PVDZ
    Number of shells: 102
    Number of basis function: 210
    Number of Cartesian functions: 220
    Spherical Harmonics?: true
    Max angular momentum: 2

  ==> Pre-Iterations <==

   -------------------------------------------------------
    Irrep   Nso     Nmo     Nalpha   Nbeta   Ndocc  Nsocc
   -------------------------------------------------------
     A        210     210       0       0       0       0
   -------------------------------------------------------
    Total     210     210      38      38      38       0
   -------------------------------------------------------

  ==> Integral Setup <==

  Using integral reordering PK algorithm.
  Sizing the integral batches needed.
  Building batch lookup table.
   Calculation information:
      Number of atoms:                  24
      Number of AO shells:             102
      Number of primitives:            290
      Number of atomic orbitals:       220
      Number of basis functions:       210

      Integral cutoff                 1.00e-12
      Number of threads:                 1

	Batch   1 pq = [       0,    9405] index = [             0,44231715] size =     44231715
	Batch   2 pq = [    9405,   13301] index = [      44231715,88464951] size =     44233236
	Batch   3 pq = [   13301,   16290] index = [      88464951,132690195] size =     44225244
	Batch   4 pq = [   16290,   18810] index = [     132690195,176917455] size =     44227260
	Batch   5 pq = [   18810,   21030] index = [     176917455,221140965] size =     44223510
	Batch   6 pq = [   21030,   22155] index = [     221140965,245433090] size =     24292125
  Task number: 23
  Buffer size: 11059200
  Buffer per thread: 2
  We computed 10947805 shell quartets total.
  Whereas there are 13799631 unique shell quartets.

  ==> DiskJK: Disk-Based J/K Matrices <==

    J tasked:                  Yes
    K tasked:                  Yes
    wK tasked:                  No
    Memory [MiB]:              375
    Schwarz Cutoff:          1E-12

    OpenMP threads:              1

  Minimum eigenvalue in the overlap matrix is 3.1514926227E-04.
  Using Symmetric Orthogonalization.

  SCF Guess: Superposition of Atomic Densities via on-the-fly atomic UHF.

  ==> Iterations <==

                        Total Energy        Delta E     RMS |[F,P]|

   @RHF iter SAD:  -422.53527323536002   -4.22535e+02   0.00000e+00
   @RHF iter   1:  -423.60374690738109   -1.06847e+00   2.92654e-03 DIIS
   @RHF iter   2:  -423.81212309723645   -2.08376e-01   1.31072e-03 DIIS
   @RHF iter   3:  -423.84715585862381   -3.50328e-02   2.87284e-04 DIIS
   @RHF iter   4:  -423.84997652549509   -2.82067e-03   9.02707e-05 DIIS
   @RHF iter   5:  -423.85017025528998   -1.93730e-04   1.76815e-05 DIIS
   @RHF iter   6:  -423.85018099715478   -1.07419e-05   4.53571e-06 DIIS
   @RHF iter   7:  -423.85018185580606   -8.58651e-07   1.50911e-06 DIIS
   @RHF iter   8:  -423.85018195527709   -9.94710e-08   5.26450e-07 DIIS
   @RHF iter   9:  -423.85018197396920   -1.86921e-08   2.40244e-07 DIIS
   @RHF iter  10:  -423.85018197800491   -4.03571e-09   9.33070e-08 DIIS
   @RHF iter  11:  -423.85018197922329   -1.21838e-09   3.80243e-08 DIIS
   @RHF iter  12:  -423.85018197945504   -2.31751e-10   1.50772e-08 DIIS
   @RHF iter  13:  -423.85018197948176   -2.67164e-11   5.78759e-09 DIIS
   @RHF iter  14:  -423.85018197948648   -4.71800e-12   1.97846e-09 DIIS
   @RHF iter  15:  -423.85018197948523    1.25056e-12   7.05804e-10 DIIS
   @RHF iter  16:  -423.85018197948273    2.50111e-12   2.81738e-10 DIIS
   @RHF iter  17:  -423.85018197948330   -5.68434e-13   1.30220e-10 DIIS
   @RHF iter  18:  -423.85018197948591   -2.61480e-12   5.85865e-11 DIIS
  Energy and wave function converged.

  ==> Post-Iterations <==

    Orbital Energies [Eh]
    ---------------------

    Doubly Occupied:

       1A    -20.559154     2A    -11.276980     3A    -11.238980
       4A    -11.233374     5A    -11.230023     6A    -11.229207
       7A    -11.228099     8A    -11.227346     9A    -11.227075
      10A    -11.222491    11A     -1.357191    12A     -1.145551
      13A     -1.040006    14A     -1.007224    15A     -1.004280
      16A     -0.928553    17A     -0.838428    18A     -0.819792
      19A     -0.790457    20A     -0.692803    21A     -0.685649
      22A     -0.628327    23A     -0.624903    24A     -0.624824
      25A     -0.586898    26A     -0.574439    27A     -0.573470
      28A     -0.560209    29A     -0.551065    30A     -0.534142
      31A     -0.522855    32A     -0.482040    33A     -0.480970
      34A     -0.478555    35A     -0.476411    36A     -0.435867
      37A     -0.325834    38A     -0.318148

    Virtual:

      39A      0.137062    40A      0.144733    41A      0.161314
      42A      0.194043    43A      0.204342    44A      0.210485
      45A      0.225954    46A      0.246629    47A      0.248651
      48A      0.259684    49A      0.267632    50A      0.268897
      51A      0.271333    52A      0.285075    53A      0.308503
      54A      0.326463    55A      0.371307    56A      0.377367
      57A      0.390372    58A      0.392156    59A      0.457014
      60A      0.466071    61A      0.477941    62A      0.507011
      63A      0.565332    64A      0.592216    65A      0.599410
      66A      0.613560    67A      0.636101    68A      0.668994
      69A      0.682819    70A      0.699231    71A      0.703212
      72A      0.720941    73A      0.726925    74A      0.741241
      75A      0.746589    76A      0.751385    77A      0.754667
      78A      0.759050    79A      0.765042    80A      0.779671
      81A      0.790994    82A      0.822063    83A      0.828438
      84A      0.855275    85A      0.866171    86A      0.871288
      87A      0.884631    88A      0.885849    89A      0.892351
      90A      0.893134    91A      0.900171    92A      0.907791
      93A      0.914832    94A      0.920888    95A      0.943106
      96A      0.947248    97A      0.948729    98A      0.977304
      99A      0.998969   100A      1.019711   101A      1.062716
     102A      1.109411   103A      1.125245   104A      1.133336
     105A      1.149304   106A      1.155690   107A      1.165899
     108A      1.181230   109A      1.203128   110A      1.217930
     111A      1.240833   112A      1.253255   113A      1.255288
     114A      1.280855   115A      1.293073   116A      1.307575
     117A      1.320929   118A      1.330179   119A      1.363642
     120A      1.415263   121A      1.423533   122A      1.468612
     123A      1.506430   124A      1.531543   125A      1.552071
     126A      1.558023   127A      1.593778   128A      1.620701
     129A      1.662517   130A      1.679611   131A      1.680637
     132A      1.691391   133A      1.734727   134A      1.740181
     135A      1.748499   136A      1.762759   137A      1.792837
     138A      1.816912   139A      1.835568   140A      1.858487
     141A      1.869922   142A      1.886871   143A      1.892675
     144A      1.904239   145A      1.904464   146A      1.920878
     147A      1.926437   148A      1.939936   149A      1.950020
     150A      1.956542   151A      1.961836   152A      1.969005
     153A      1.978824   154A      1.980526   155A      2.005682
     156A      2.015236   157A      2.033878   158A      2.052958
     159A      2.060979   160A      2.077104   161A      2.090212
     162A      2.121751   163A      2.125951   164A      2.156660
     165A      2.171503   166A      2.178851   167A      2.183587
     168A      2.205736   169A      2.250185   170A      2.257262
     171A      2.264750   172A      2.287667   173A      2.289202
     174A      2.313246   175A      2.330786   176A      2.342055
     177A      2.375474   178A      2.421098   179A      2.440178
     180A      2.481999   181A      2.509251   182A      2.516973
     183A      2.536360   184A      2.538293   185A      2.551548
     186A      2.634604   187A      2.733186   188A      2.748163
     189A      2.755300   190A      2.765801   191A      2.769786
     192A      2.788397   193A      2.795549   194A      2.825139
     195A      2.847414   196A      2.859942   197A      2.876465
     198A      2.913901   199A      2.976538   200A      3.008468
     201A      3.030510   202A      3.161839   203A      3.200479
     204A      3.294383   205A      3.320493   206A      3.382619
     207A      3.485349   208A      3.604910   209A      3.955151
     210A      4.065471

    Final Occupation by Irrep:
              A
    DOCC [    38 ]

  @RHF Final Energy:  -423.85018197948591

   => Energetics <=

    Nuclear Repulsion Energy =            483.4633515338546772
    One-Electron Energy =               -1533.1038292724274470
    Two-Electron Energy =                 625.7902957590869164
    Total Energy =                       -423.8501819794859102

Computation Completed

Properties will be evaluated at   0.000000,   0.000000,   0.000000 [a0]

Properties computed using the SCF density matrix

  Nuclear Dipole Moment: [e a0]
     X:     2.1428      Y:     5.5385      Z:     7.4348

  Electronic Dipole Moment: [e a0]
     X:    -1.6004      Y:    -5.5572      Z:    -6.8889

  Dipole Moment: [e a0]
     X:     0.5423      Y:    -0.0187      Z:     0.5459     Total:     0.7697

  Dipole Moment: [D]
     X:     1.3784      Y:    -0.0476      Z:     1.3877     Total:     1.9565

*** tstop() called on ds3 at Tue Apr 28 20:38:01 2020
Module time:
	user time   =      83.12 seconds =       1.39 minutes
	system time =      40.82 seconds =       0.68 minutes
	total time  =        119 seconds =       1.98 minutes
Total time:
	user time   =      83.12 seconds =       1.39 minutes
	system time =      40.82 seconds =       0.68 minutes
	total time  =        119 seconds =       1.98 minutes
                                     G D M A

                                 by Anthony Stone

                           version 2.2.06, 22 June 2011

               Distributed Multipoles from Gaussian wavefunctions

Starting at 20:38:1 on 28 Apr 2020

Using SCF density matrix from file ./SSI/SSI-055SER-152PHE-1-dimer.test.8679.fchk

                         Distributed Multipole Analysis

Standard DMA

Positions and radii in angstrom
Multipole moments in atomic units, ea_0^k for rank k

C          x = -0.802179  y =  2.228221  z =  1.886595 angstrom
           Maximum rank =  0   Radius =  0.650 angstrom
                   Q00  =   0.063916

C          x = -1.068179  y =  3.274221  z =  2.967595 angstrom
           Maximum rank =  0   Radius =  0.650 angstrom
                   Q00  =  -0.243415

O          x = -0.641179  y =  2.874221  z =  0.637595 angstrom
           Maximum rank =  0   Radius =  0.650 angstrom
                   Q00  =  -0.576881

H          x =  0.109821  y =  1.676221  z =  2.121595 angstrom
           Maximum rank =  0   Radius =  0.325 angstrom
                   Q00  =   0.034989

H          x = -1.642179  y =  1.532221  z =  1.837595 angstrom
           Maximum rank =  0   Radius =  0.325 angstrom
                   Q00  =   0.084585

H          x = -0.242179  y =  3.984221  z =  2.949595 angstrom
           Maximum rank =  0   Radius =  0.325 angstrom
                   Q00  =   0.074279

H          x =  0.308821  y =  3.148221  z =  0.620595 angstrom
           Maximum rank =  0   Radius =  0.325 angstrom
                   Q00  =   0.400433

H          x = -1.102290  y =  2.795911  z =  3.957575 angstrom
           Maximum rank =  0   Radius =  0.325 angstrom
                   Q00  =   0.080191

H          x = -1.987528  y =  3.833951  z =  2.740655 angstrom
           Maximum rank =  0   Radius =  0.325 angstrom
                   Q00  =   0.095126

C          x =  2.794821  y = -1.310779  z = -0.344405 angstrom
           Maximum rank =  0   Radius =  0.650 angstrom
                   Q00  =  -0.203252

C          x = -0.823179  y = -0.263779  z = -0.939405 angstrom
           Maximum rank =  0   Radius =  0.650 angstrom
                   Q00  =  -0.074578

C          x = -1.407179  y = -1.467779  z = -1.331405 angstrom
           Maximum rank =  0   Radius =  0.650 angstrom
                   Q00  =  -0.089855

C          x =  0.540821  y = -0.215779  z = -0.627405 angstrom
           Maximum rank =  0   Radius =  0.650 angstrom
                   Q00  =   0.019306

C          x =  1.324821  y = -1.369779  z = -0.676405 angstrom
           Maximum rank =  0   Radius =  0.650 angstrom
                   Q00  =  -0.102732

C          x = -0.629179  y = -2.624779  z = -1.389405 angstrom
           Maximum rank =  0   Radius =  0.650 angstrom
                   Q00  =  -0.050482

C          x =  0.731821  y = -2.575779  z = -1.061405 angstrom
           Maximum rank =  0   Radius =  0.650 angstrom
                   Q00  =  -0.094848

H          x = -1.420179  y =  0.637221  z = -0.892405 angstrom
           Maximum rank =  0   Radius =  0.325 angstrom
                   Q00  =   0.073388

H          x = -2.454179  y = -1.509779  z = -1.592405 angstrom
           Maximum rank =  0   Radius =  0.325 angstrom
                   Q00  =   0.060579

H          x =  0.985821  y =  0.726221  z = -0.338405 angstrom
           Maximum rank =  0   Radius =  0.325 angstrom
                   Q00  =   0.033717

H          x = -1.074179  y = -3.568779  z = -1.668405 angstrom
           Maximum rank =  0   Radius =  0.325 angstrom
                   Q00  =   0.064275

H          x =  2.972821  y = -1.908779  z =  0.546595 angstrom
           Maximum rank =  0   Radius =  0.325 angstrom
                   Q00  =   0.101264

H          x =  3.075821  y = -0.280779  z = -0.114405 angstrom
           Maximum rank =  0   Radius =  0.325 angstrom
                   Q00  =   0.092395

H          x =  1.312821  y = -3.485779  z = -1.093405 angstrom
           Maximum rank =  0   Radius =  0.325 angstrom
                   Q00  =   0.054532

H          x =  3.445745  y = -1.687139  z = -1.147305 angstrom
           Maximum rank =  0   Radius =  0.325 angstrom
                   Q00  =   0.103069

Total multipoles referred to origin at
           x =   0.000000,  y =    0.000000,  z =    0.000000 angstrom
                   Q00  =  -0.000000

Finished at 20:38:2 on 28 Apr 2020

  DMA results are available in the Python driver through the
	  variable('DMA DISTRIBUTED MULTIPOLES')
  and
	  variable('DMA TOTAL MULTIPOLES')
  commands.

    Psi4 stopped on: Tuesday, 28 April 2020 08:38PM
    Psi4 wall time for execution: 0:01:59.63

*** Psi4 exiting successfully. Buy a developer a beer!
