                               Psi4 1.3.2 release

  ==> Input File <==

--------------------------------------------------------------------------
import numpy as np
set {scf_type pk
basis cc-pvdz
d_convergence 10
gdma_switch   0
gdma_limit    0
gdma_origin   [ 0.0,  0.0,  0.0 ]
}
molecule test {
    units Angstrom
    0 1
    --
    0 1
    C                0.260934493528798    -3.729714052326736    -1.602273905807313
    C                0.043934493528798    -2.377714052326735    -0.936273905807312
    O                1.039934493528798    -1.751714052326736    -0.511273905807312
    O               -1.119065506471202    -1.927714052326736    -0.846273905807312
    H                0.955934493528798    -3.584714052326736    -2.430273905807312
    H               -0.678065506471202    -4.101714052326735    -2.016273905807313
    H                0.683654493528798    -4.471097052326735    -0.908259905807312
    C               -0.394065506471202     2.872285947673265     2.498726094192688
    C                0.034934493528798     1.732285947673264     0.351726094192688
    N                0.573934493528798     0.699285947673264     0.975726094192688
    N               -0.428065506471202     2.769285947673264     1.037726094192688
    N               -0.048065506471202     1.719285947673264    -0.963273905807312
    H                0.734934493528798     0.727285947673264     1.965726094192688
    H                0.845934493528798    -0.130714052326736     0.440726094192688
    H               -0.808065506471202     3.550285947673264     0.520726094192688
    H               -0.398065506471202     2.524285947673264    -1.462273905807312
    H                0.374934493528798     0.961285947673264    -1.479273905807312
    H               -0.604065506471202     3.903285947673265     2.791726094192688
    H                0.595934493528798     2.613285947673264     2.879726094192688
    H               -1.160025506471202     2.216055047673265     2.937657094192688

}
e, wfn = energy('scf', return_wfn=True)
gdma(wfn)
dmavals = variable('DMA DISTRIBUTED MULTIPOLES')
charges = np.array(dmavals)
print(charges)
np.save('SSI-005ASP-128ARG-1-dimer.npy', np.array(charges))--------------------------------------------------------------------------

*** tstart() called on ds3
*** at Mon Apr 27 17:46:13 2020

   => Loading Basis Set <=

    Name: CC-PVDZ
    Role: ORBITAL
    Keyword: BASIS
    atoms 1-2, 8-9   entry C          line   138 file /theoryfs2/ds/metcalf/miniconda2/envs/tf2gpu/share/psi4/basis/cc-pvdz.gbs
    atoms 3-4        entry O          line   198 file /theoryfs2/ds/metcalf/miniconda2/envs/tf2gpu/share/psi4/basis/cc-pvdz.gbs
    atoms 5-7, 13-20 entry H          line    22 file /theoryfs2/ds/metcalf/miniconda2/envs/tf2gpu/share/psi4/basis/cc-pvdz.gbs
    atoms 10-12      entry N          line   168 file /theoryfs2/ds/metcalf/miniconda2/envs/tf2gpu/share/psi4/basis/cc-pvdz.gbs

         ---------------------------------------------------------
                                   SCF
               by Justin Turney, Rob Parrish, Andy Simmonett
                          and Daniel G. A. Smith
                              RHF Reference
                        1 Threads,    500 MiB Core
         ---------------------------------------------------------

  ==> Geometry <==

    Molecular point group: c1
    Full point group: C1

    Geometry (in Angstrom), charge = 0, multiplicity = 1:

       Center              X                  Y                   Z               Mass
    ------------   -----------------  -----------------  -----------------  -----------------
         C            0.260934493529    -3.729714052327    -1.602273905807    12.000000000000
         C            0.043934493529    -2.377714052327    -0.936273905807    12.000000000000
         O            1.039934493529    -1.751714052327    -0.511273905807    15.994914619570
         O           -1.119065506471    -1.927714052327    -0.846273905807    15.994914619570
         H            0.955934493529    -3.584714052327    -2.430273905807     1.007825032230
         H           -0.678065506471    -4.101714052327    -2.016273905807     1.007825032230
         H            0.683654493529    -4.471097052327    -0.908259905807     1.007825032230
         C           -0.394065506471     2.872285947673     2.498726094193    12.000000000000
         C            0.034934493529     1.732285947673     0.351726094193    12.000000000000
         N            0.573934493529     0.699285947673     0.975726094193    14.003074004430
         N           -0.428065506471     2.769285947673     1.037726094193    14.003074004430
         N           -0.048065506471     1.719285947673    -0.963273905807    14.003074004430
         H            0.734934493529     0.727285947673     1.965726094193     1.007825032230
         H            0.845934493529    -0.130714052327     0.440726094193     1.007825032230
         H           -0.808065506471     3.550285947673     0.520726094193     1.007825032230
         H           -0.398065506471     2.524285947673    -1.462273905807     1.007825032230
         H            0.374934493529     0.961285947673    -1.479273905807     1.007825032230
         H           -0.604065506471     3.903285947673     2.791726094193     1.007825032230
         H            0.595934493529     2.613285947673     2.879726094193     1.007825032230
         H           -1.160025506471     2.216055047673     2.937657094193     1.007825032230

  Running in c1 symmetry.

  Rotational constants: A =      0.13012  B =      0.01824  C =      0.01765 [cm^-1]
  Rotational constants: A =   3900.93323  B =    546.82938  C =    529.07065 [MHz]
  Nuclear repulsion =  450.572223880152819

  Charge       = 0
  Multiplicity = 1
  Electrons    = 72
  Nalpha       = 36
  Nbeta        = 36

  ==> Algorithm <==

  SCF Algorithm Type is PK.
  DIIS enabled.
  MOM disabled.
  Fractional occupation disabled.
  Guess Type is SAD.
  Energy threshold   = 1.00e-06
  Density threshold  = 1.00e-10
  Integral threshold = 0.00e+00

  ==> Primary Basis <==

  Basis Set: CC-PVDZ
    Blend: CC-PVDZ
    Number of shells: 87
    Number of basis function: 181
    Number of Cartesian functions: 190
    Spherical Harmonics?: true
    Max angular momentum: 2

  ==> Pre-Iterations <==

   -------------------------------------------------------
    Irrep   Nso     Nmo     Nalpha   Nbeta   Ndocc  Nsocc
   -------------------------------------------------------
     A        181     181       0       0       0       0
   -------------------------------------------------------
    Total     181     181      36      36      36       0
   -------------------------------------------------------

  ==> Integral Setup <==

  Using integral reordering PK algorithm.
  Sizing the integral batches needed.
  Building batch lookup table.
   Calculation information:
      Number of atoms:                  20
      Number of AO shells:              87
      Number of primitives:            253
      Number of atomic orbitals:       190
      Number of basis functions:       181

      Integral cutoff                 1.00e-12
      Number of threads:                 1

	Batch   1 pq = [       0,    9405] index = [             0,44231715] size =     44231715
	Batch   2 pq = [    9405,   13301] index = [      44231715,88464951] size =     44233236
	Batch   3 pq = [   13301,   16471] index = [      88464951,135655156] size =     47190205
  Task number: 13
  Buffer size: 11059200
  Buffer per thread: 2
  We computed 5342776 shell quartets total.
  Whereas there are 7328706 unique shell quartets.

  ==> DiskJK: Disk-Based J/K Matrices <==

    J tasked:                  Yes
    K tasked:                  Yes
    wK tasked:                  No
    Memory [MiB]:              375
    Schwarz Cutoff:          1E-12

    OpenMP threads:              1

  Minimum eigenvalue in the overlap matrix is 3.9166203855E-03.
  Using Symmetric Orthogonalization.

  SCF Guess: Superposition of Atomic Densities via on-the-fly atomic UHF.

  ==> Iterations <==

                        Total Energy        Delta E     RMS |[F,P]|

   @RHF iter SAD:  -469.65516415910668   -4.69655e+02   0.00000e+00
   @RHF iter   1:  -470.69301370191334   -1.03785e+00   4.27183e-03 DIIS
   @RHF iter   2:  -470.92073929048132   -2.27726e-01   2.24275e-03 DIIS
   @RHF iter   3:  -470.98034923973961   -5.96099e-02   3.91090e-04 DIIS
   @RHF iter   4:  -470.98359158955816   -3.24235e-03   1.40074e-04 DIIS
   @RHF iter   5:  -470.98398546949693   -3.93880e-04   2.73774e-05 DIIS
   @RHF iter   6:  -470.98400649884184   -2.10293e-05   1.38612e-05 DIIS
   @RHF iter   7:  -470.98401018200872   -3.68317e-06   3.43335e-06 DIIS
   @RHF iter   8:  -470.98401071196037   -5.29952e-07   1.57806e-06 DIIS
   @RHF iter   9:  -470.98401080045841   -8.84980e-08   5.63809e-07 DIIS
   @RHF iter  10:  -470.98401081764189   -1.71835e-08   1.97739e-07 DIIS
   @RHF iter  11:  -470.98401081957240   -1.93052e-09   5.32125e-08 DIIS
   @RHF iter  12:  -470.98401081967336   -1.00954e-10   1.94695e-08 DIIS
   @RHF iter  13:  -470.98401081968410   -1.07434e-11   4.99176e-09 DIIS
   @RHF iter  14:  -470.98401081968643   -2.33058e-12   1.30511e-09 DIIS
   @RHF iter  15:  -470.98401081968336    3.06954e-12   4.94239e-10 DIIS
   @RHF iter  16:  -470.98401081968393   -5.68434e-13   1.66136e-10 DIIS
   @RHF iter  17:  -470.98401081968422   -2.84217e-13   7.12310e-11 DIIS
  Energy and wave function converged.

  ==> Post-Iterations <==

    Orbital Energies [Eh]
    ---------------------

    Doubly Occupied:

       1A    -20.407529     2A    -20.390375     3A    -15.658260
       4A    -15.641490     5A    -15.616809     6A    -11.442796
       7A    -11.334189     8A    -11.248251     9A    -11.157771
      10A     -1.400429    11A     -1.290153    12A     -1.266891
      13A     -1.232717    14A     -1.173246    15A     -1.021947
      16A     -0.907318    17A     -0.893559    18A     -0.834580
      19A     -0.793960    20A     -0.711644    21A     -0.703435
      22A     -0.689997    23A     -0.670161    24A     -0.624416
      25A     -0.616169    26A     -0.613166    27A     -0.537760
      28A     -0.526293    29A     -0.524480    30A     -0.464285
      31A     -0.461589    32A     -0.452569    33A     -0.434625
      34A     -0.324709    35A     -0.305424    36A     -0.302063

    Virtual:

      37A      0.115162    38A      0.143417    39A      0.165560
      40A      0.169444    41A      0.218446    42A      0.222681
      43A      0.226057    44A      0.242463    45A      0.260693
      46A      0.291570    47A      0.301727    48A      0.323626
      49A      0.363385    50A      0.370199    51A      0.422794
      52A      0.461482    53A      0.471684    54A      0.484344
      55A      0.565492    56A      0.571566    57A      0.595580
      58A      0.608953    59A      0.636104    60A      0.662071
      61A      0.668687    62A      0.693236    63A      0.701067
      64A      0.705702    65A      0.720940    66A      0.756738
      67A      0.794729    68A      0.806292    69A      0.814865
      70A      0.822155    71A      0.848962    72A      0.855394
      73A      0.871355    74A      0.887966    75A      0.912980
      76A      0.927378    77A      0.932179    78A      0.948133
      79A      0.952341    80A      0.967529    81A      0.986406
      82A      1.011695    83A      1.015729    84A      1.045302
      85A      1.070920    86A      1.097656    87A      1.102368
      88A      1.113332    89A      1.191483    90A      1.217685
      91A      1.240345    92A      1.241530    93A      1.266649
      94A      1.283220    95A      1.309784    96A      1.340454
      97A      1.364728    98A      1.374112    99A      1.401301
     100A      1.444703   101A      1.450848   102A      1.475415
     103A      1.501558   104A      1.533790   105A      1.542630
     106A      1.598911   107A      1.601623   108A      1.619536
     109A      1.638401   110A      1.645287   111A      1.677865
     112A      1.704152   113A      1.730432   114A      1.739747
     115A      1.752954   116A      1.812264   117A      1.832854
     118A      1.839382   119A      1.874712   120A      1.891977
     121A      1.902588   122A      1.916405   123A      1.925859
     124A      1.945691   125A      1.964934   126A      1.971096
     127A      1.977664   128A      2.003871   129A      2.033610
     130A      2.076651   131A      2.102391   132A      2.140114
     133A      2.157391   134A      2.178636   135A      2.193723
     136A      2.208205   137A      2.244021   138A      2.261328
     139A      2.289410   140A      2.311687   141A      2.340926
     142A      2.375464   143A      2.405702   144A      2.428410
     145A      2.444301   146A      2.478929   147A      2.494319
     148A      2.536803   149A      2.564006   150A      2.591002
     151A      2.604256   152A      2.618811   153A      2.654630
     154A      2.687591   155A      2.701503   156A      2.730468
     157A      2.766156   158A      2.811939   159A      2.841546
     160A      2.850278   161A      2.885239   162A      2.895374
     163A      2.922984   164A      2.960261   165A      2.982793
     166A      3.022043   167A      3.100150   168A      3.148257
     169A      3.154982   170A      3.203305   171A      3.214529
     172A      3.253049   173A      3.328493   174A      3.501281
     175A      3.644371   176A      3.685132   177A      3.707167
     178A      3.804663   179A      3.933864   180A      3.949299
     181A      4.084762

    Final Occupation by Irrep:
              A
    DOCC [    36 ]

  @RHF Final Energy:  -470.98401081968422

   => Energetics <=

    Nuclear Repulsion Energy =            450.5722238801528192
    One-Electron Energy =               -1537.7623535581194574
    Two-Electron Energy =                 616.2061188582822524
    Total Energy =                       -470.9840108196842721

Computation Completed

Properties will be evaluated at   0.000000,   0.000000,   0.000000 [a0]

Properties computed using the SCF density matrix

  Nuclear Dipole Moment: [e a0]
     X:     0.5084      Y:     3.9117      Z:     3.0278

  Electronic Dipole Moment: [e a0]
     X:    -0.2966      Y:     1.5046      Z:    -1.4350

  Dipole Moment: [e a0]
     X:     0.2119      Y:     5.4163      Z:     1.5928     Total:     5.6496

  Dipole Moment: [D]
     X:     0.5385      Y:    13.7669      Z:     4.0484     Total:    14.3599

*** tstop() called on ds3 at Mon Apr 27 17:47:17 2020
Module time:
	user time   =      43.32 seconds =       0.72 minutes
	system time =      23.19 seconds =       0.39 minutes
	total time  =         64 seconds =       1.07 minutes
Total time:
	user time   =      43.32 seconds =       0.72 minutes
	system time =      23.19 seconds =       0.39 minutes
	total time  =         64 seconds =       1.07 minutes
                                     G D M A

                                 by Anthony Stone

                           version 2.2.06, 22 June 2011

               Distributed Multipoles from Gaussian wavefunctions

Starting at 17:47:17 on 27 Apr 2020

Using SCF density matrix from file ./SSI/SSI-005ASP-128ARG-1-dimer.test.19025.fchk

                         Distributed Multipole Analysis

Standard DMA

Positions and radii in angstrom
Multipole moments in atomic units, ea_0^k for rank k

C          x =  0.260934  y = -3.729714  z = -1.602274 angstrom
           Maximum rank =  0   Radius =  0.650 angstrom
                   Q00  =  -0.260626

C          x =  0.043934  y = -2.377714  z = -0.936274 angstrom
           Maximum rank =  0   Radius =  0.650 angstrom
                   Q00  =   0.906039

O          x =  1.039934  y = -1.751714  z = -0.511274 angstrom
           Maximum rank =  0   Radius =  0.650 angstrom
                   Q00  =  -0.969244

O          x = -1.119066  y = -1.927714  z = -0.846274 angstrom
           Maximum rank =  0   Radius =  0.650 angstrom
                   Q00  =  -0.902216

H          x =  0.955934  y = -3.584714  z = -2.430274 angstrom
           Maximum rank =  0   Radius =  0.325 angstrom
                   Q00  =   0.082444

H          x = -0.678066  y = -4.101714  z = -2.016274 angstrom
           Maximum rank =  0   Radius =  0.325 angstrom
                   Q00  =   0.076288

H          x =  0.683654  y = -4.471097  z = -0.908260 angstrom
           Maximum rank =  0   Radius =  0.325 angstrom
                   Q00  =   0.092975

C          x = -0.394066  y =  2.872286  z =  2.498726 angstrom
           Maximum rank =  0   Radius =  0.650 angstrom
                   Q00  =  -0.115839

C          x =  0.034934  y =  1.732286  z =  0.351726 angstrom
           Maximum rank =  0   Radius =  0.650 angstrom
                   Q00  =   1.063060

N          x =  0.573934  y =  0.699286  z =  0.975726 angstrom
           Maximum rank =  0   Radius =  0.650 angstrom
                   Q00  =  -0.578177

N          x = -0.428066  y =  2.769286  z =  1.037726 angstrom
           Maximum rank =  0   Radius =  0.650 angstrom
                   Q00  =  -0.497849

N          x = -0.048066  y =  1.719286  z = -0.963274 angstrom
           Maximum rank =  0   Radius =  0.650 angstrom
                   Q00  =  -0.567859

H          x =  0.734934  y =  0.727286  z =  1.965726 angstrom
           Maximum rank =  0   Radius =  0.325 angstrom
                   Q00  =   0.235677

H          x =  0.845934  y = -0.130714  z =  0.440726 angstrom
           Maximum rank =  0   Radius =  0.325 angstrom
                   Q00  =   0.344163

H          x = -0.808066  y =  3.550286  z =  0.520726 angstrom
           Maximum rank =  0   Radius =  0.325 angstrom
                   Q00  =   0.209652

H          x = -0.398066  y =  2.524286  z = -1.462274 angstrom
           Maximum rank =  0   Radius =  0.325 angstrom
                   Q00  =   0.232865

H          x =  0.374934  y =  0.961286  z = -1.479274 angstrom
           Maximum rank =  0   Radius =  0.325 angstrom
                   Q00  =   0.286150

H          x = -0.604066  y =  3.903286  z =  2.791726 angstrom
           Maximum rank =  0   Radius =  0.325 angstrom
                   Q00  =   0.141244

H          x =  0.595934  y =  2.613286  z =  2.879726 angstrom
           Maximum rank =  0   Radius =  0.325 angstrom
                   Q00  =   0.102985

H          x = -1.160026  y =  2.216055  z =  2.937657 angstrom
           Maximum rank =  0   Radius =  0.325 angstrom
                   Q00  =   0.118268

Total multipoles referred to origin at
           x =   0.000000,  y =    0.000000,  z =    0.000000 angstrom
                   Q00  =  -0.000000

Finished at 17:47:17 on 27 Apr 2020

  DMA results are available in the Python driver through the
	  variable('DMA DISTRIBUTED MULTIPOLES')
  and
	  variable('DMA TOTAL MULTIPOLES')
  commands.

    Psi4 stopped on: Monday, 27 April 2020 05:47PM
    Psi4 wall time for execution: 0:01:03.62

*** Psi4 exiting successfully. Buy a developer a beer!
