                               Psi4 1.3.2 release

  ==> Input File <==

--------------------------------------------------------------------------
import numpy as np
set {scf_type pk
basis cc-pvdz
d_convergence 10
gdma_switch   0
gdma_limit    0
gdma_origin   [ 0.0,  0.0,  0.0 ]
}
molecule test {
    units Angstrom
    0 1
    --
    0 1
    C               -1.363672968670664    -0.653549993398235     0.213701376064133
    C               -1.816672968670664    -1.893549993398235     0.985701376064133
    H               -1.294672968670664    -0.872549993398235    -0.852298623935867
    H               -2.095672968670664     0.142450006601765     0.358701376064133
    H               -0.404672968670664    -0.314549993398235     0.588701376064133
    H               -2.785672968670664    -2.188549993398235     0.579701376064133
    H               -1.122052968670664    -2.734259993398235     0.841761376064133
    H               -1.967762968670664    -1.723839993398235     2.061981376064133
    C                1.716327031329336     0.597450006601765    -0.900298623935867
    C                1.465327031329336     1.955450006601765    -0.295298623935867
    H                2.496327031329336     0.660450006601765    -1.659298623935867
    H                2.042327031329336    -0.086549993398235    -0.118298623935867
    H                0.818327031329336     0.190450006601765    -1.357298623935867
    H                0.746327031329336     1.894450006601765     0.522701376064133
    H                1.114947031329336     2.641820006601765    -1.080236623935867
    H                2.436677031329336     2.321620006601765     0.068571376064133

}
e, wfn = energy('scf', return_wfn=True)
gdma(wfn)
dmavals = variable('DMA DISTRIBUTED MULTIPOLES')
charges = np.array(dmavals)
print(charges)
np.save('SSI-228VAL-254THR-1-dimer.npy', np.array(charges))--------------------------------------------------------------------------

*** tstart() called on ds3
*** at Mon Apr 27 13:26:56 2020

   => Loading Basis Set <=

    Name: CC-PVDZ
    Role: ORBITAL
    Keyword: BASIS
    atoms 1-2, 9-10  entry C          line   138 file /theoryfs2/ds/metcalf/miniconda2/envs/tf2gpu/share/psi4/basis/cc-pvdz.gbs
    atoms 3-8, 11-16 entry H          line    22 file /theoryfs2/ds/metcalf/miniconda2/envs/tf2gpu/share/psi4/basis/cc-pvdz.gbs

         ---------------------------------------------------------
                                   SCF
               by Justin Turney, Rob Parrish, Andy Simmonett
                          and Daniel G. A. Smith
                              RHF Reference
                        1 Threads,    500 MiB Core
         ---------------------------------------------------------

  ==> Geometry <==

    Molecular point group: c1
    Full point group: C1

    Geometry (in Angstrom), charge = 0, multiplicity = 1:

       Center              X                  Y                   Z               Mass
    ------------   -----------------  -----------------  -----------------  -----------------
         C           -1.363672968671    -0.653549993398     0.213701376064    12.000000000000
         C           -1.816672968671    -1.893549993398     0.985701376064    12.000000000000
         H           -1.294672968671    -0.872549993398    -0.852298623936     1.007825032230
         H           -2.095672968671     0.142450006602     0.358701376064     1.007825032230
         H           -0.404672968671    -0.314549993398     0.588701376064     1.007825032230
         H           -2.785672968671    -2.188549993398     0.579701376064     1.007825032230
         H           -1.122052968671    -2.734259993398     0.841761376064     1.007825032230
         H           -1.967762968671    -1.723839993398     2.061981376064     1.007825032230
         C            1.716327031329     0.597450006602    -0.900298623936    12.000000000000
         C            1.465327031329     1.955450006602    -0.295298623936    12.000000000000
         H            2.496327031329     0.660450006602    -1.659298623936     1.007825032230
         H            2.042327031329    -0.086549993398    -0.118298623936     1.007825032230
         H            0.818327031329     0.190450006602    -1.357298623936     1.007825032230
         H            0.746327031329     1.894450006602     0.522701376064     1.007825032230
         H            1.114947031329     2.641820006602    -1.080236623936     1.007825032230
         H            2.436677031329     2.321620006602     0.068571376064     1.007825032230

  Running in c1 symmetry.

  Rotational constants: A =      0.49851  B =      0.05540  C =      0.05302 [cm^-1]
  Rotational constants: A =  14944.89082  B =   1660.88663  C =   1589.47259 [MHz]
  Nuclear repulsion =  125.275194493877876

  Charge       = 0
  Multiplicity = 1
  Electrons    = 36
  Nalpha       = 18
  Nbeta        = 18

  ==> Algorithm <==

  SCF Algorithm Type is PK.
  DIIS enabled.
  MOM disabled.
  Fractional occupation disabled.
  Guess Type is SAD.
  Energy threshold   = 1.00e-06
  Density threshold  = 1.00e-10
  Integral threshold = 0.00e+00

  ==> Primary Basis <==

  Basis Set: CC-PVDZ
    Blend: CC-PVDZ
    Number of shells: 60
    Number of basis function: 116
    Number of Cartesian functions: 120
    Spherical Harmonics?: true
    Max angular momentum: 2

  ==> Pre-Iterations <==

   -------------------------------------------------------
    Irrep   Nso     Nmo     Nalpha   Nbeta   Ndocc  Nsocc
   -------------------------------------------------------
     A        116     116       0       0       0       0
   -------------------------------------------------------
    Total     116     116      18      18      18       0
   -------------------------------------------------------

  ==> Integral Setup <==

  Using integral reordering PK algorithm.
  Sizing the integral batches needed.
  Building batch lookup table.
   Calculation information:
      Number of atoms:                  16
      Number of AO shells:              60
      Number of primitives:            148
      Number of atomic orbitals:       120
      Number of basis functions:       116

      Integral cutoff                 1.00e-12
      Number of threads:                 1

	Batch   1 pq = [       0,    6786] index = [             0,23028291] size =     23028291
  Task number: 3
  Buffer size: 11059200
  Buffer per thread: 2
  We computed 1508354 shell quartets total.
  Whereas there are 1675365 unique shell quartets.

  ==> DiskJK: Disk-Based J/K Matrices <==

    J tasked:                  Yes
    K tasked:                  Yes
    wK tasked:                  No
    Memory [MiB]:              375
    Schwarz Cutoff:          1E-12

    OpenMP threads:              1

  Minimum eigenvalue in the overlap matrix is 6.9246948346E-03.
  Using Symmetric Orthogonalization.

  SCF Guess: Superposition of Atomic Densities via on-the-fly atomic UHF.

  ==> Iterations <==

                        Total Energy        Delta E     RMS |[F,P]|

   @RHF iter SAD:  -157.41572027749910   -1.57416e+02   0.00000e+00
   @RHF iter   1:  -158.30256751556806   -8.86847e-01   4.23993e-03 DIIS
   @RHF iter   2:  -158.43792275818066   -1.35355e-01   1.80400e-03 DIIS
   @RHF iter   3:  -158.46154005634125   -2.36173e-02   3.52398e-04 DIIS
   @RHF iter   4:  -158.46340017995641   -1.86012e-03   3.88715e-05 DIIS
   @RHF iter   5:  -158.46342394565852   -2.37657e-05   6.54409e-06 DIIS
   @RHF iter   6:  -158.46342457324391   -6.27585e-07   1.22625e-06 DIIS
   @RHF iter   7:  -158.46342458829673   -1.50528e-08   3.44566e-07 DIIS
   @RHF iter   8:  -158.46342458948683   -1.19010e-09   5.51215e-08 DIIS
   @RHF iter   9:  -158.46342458953993   -5.30918e-11   1.39641e-08 DIIS
   @RHF iter  10:  -158.46342458954351   -3.58114e-12   3.79152e-09 DIIS
   @RHF iter  11:  -158.46342458954427   -7.67386e-13   1.02758e-09 DIIS
   @RHF iter  12:  -158.46342458954325    1.02318e-12   2.04895e-10 DIIS
   @RHF iter  13:  -158.46342458954385   -5.96856e-13   2.99805e-11 DIIS
  Energy and wave function converged.

  ==> Post-Iterations <==

    Orbital Energies [Eh]
    ---------------------

    Doubly Occupied:

       1A    -11.219166     2A    -11.217264     3A    -11.217022
       4A    -11.212620     5A     -1.024491     6A     -1.017176
       7A     -0.839928     8A     -0.832333     9A     -0.609929
      10A     -0.600318    11A     -0.595219    12A     -0.591624
      13A     -0.506199    14A     -0.502079    15A     -0.490253
      16A     -0.484233    17A     -0.481569    18A     -0.476241

    Virtual:

      19A      0.175994    20A      0.198536    21A      0.227895
      22A      0.232636    23A      0.245595    24A      0.258391
      25A      0.266172    26A      0.273766    27A      0.284231
      28A      0.286445    29A      0.323786    30A      0.354185
      31A      0.395977    32A      0.410902    33A      0.576194
      34A      0.582295    35A      0.603148    36A      0.605934
      37A      0.610167    38A      0.649526    39A      0.661886
      40A      0.670403    41A      0.719788    42A      0.825907
      43A      0.849086    44A      0.858380    45A      0.885732
      46A      0.892333    47A      0.892649    48A      0.896657
      49A      0.899059    50A      0.908863    51A      0.919094
      52A      0.926047    53A      0.962513    54A      0.964524
      55A      0.977012    56A      1.011303    57A      1.125294
      58A      1.129980    59A      1.131935    60A      1.173409
      61A      1.236405    62A      1.250421    63A      1.462215
      64A      1.477587    65A      1.482397    66A      1.492100
      67A      1.568795    68A      1.584314    69A      1.676497
      70A      1.690141    71A      1.704479    72A      1.709822
      73A      1.849085    74A      1.861361    75A      1.873933
      76A      1.883533    77A      1.897619    78A      1.914552
      79A      1.935916    80A      1.937011    81A      1.944370
      82A      1.953251    83A      1.955810    84A      1.962433
      85A      1.969748    86A      1.982725    87A      2.024024
      88A      2.027424    89A      2.082225    90A      2.106321
      91A      2.115435    92A      2.173978    93A      2.287958
      94A      2.304229    95A      2.330245    96A      2.336589
      97A      2.452072    98A      2.459753    99A      2.475438
     100A      2.484458   101A      2.542420   102A      2.576646
     103A      2.582337   104A      2.590917   105A      2.756569
     106A      2.769082   107A      2.791170   108A      2.804457
     109A      2.838653   110A      2.854568   111A      2.870516
     112A      2.879624   113A      2.934388   114A      2.962490
     115A      2.988847   116A      3.000691

    Final Occupation by Irrep:
              A
    DOCC [    18 ]

  @RHF Final Energy:  -158.46342458954385

   => Energetics <=

    Nuclear Repulsion Energy =            125.2751944938778763
    One-Electron Energy =                -459.6419113930201092
    Two-Electron Energy =                 175.9032923095984131
    Total Energy =                       -158.4634245895438482

Computation Completed

Properties will be evaluated at   0.000000,   0.000000,   0.000000 [a0]

Properties computed using the SCF density matrix

  Nuclear Dipole Moment: [e a0]
     X:    -0.0146      Y:    -0.0647      Z:    -0.0425

  Electronic Dipole Moment: [e a0]
     X:     0.0043      Y:     0.0586      Z:     0.0301

  Dipole Moment: [e a0]
     X:    -0.0103      Y:    -0.0061      Z:    -0.0124     Total:     0.0173

  Dipole Moment: [D]
     X:    -0.0262      Y:    -0.0155      Z:    -0.0316     Total:     0.0439

*** tstop() called on ds3 at Mon Apr 27 13:27:11 2020
Module time:
	user time   =      11.11 seconds =       0.19 minutes
	system time =       4.30 seconds =       0.07 minutes
	total time  =         15 seconds =       0.25 minutes
Total time:
	user time   =      11.11 seconds =       0.19 minutes
	system time =       4.30 seconds =       0.07 minutes
	total time  =         15 seconds =       0.25 minutes
                                     G D M A

                                 by Anthony Stone

                           version 2.2.06, 22 June 2011

               Distributed Multipoles from Gaussian wavefunctions

Starting at 13:27:11 on 27 Apr 2020

Using SCF density matrix from file ./SSI/SSI-228VAL-254THR-1-dimer.test.6661.fchk

                         Distributed Multipole Analysis

Standard DMA

Positions and radii in angstrom
Multipole moments in atomic units, ea_0^k for rank k

C          x = -1.363673  y = -0.653550  z =  0.213701 angstrom
           Maximum rank =  0   Radius =  0.650 angstrom
                   Q00  =  -0.236591

C          x = -1.816673  y = -1.893550  z =  0.985701 angstrom
           Maximum rank =  0   Radius =  0.650 angstrom
                   Q00  =  -0.241970

H          x = -1.294673  y = -0.872550  z = -0.852299 angstrom
           Maximum rank =  0   Radius =  0.325 angstrom
                   Q00  =   0.081095

H          x = -2.095673  y =  0.142450  z =  0.358701 angstrom
           Maximum rank =  0   Radius =  0.325 angstrom
                   Q00  =   0.078288

H          x = -0.404673  y = -0.314550  z =  0.588701 angstrom
           Maximum rank =  0   Radius =  0.325 angstrom
                   Q00  =   0.082713

H          x = -2.785673  y = -2.188550  z =  0.579701 angstrom
           Maximum rank =  0   Radius =  0.325 angstrom
                   Q00  =   0.074322

H          x = -1.122053  y = -2.734260  z =  0.841761 angstrom
           Maximum rank =  0   Radius =  0.325 angstrom
                   Q00  =   0.078901

H          x = -1.967763  y = -1.723840  z =  2.061981 angstrom
           Maximum rank =  0   Radius =  0.325 angstrom
                   Q00  =   0.081717

C          x =  1.716327  y =  0.597450  z = -0.900299 angstrom
           Maximum rank =  0   Radius =  0.650 angstrom
                   Q00  =  -0.218987

C          x =  1.465327  y =  1.955450  z = -0.295299 angstrom
           Maximum rank =  0   Radius =  0.650 angstrom
                   Q00  =  -0.239845

H          x =  2.496327  y =  0.660450  z = -1.659299 angstrom
           Maximum rank =  0   Radius =  0.325 angstrom
                   Q00  =   0.077049

H          x =  2.042327  y = -0.086550  z = -0.118299 angstrom
           Maximum rank =  0   Radius =  0.325 angstrom
                   Q00  =   0.071924

H          x =  0.818327  y =  0.190450  z = -1.357299 angstrom
           Maximum rank =  0   Radius =  0.325 angstrom
                   Q00  =   0.081815

H          x =  0.746327  y =  1.894450  z =  0.522701 angstrom
           Maximum rank =  0   Radius =  0.325 angstrom
                   Q00  =   0.080770

H          x =  1.114947  y =  2.641820  z = -1.080237 angstrom
           Maximum rank =  0   Radius =  0.325 angstrom
                   Q00  =   0.075985

H          x =  2.436677  y =  2.321620  z =  0.068571 angstrom
           Maximum rank =  0   Radius =  0.325 angstrom
                   Q00  =   0.072814

Total multipoles referred to origin at
           x =   0.000000,  y =    0.000000,  z =    0.000000 angstrom
                   Q00  =   0.000000

Finished at 13:27:11 on 27 Apr 2020

  DMA results are available in the Python driver through the
	  variable('DMA DISTRIBUTED MULTIPOLES')
  and
	  variable('DMA TOTAL MULTIPOLES')
  commands.

    Psi4 stopped on: Monday, 27 April 2020 01:27PM
    Psi4 wall time for execution: 0:00:15.22

*** Psi4 exiting successfully. Buy a developer a beer!
