                               Psi4 1.3.2 release

  ==> Input File <==

--------------------------------------------------------------------------
import numpy as np
set {scf_type pk
basis cc-pvdz
d_convergence 10
gdma_switch   0
gdma_limit    0
gdma_origin   [ 0.0,  0.0,  0.0 ]
}
molecule test {
    units Angstrom
    0 1
    --
    0 1
    C               -3.903631117948246     0.128505102300443    -0.279958683451043
    C               -1.700631117948246     1.055505102300442     0.330041316548957
    N               -1.125631117948246    -0.099494897699557     0.052041316548957
    N               -3.009631117948246     1.199505102300443     0.176041316548957
    N               -0.964631117948246     2.059505102300443     0.762041316548957
    H               -1.677631117948246    -0.881494897699557    -0.243958683451043
    H               -0.103631117948246    -0.159494897699557    -0.045958683451043
    H               -3.406631117948246     2.079505102300443     0.448041316548958
    H               -1.367631117948246     2.966505102300443     0.988041316548957
    H                0.018368882051754     1.913505102300443     0.905041316548957
    H               -3.851631117948246    -0.687494897699557     0.446041316548957
    H               -3.573631117948247    -0.265494897699557    -1.241958683451043
    H               -4.955288117948246     0.447255102300443    -0.329108683451042
    C                3.653368882051754    -1.475494897699557    -1.242958683451042
    C                2.620368882051753    -1.062494897699557    -0.203958683451043
    O                1.606368882051754    -0.436494897699557    -0.581958683451043
    O                2.810368882051754    -1.362494897699557     0.994041316548957
    H                3.632368882051753    -0.748494897699557    -2.056958683451042
    H                3.396368882051754    -2.430494897699557    -1.684958683451043
    H                4.680508882051754    -1.460336797699557    -0.849570683451043

}
e, wfn = energy('scf', return_wfn=True)
gdma(wfn)
dmavals = variable('DMA DISTRIBUTED MULTIPOLES')
charges = np.array(dmavals)
print(charges)
np.save('SSI-005ARG-071GLU-1-dimer.npy', np.array(charges))--------------------------------------------------------------------------

*** tstart() called on ds3
*** at Mon Apr 27 07:30:58 2020

   => Loading Basis Set <=

    Name: CC-PVDZ
    Role: ORBITAL
    Keyword: BASIS
    atoms 1-2, 14-15  entry C          line   138 file /theoryfs2/ds/metcalf/miniconda2/envs/tf2gpu/share/psi4/basis/cc-pvdz.gbs
    atoms 3-5         entry N          line   168 file /theoryfs2/ds/metcalf/miniconda2/envs/tf2gpu/share/psi4/basis/cc-pvdz.gbs
    atoms 6-13, 18-20 entry H          line    22 file /theoryfs2/ds/metcalf/miniconda2/envs/tf2gpu/share/psi4/basis/cc-pvdz.gbs
    atoms 16-17       entry O          line   198 file /theoryfs2/ds/metcalf/miniconda2/envs/tf2gpu/share/psi4/basis/cc-pvdz.gbs

         ---------------------------------------------------------
                                   SCF
               by Justin Turney, Rob Parrish, Andy Simmonett
                          and Daniel G. A. Smith
                              RHF Reference
                        1 Threads,    500 MiB Core
         ---------------------------------------------------------

  ==> Geometry <==

    Molecular point group: c1
    Full point group: C1

    Geometry (in Angstrom), charge = 0, multiplicity = 1:

       Center              X                  Y                   Z               Mass
    ------------   -----------------  -----------------  -----------------  -----------------
         C           -3.903631117948     0.128505102300    -0.279958683451    12.000000000000
         C           -1.700631117948     1.055505102300     0.330041316549    12.000000000000
         N           -1.125631117948    -0.099494897700     0.052041316549    14.003074004430
         N           -3.009631117948     1.199505102300     0.176041316549    14.003074004430
         N           -0.964631117948     2.059505102300     0.762041316549    14.003074004430
         H           -1.677631117948    -0.881494897700    -0.243958683451     1.007825032230
         H           -0.103631117948    -0.159494897700    -0.045958683451     1.007825032230
         H           -3.406631117948     2.079505102300     0.448041316549     1.007825032230
         H           -1.367631117948     2.966505102300     0.988041316549     1.007825032230
         H            0.018368882052     1.913505102300     0.905041316549     1.007825032230
         H           -3.851631117948    -0.687494897700     0.446041316549     1.007825032230
         H           -3.573631117948    -0.265494897700    -1.241958683451     1.007825032230
         H           -4.955288117948     0.447255102300    -0.329108683451     1.007825032230
         C            3.653368882052    -1.475494897700    -1.242958683451    12.000000000000
         C            2.620368882052    -1.062494897700    -0.203958683451    12.000000000000
         O            1.606368882052    -0.436494897700    -0.581958683451    15.994914619570
         O            2.810368882052    -1.362494897700     0.994041316549    15.994914619570
         H            3.632368882052    -0.748494897700    -2.056958683451     1.007825032230
         H            3.396368882052    -2.430494897700    -1.684958683451     1.007825032230
         H            4.680508882052    -1.460336797700    -0.849570683451     1.007825032230

  Running in c1 symmetry.

  Rotational constants: A =      0.12076  B =      0.01591  C =      0.01512 [cm^-1]
  Rotational constants: A =   3620.30638  B =    477.04293  C =    453.21462 [MHz]
  Nuclear repulsion =  439.633694836085226

  Charge       = 0
  Multiplicity = 1
  Electrons    = 72
  Nalpha       = 36
  Nbeta        = 36

  ==> Algorithm <==

  SCF Algorithm Type is PK.
  DIIS enabled.
  MOM disabled.
  Fractional occupation disabled.
  Guess Type is SAD.
  Energy threshold   = 1.00e-06
  Density threshold  = 1.00e-10
  Integral threshold = 0.00e+00

  ==> Primary Basis <==

  Basis Set: CC-PVDZ
    Blend: CC-PVDZ
    Number of shells: 87
    Number of basis function: 181
    Number of Cartesian functions: 190
    Spherical Harmonics?: true
    Max angular momentum: 2

  ==> Pre-Iterations <==

   -------------------------------------------------------
    Irrep   Nso     Nmo     Nalpha   Nbeta   Ndocc  Nsocc
   -------------------------------------------------------
     A        181     181       0       0       0       0
   -------------------------------------------------------
    Total     181     181      36      36      36       0
   -------------------------------------------------------

  ==> Integral Setup <==

  Using integral reordering PK algorithm.
  Sizing the integral batches needed.
  Building batch lookup table.
   Calculation information:
      Number of atoms:                  20
      Number of AO shells:              87
      Number of primitives:            253
      Number of atomic orbitals:       190
      Number of basis functions:       181

      Integral cutoff                 1.00e-12
      Number of threads:                 1

	Batch   1 pq = [       0,    9405] index = [             0,44231715] size =     44231715
	Batch   2 pq = [    9405,   13301] index = [      44231715,88464951] size =     44233236
	Batch   3 pq = [   13301,   16471] index = [      88464951,135655156] size =     47190205
  Task number: 13
  Buffer size: 11059200
  Buffer per thread: 2
  We computed 5056572 shell quartets total.
  Whereas there are 7328706 unique shell quartets.

  ==> DiskJK: Disk-Based J/K Matrices <==

    J tasked:                  Yes
    K tasked:                  Yes
    wK tasked:                  No
    Memory [MiB]:              375
    Schwarz Cutoff:          1E-12

    OpenMP threads:              1

  Minimum eigenvalue in the overlap matrix is 3.8441911495E-03.
  Using Symmetric Orthogonalization.

  SCF Guess: Superposition of Atomic Densities via on-the-fly atomic UHF.

  ==> Iterations <==

                        Total Energy        Delta E     RMS |[F,P]|

   @RHF iter SAD:  -469.67395576386451   -4.69674e+02   0.00000e+00
   @RHF iter   1:  -470.68212127517148   -1.00817e+00   4.26570e-03 DIIS
   @RHF iter   2:  -470.90956372933431   -2.27442e-01   2.24340e-03 DIIS
   @RHF iter   3:  -470.96917097054893   -5.96072e-02   3.95212e-04 DIIS
   @RHF iter   4:  -470.97246850438580   -3.29753e-03   1.45404e-04 DIIS
   @RHF iter   5:  -470.97288631640475   -4.17812e-04   2.90933e-05 DIIS
   @RHF iter   6:  -470.97290996217919   -2.36458e-05   1.52704e-05 DIIS
   @RHF iter   7:  -470.97291465673260   -4.69455e-06   3.81426e-06 DIIS
   @RHF iter   8:  -470.97291537219837   -7.15466e-07   1.78196e-06 DIIS
   @RHF iter   9:  -470.97291549203328   -1.19835e-07   6.35365e-07 DIIS
   @RHF iter  10:  -470.97291551372189   -2.16886e-08   2.06980e-07 DIIS
   @RHF iter  11:  -470.97291551570095   -1.97906e-09   5.36515e-08 DIIS
   @RHF iter  12:  -470.97291551579360   -9.26548e-11   1.90535e-08 DIIS
   @RHF iter  13:  -470.97291551580702   -1.34150e-11   5.00038e-09 DIIS
   @RHF iter  14:  -470.97291551580867   -1.64846e-12   1.38915e-09 DIIS
   @RHF iter  15:  -470.97291551580577    2.89901e-12   5.58667e-10 DIIS
   @RHF iter  16:  -470.97291551580776   -1.98952e-12   1.97679e-10 DIIS
   @RHF iter  17:  -470.97291551580525    2.50111e-12   8.33009e-11 DIIS
  Energy and wave function converged.

  ==> Post-Iterations <==

    Orbital Energies [Eh]
    ---------------------

    Doubly Occupied:

       1A    -20.402366     2A    -20.379134     3A    -15.666445
       4A    -15.656090     5A    -15.623424     6A    -11.452469
       7A    -11.340980     8A    -11.241952     9A    -11.152768
      10A     -1.411538    11A     -1.283053    12A     -1.277587
      13A     -1.242076    14A     -1.165183    15A     -1.030061
      16A     -0.905689    17A     -0.901624    18A     -0.844374
      19A     -0.806410    20A     -0.722424    21A     -0.712650
      22A     -0.696425    23A     -0.681674    24A     -0.625157
      25A     -0.620334    26A     -0.618288    27A     -0.533116
      28A     -0.522840    29A     -0.517937    30A     -0.473074
      31A     -0.461320    32A     -0.454523    33A     -0.430598
      34A     -0.320568    35A     -0.295282    36A     -0.293560

    Virtual:

      37A      0.107500    38A      0.137945    39A      0.156242
      40A      0.161034    41A      0.208255    42A      0.210955
      43A      0.222345    44A      0.229449    45A      0.261592
      46A      0.292079    47A      0.296645    48A      0.325347
      49A      0.364068    50A      0.376920    51A      0.413170
      52A      0.459776    53A      0.473067    54A      0.474991
      55A      0.557868    56A      0.574242    57A      0.583115
      58A      0.610794    59A      0.628463    60A      0.648579
      61A      0.659489    62A      0.680081    63A      0.694379
      64A      0.699770    65A      0.729846    66A      0.764039
      67A      0.790545    68A      0.806620    69A      0.817305
      70A      0.820169    71A      0.835971    72A      0.855919
      73A      0.861238    74A      0.886922    75A      0.920158
      76A      0.927916    77A      0.931513    78A      0.941878
      79A      0.961527    80A      0.975457    81A      0.978573
      82A      1.003772    83A      1.020968    84A      1.033555
      85A      1.042925    86A      1.093390    87A      1.107137
      88A      1.126507    89A      1.181368    90A      1.202650
      91A      1.229653    92A      1.237240    93A      1.257118
      94A      1.272774    95A      1.299425    96A      1.339292
      97A      1.350364    98A      1.387394    99A      1.431056
     100A      1.442208   101A      1.474066   102A      1.484642
     103A      1.493563   104A      1.520293   105A      1.542211
     106A      1.604067   107A      1.608268   108A      1.620003
     109A      1.634553   110A      1.644994   111A      1.655986
     112A      1.689840   113A      1.721786   114A      1.745694
     115A      1.763630   116A      1.801055   117A      1.816632
     118A      1.842214   119A      1.857724   120A      1.890520
     121A      1.892792   122A      1.917341   123A      1.924515
     124A      1.951064   125A      1.956228   126A      1.970102
     127A      1.981451   128A      2.027681   129A      2.043920
     130A      2.071248   131A      2.113062   132A      2.129034
     133A      2.140622   134A      2.183805   135A      2.195420
     136A      2.207256   137A      2.236402   138A      2.283357
     139A      2.295440   140A      2.311150   141A      2.329406
     142A      2.367204   143A      2.401525   144A      2.419751
     145A      2.439976   146A      2.463499   147A      2.482088
     148A      2.542447   149A      2.565003   150A      2.593196
     151A      2.595636   152A      2.605089   153A      2.664009
     154A      2.686745   155A      2.701864   156A      2.732648
     157A      2.762051   158A      2.819674   159A      2.835701
     160A      2.868337   161A      2.883143   162A      2.890429
     163A      2.930228   164A      2.954168   165A      3.005568
     166A      3.013152   167A      3.108453   168A      3.145557
     169A      3.159360   170A      3.207016   171A      3.224706
     172A      3.233283   173A      3.323708   174A      3.510499
     175A      3.646549   176A      3.695247   177A      3.705021
     178A      3.801022   179A      3.949510   180A      3.957891
     181A      4.086713

    Final Occupation by Irrep:
              A
    DOCC [    36 ]

  @RHF Final Energy:  -470.97291551580525

   => Energetics <=

    Nuclear Repulsion Energy =            439.6336948360852261
    One-Electron Energy =               -1515.6872383019767767
    Two-Electron Energy =                 605.0806279500864093
    Total Energy =                       -470.9729155158051981

Computation Completed

Properties will be evaluated at   0.000000,   0.000000,   0.000000 [a0]

Properties computed using the SCF density matrix

  Nuclear Dipole Moment: [e a0]
     X:    -6.7217      Y:     0.7073      Z:    -3.4370

  Electronic Dipole Moment: [e a0]
     X:     0.5616      Y:     2.2212      Z:     3.2470

  Dipole Moment: [e a0]
     X:    -6.1601      Y:     2.9285      Z:    -0.1900     Total:     6.8234

  Dipole Moment: [D]
     X:   -15.6573      Y:     7.4434      Z:    -0.4829     Total:    17.3433

*** tstop() called on ds3 at Mon Apr 27 07:32:35 2020
Module time:
	user time   =      39.59 seconds =       0.66 minutes
	system time =      19.86 seconds =       0.33 minutes
	total time  =         97 seconds =       1.62 minutes
Total time:
	user time   =      39.59 seconds =       0.66 minutes
	system time =      19.86 seconds =       0.33 minutes
	total time  =         97 seconds =       1.62 minutes
                                     G D M A

                                 by Anthony Stone

                           version 2.2.06, 22 June 2011

               Distributed Multipoles from Gaussian wavefunctions

Starting at 7:32:35 on 27 Apr 2020

Using SCF density matrix from file ./SSI/SSI-005ARG-071GLU-1-dimer.test.20966.fchk

                         Distributed Multipole Analysis

Standard DMA

Positions and radii in angstrom
Multipole moments in atomic units, ea_0^k for rank k

C          x = -3.903631  y =  0.128505  z = -0.279959 angstrom
           Maximum rank =  0   Radius =  0.650 angstrom
                   Q00  =  -0.112461

C          x = -1.700631  y =  1.055505  z =  0.330041 angstrom
           Maximum rank =  0   Radius =  0.650 angstrom
                   Q00  =   1.070348

N          x = -1.125631  y = -0.099495  z =  0.052041 angstrom
           Maximum rank =  0   Radius =  0.650 angstrom
                   Q00  =  -0.588418

N          x = -3.009631  y =  1.199505  z =  0.176041 angstrom
           Maximum rank =  0   Radius =  0.650 angstrom
                   Q00  =  -0.495381

N          x = -0.964631  y =  2.059505  z =  0.762041 angstrom
           Maximum rank =  0   Radius =  0.650 angstrom
                   Q00  =  -0.587598

H          x = -1.677631  y = -0.881495  z = -0.243959 angstrom
           Maximum rank =  0   Radius =  0.325 angstrom
                   Q00  =   0.239877

H          x = -0.103631  y = -0.159495  z = -0.045959 angstrom
           Maximum rank =  0   Radius =  0.325 angstrom
                   Q00  =   0.363437

H          x = -3.406631  y =  2.079505  z =  0.448041 angstrom
           Maximum rank =  0   Radius =  0.325 angstrom
                   Q00  =   0.206814

H          x = -1.367631  y =  2.966505  z =  0.988041 angstrom
           Maximum rank =  0   Radius =  0.325 angstrom
                   Q00  =   0.242494

H          x =  0.018369  y =  1.913505  z =  0.905041 angstrom
           Maximum rank =  0   Radius =  0.325 angstrom
                   Q00  =   0.278453

H          x = -3.851631  y = -0.687495  z =  0.446041 angstrom
           Maximum rank =  0   Radius =  0.325 angstrom
                   Q00  =   0.102951

H          x = -3.573631  y = -0.265495  z = -1.241959 angstrom
           Maximum rank =  0   Radius =  0.325 angstrom
                   Q00  =   0.114311

H          x = -4.955288  y =  0.447255  z = -0.329109 angstrom
           Maximum rank =  0   Radius =  0.325 angstrom
                   Q00  =   0.145610

C          x =  3.653369  y = -1.475495  z = -1.242959 angstrom
           Maximum rank =  0   Radius =  0.650 angstrom
                   Q00  =  -0.278979

C          x =  2.620369  y = -1.062495  z = -0.203959 angstrom
           Maximum rank =  0   Radius =  0.650 angstrom
                   Q00  =   0.943261

O          x =  1.606369  y = -0.436495  z = -0.581959 angstrom
           Maximum rank =  0   Radius =  0.650 angstrom
                   Q00  =  -0.999407

O          x =  2.810369  y = -1.362495  z =  0.994041 angstrom
           Maximum rank =  0   Radius =  0.650 angstrom
                   Q00  =  -0.892956

H          x =  3.632369  y = -0.748495  z = -2.056959 angstrom
           Maximum rank =  0   Radius =  0.325 angstrom
                   Q00  =   0.063758

H          x =  3.396369  y = -2.430495  z = -1.684959 angstrom
           Maximum rank =  0   Radius =  0.325 angstrom
                   Q00  =   0.099309

H          x =  4.680509  y = -1.460337  z = -0.849571 angstrom
           Maximum rank =  0   Radius =  0.325 angstrom
                   Q00  =   0.084576

Total multipoles referred to origin at
           x =   0.000000,  y =    0.000000,  z =    0.000000 angstrom
                   Q00  =  -0.000000

Finished at 7:32:35 on 27 Apr 2020

  DMA results are available in the Python driver through the
	  variable('DMA DISTRIBUTED MULTIPOLES')
  and
	  variable('DMA TOTAL MULTIPOLES')
  commands.

    Psi4 stopped on: Monday, 27 April 2020 07:32AM
    Psi4 wall time for execution: 0:01:37.44

*** Psi4 exiting successfully. Buy a developer a beer!
