                               Psi4 1.3.2 release

  ==> Input File <==

--------------------------------------------------------------------------
import numpy as np
set {scf_type pk
basis cc-pvdz
d_convergence 10
gdma_switch   0
gdma_limit    0
gdma_origin   [ 0.0,  0.0,  0.0 ]
}
molecule test {
    units Angstrom
    0 1
    --
    0 1
    C                2.557023785229811    -0.693034486098656     0.414479322911420
    C                3.926023785229810    -1.244034486098656     0.002479322911420
    H                2.664023785229810     0.120965513901344     1.131479322911420
    H                2.048023785229810    -0.305034486098656    -0.467520677088580
    H                1.948023785229810    -1.487034486098656     0.848479322911420
    H                4.541023785229810    -0.422034486098656    -0.367520677088580
    H                3.760023785229810    -1.931034486098656    -0.827520677088580
    H                4.459583785229810    -1.764024486098656     0.811751322911420
    C               -0.484976214770190     1.477965513901344    -2.130520677088580
    C               -0.689976214770190     1.398965513901343     0.372479322911420
    C               -0.845976214770190     0.768965513901344    -0.862520677088580
    C               -1.009976214770190     0.726965513901344     1.556479322911420
    C               -1.487976214770190    -0.571034486098656     1.498479322911420
    C               -1.320976214770190    -0.537034486098656    -0.907520677088580
    C               -1.641976214770190    -1.196034486098656     0.267479322911420
    H               -0.323976214770190     2.413965513901344     0.417479322911420
    H               -0.894976214770190     1.214965513901344     2.510479322911420
    H               -0.166976214770190     0.733965513901344    -2.860520677088580
    H                0.384023785229810     2.102965513901344    -1.938520677088580
    H               -1.752976214770190    -1.090034486098656     2.407479322911420
    H               -1.447976214770190    -1.039034486098656    -1.855520677088580
    H               -2.030976214770190    -2.204034486098656     0.232479322911420
    H               -1.294496214770190     2.087432513901343    -2.558581677088580

}
e, wfn = energy('scf', return_wfn=True)
gdma(wfn)
dmavals = variable('DMA DISTRIBUTED MULTIPOLES')
charges = np.array(dmavals)
print(charges)
np.save('SSI-088ILE-135PHE-1-dimer.npy', np.array(charges))--------------------------------------------------------------------------

*** tstart() called on ds3
*** at Tue Apr 28 03:43:52 2020

   => Loading Basis Set <=

    Name: CC-PVDZ
    Role: ORBITAL
    Keyword: BASIS
    atoms 1-2, 9-15  entry C          line   138 file /theoryfs2/ds/metcalf/miniconda2/envs/tf2gpu/share/psi4/basis/cc-pvdz.gbs
    atoms 3-8, 16-23 entry H          line    22 file /theoryfs2/ds/metcalf/miniconda2/envs/tf2gpu/share/psi4/basis/cc-pvdz.gbs

         ---------------------------------------------------------
                                   SCF
               by Justin Turney, Rob Parrish, Andy Simmonett
                          and Daniel G. A. Smith
                              RHF Reference
                        1 Threads,    500 MiB Core
         ---------------------------------------------------------

  ==> Geometry <==

    Molecular point group: c1
    Full point group: C1

    Geometry (in Angstrom), charge = 0, multiplicity = 1:

       Center              X                  Y                   Z               Mass
    ------------   -----------------  -----------------  -----------------  -----------------
         C            2.557023785230    -0.693034486099     0.414479322911    12.000000000000
         C            3.926023785230    -1.244034486099     0.002479322911    12.000000000000
         H            2.664023785230     0.120965513901     1.131479322911     1.007825032230
         H            2.048023785230    -0.305034486099    -0.467520677089     1.007825032230
         H            1.948023785230    -1.487034486099     0.848479322911     1.007825032230
         H            4.541023785230    -0.422034486099    -0.367520677089     1.007825032230
         H            3.760023785230    -1.931034486099    -0.827520677089     1.007825032230
         H            4.459583785230    -1.764024486099     0.811751322911     1.007825032230
         C           -0.484976214770     1.477965513901    -2.130520677089    12.000000000000
         C           -0.689976214770     1.398965513901     0.372479322911    12.000000000000
         C           -0.845976214770     0.768965513901    -0.862520677089    12.000000000000
         C           -1.009976214770     0.726965513901     1.556479322911    12.000000000000
         C           -1.487976214770    -0.571034486099     1.498479322911    12.000000000000
         C           -1.320976214770    -0.537034486099    -0.907520677089    12.000000000000
         C           -1.641976214770    -1.196034486099     0.267479322911    12.000000000000
         H           -0.323976214770     2.413965513901     0.417479322911     1.007825032230
         H           -0.894976214770     1.214965513901     2.510479322911     1.007825032230
         H           -0.166976214770     0.733965513901    -2.860520677089     1.007825032230
         H            0.384023785230     2.102965513901    -1.938520677089     1.007825032230
         H           -1.752976214770    -1.090034486099     2.407479322911     1.007825032230
         H           -1.447976214770    -1.039034486099    -1.855520677089     1.007825032230
         H           -2.030976214770    -2.204034486099     0.232479322911     1.007825032230
         H           -1.294496214770     2.087432513901    -2.558581677089     1.007825032230

  Running in c1 symmetry.

  Rotational constants: A =      0.05761  B =      0.02941  C =      0.02481 [cm^-1]
  Rotational constants: A =   1727.02248  B =    881.80045  C =    743.89324 [MHz]
  Nuclear repulsion =  412.888441948928858

  Charge       = 0
  Multiplicity = 1
  Electrons    = 68
  Nalpha       = 34
  Nbeta        = 34

  ==> Algorithm <==

  SCF Algorithm Type is PK.
  DIIS enabled.
  MOM disabled.
  Fractional occupation disabled.
  Guess Type is SAD.
  Energy threshold   = 1.00e-06
  Density threshold  = 1.00e-10
  Integral threshold = 0.00e+00

  ==> Primary Basis <==

  Basis Set: CC-PVDZ
    Blend: CC-PVDZ
    Number of shells: 96
    Number of basis function: 196
    Number of Cartesian functions: 205
    Spherical Harmonics?: true
    Max angular momentum: 2

  ==> Pre-Iterations <==

   -------------------------------------------------------
    Irrep   Nso     Nmo     Nalpha   Nbeta   Ndocc  Nsocc
   -------------------------------------------------------
     A        196     196       0       0       0       0
   -------------------------------------------------------
    Total     196     196      34      34      34       0
   -------------------------------------------------------

  ==> Integral Setup <==

  Using integral reordering PK algorithm.
  Sizing the integral batches needed.
  Building batch lookup table.
   Calculation information:
      Number of atoms:                  23
      Number of AO shells:              96
      Number of primitives:            268
      Number of atomic orbitals:       205
      Number of basis functions:       196

      Integral cutoff                 1.00e-12
      Number of threads:                 1

	Batch   1 pq = [       0,    9405] index = [             0,44231715] size =     44231715
	Batch   2 pq = [    9405,   13301] index = [      44231715,88464951] size =     44233236
	Batch   3 pq = [   13301,   16290] index = [      88464951,132690195] size =     44225244
	Batch   4 pq = [   16290,   18810] index = [     132690195,176917455] size =     44227260
	Batch   5 pq = [   18810,   19306] index = [     176917455,186370471] size =      9453016
  Task number: 17
  Buffer size: 11059200
  Buffer per thread: 2
  We computed 9979975 shell quartets total.
  Whereas there are 10841496 unique shell quartets.

  ==> DiskJK: Disk-Based J/K Matrices <==

    J tasked:                  Yes
    K tasked:                  Yes
    wK tasked:                  No
    Memory [MiB]:              375
    Schwarz Cutoff:          1E-12

    OpenMP threads:              1

  Minimum eigenvalue in the overlap matrix is 3.0889339121E-04.
  Using Symmetric Orthogonalization.

  SCF Guess: Superposition of Atomic Densities via on-the-fly atomic UHF.

  ==> Iterations <==

                        Total Energy        Delta E     RMS |[F,P]|

   @RHF iter SAD:  -347.89869464909157   -3.47899e+02   0.00000e+00
   @RHF iter   1:  -348.76575042337265   -8.67056e-01   2.90806e-03 DIIS
   @RHF iter   2:  -348.95957324365867   -1.93823e-01   1.20642e-03 DIIS
   @RHF iter   3:  -348.98995854278326   -3.03853e-02   2.57911e-04 DIIS
   @RHF iter   4:  -348.99241943968093   -2.46090e-03   5.41169e-05 DIIS
   @RHF iter   5:  -348.99249525339451   -7.58137e-05   1.80136e-05 DIIS
   @RHF iter   6:  -348.99250318897100   -7.93558e-06   4.88412e-06 DIIS
   @RHF iter   7:  -348.99250385444606   -6.65475e-07   1.22285e-06 DIIS
   @RHF iter   8:  -348.99250389931069   -4.48646e-08   2.65894e-07 DIIS
   @RHF iter   9:  -348.99250390280173   -3.49104e-09   9.94860e-08 DIIS
   @RHF iter  10:  -348.99250390333646   -5.34726e-10   3.99891e-08 DIIS
   @RHF iter  11:  -348.99250390348539   -1.48930e-10   1.61298e-08 DIIS
   @RHF iter  12:  -348.99250390351170   -2.63185e-11   8.26921e-09 DIIS
   @RHF iter  13:  -348.99250390352086   -9.15179e-12   3.56107e-09 DIIS
   @RHF iter  14:  -348.99250390352074    1.13687e-13   1.02128e-09 DIIS
   @RHF iter  15:  -348.99250390352182   -1.08002e-12   3.03392e-10 DIIS
   @RHF iter  16:  -348.99250390352114    6.82121e-13   7.86350e-11 DIIS
  Energy and wave function converged.

  ==> Post-Iterations <==

    Orbital Energies [Eh]
    ---------------------

    Doubly Occupied:

       1A    -11.239131     2A    -11.234891     3A    -11.233617
       4A    -11.230470     5A    -11.229354     6A    -11.228872
       7A    -11.227964     8A    -11.212036     9A    -11.207062
      10A     -1.154035    11A     -1.046464    12A     -1.011858
      13A     -1.009468    14A     -0.931736    15A     -0.829284
      16A     -0.825899    17A     -0.794769    18A     -0.691668
      19A     -0.632146    20A     -0.630199    21A     -0.590129
      22A     -0.589723    23A     -0.582834    24A     -0.579238
      25A     -0.562976    26A     -0.533135    27A     -0.497189
      28A     -0.484662    29A     -0.482850    30A     -0.481956
      31A     -0.477839    32A     -0.476709    33A     -0.332108
      34A     -0.322000

    Virtual:

      35A      0.136428    36A      0.141227    37A      0.174640
      38A      0.195579    39A      0.203353    40A      0.215639
      41A      0.241730    42A      0.251774    43A      0.255300
      44A      0.260733    45A      0.263923    46A      0.267226
      47A      0.281648    48A      0.289018    49A      0.296753
      50A      0.312781    51A      0.367734    52A      0.378176
      53A      0.397496    54A      0.453326    55A      0.464684
      56A      0.484839    57A      0.489900    58A      0.562716
      59A      0.571721    60A      0.598307    61A      0.600327
      62A      0.605816    63A      0.655792    64A      0.657899
      65A      0.678404    66A      0.689273    67A      0.701962
      68A      0.706360    69A      0.740115    70A      0.742007
      71A      0.748416    72A      0.758725    73A      0.760722
      74A      0.772929    75A      0.779370    76A      0.799996
      77A      0.839956    78A      0.852890    79A      0.860068
      80A      0.864494    81A      0.875517    82A      0.897093
      83A      0.898328    84A      0.900317    85A      0.901468
      86A      0.916386    87A      0.922629    88A      0.927926
      89A      0.932661    90A      0.939004    91A      0.943939
      92A      0.962955    93A      0.988385    94A      1.005004
      95A      1.025488    96A      1.065780    97A      1.122993
      98A      1.129159    99A      1.135551   100A      1.145117
     101A      1.152339   102A      1.157582   103A      1.192320
     104A      1.229520   105A      1.244224   106A      1.248519
     107A      1.255506   108A      1.273319   109A      1.303023
     110A      1.306819   111A      1.322315   112A      1.330721
     113A      1.411935   114A      1.469316   115A      1.487884
     116A      1.509537   117A      1.516652   118A      1.555879
     119A      1.599795   120A      1.603922   121A      1.681022
     122A      1.689920   123A      1.700348   124A      1.704308
     125A      1.734176   126A      1.751179   127A      1.762404
     128A      1.787960   129A      1.809668   130A      1.857296
     131A      1.871134   132A      1.878651   133A      1.884977
     134A      1.888446   135A      1.913137   136A      1.918645
     137A      1.923804   138A      1.930628   139A      1.944945
     140A      1.948244   141A      1.952011   142A      1.958550
     143A      1.961476   144A      1.969446   145A      1.982963
     146A      1.990275   147A      1.994100   148A      2.016323
     149A      2.049521   150A      2.071437   151A      2.082946
     152A      2.100577   153A      2.112163   154A      2.134679
     155A      2.153240   156A      2.157890   157A      2.169839
     158A      2.178696   159A      2.181287   160A      2.256105
     161A      2.281196   162A      2.293388   163A      2.308062
     164A      2.310157   165A      2.314635   166A      2.322023
     167A      2.338161   168A      2.453472   169A      2.473802
     170A      2.479573   171A      2.483488   172A      2.499653
     173A      2.544286   174A      2.567148   175A      2.587527
     176A      2.624343   177A      2.746215   178A      2.761685
     179A      2.770369   180A      2.778331   181A      2.788876
     182A      2.801553   183A      2.811394   184A      2.853785
     185A      2.857560   186A      2.875577   187A      2.879960
     188A      2.960870   189A      2.961492   190A      2.997651
     191A      3.017658   192A      3.028900   193A      3.159090
     194A      3.206660   195A      3.304505   196A      3.981331

    Final Occupation by Irrep:
              A
    DOCC [    34 ]

  @RHF Final Energy:  -348.99250390352114

   => Energetics <=

    Nuclear Repulsion Energy =            412.8884419489288575
    One-Electron Energy =               -1288.5733504967031422
    Two-Electron Energy =                 526.6924046442530880
    Total Energy =                       -348.9925039035211967

Computation Completed

Properties will be evaluated at   0.000000,   0.000000,   0.000000 [a0]

Properties computed using the SCF density matrix

  Nuclear Dipole Moment: [e a0]
     X:    11.1487      Y:    -1.4700      Z:    -2.3587

  Electronic Dipole Moment: [e a0]
     X:   -11.2094      Y:     1.5485      Z:     2.2622

  Dipole Moment: [e a0]
     X:    -0.0606      Y:     0.0785      Z:    -0.0966     Total:     0.1384

  Dipole Moment: [D]
     X:    -0.1541      Y:     0.1996      Z:    -0.2454     Total:     0.3519

*** tstop() called on ds3 at Tue Apr 28 03:45:55 2020
Module time:
	user time   =      67.60 seconds =       1.13 minutes
	system time =      24.15 seconds =       0.40 minutes
	total time  =        123 seconds =       2.05 minutes
Total time:
	user time   =      67.60 seconds =       1.13 minutes
	system time =      24.15 seconds =       0.40 minutes
	total time  =        123 seconds =       2.05 minutes
                                     G D M A

                                 by Anthony Stone

                           version 2.2.06, 22 June 2011

               Distributed Multipoles from Gaussian wavefunctions

Starting at 3:45:55 on 28 Apr 2020

Using SCF density matrix from file ./SSI/SSI-088ILE-135PHE-1-dimer.test.24630.fchk

                         Distributed Multipole Analysis

Standard DMA

Positions and radii in angstrom
Multipole moments in atomic units, ea_0^k for rank k

C          x =  2.557024  y = -0.693034  z =  0.414479 angstrom
           Maximum rank =  0   Radius =  0.650 angstrom
                   Q00  =  -0.221139

C          x =  3.926024  y = -1.244034  z =  0.002479 angstrom
           Maximum rank =  0   Radius =  0.650 angstrom
                   Q00  =  -0.245265

H          x =  2.664024  y =  0.120966  z =  1.131479 angstrom
           Maximum rank =  0   Radius =  0.325 angstrom
                   Q00  =   0.074249

H          x =  2.048024  y = -0.305034  z = -0.467521 angstrom
           Maximum rank =  0   Radius =  0.325 angstrom
                   Q00  =   0.080045

H          x =  1.948024  y = -1.487034  z =  0.848479 angstrom
           Maximum rank =  0   Radius =  0.325 angstrom
                   Q00  =   0.082132

H          x =  4.541024  y = -0.422034  z = -0.367521 angstrom
           Maximum rank =  0   Radius =  0.325 angstrom
                   Q00  =   0.074502

H          x =  3.760024  y = -1.931034  z = -0.827521 angstrom
           Maximum rank =  0   Radius =  0.325 angstrom
                   Q00  =   0.074067

H          x =  4.459584  y = -1.764024  z =  0.811751 angstrom
           Maximum rank =  0   Radius =  0.325 angstrom
                   Q00  =   0.079839

C          x = -0.484976  y =  1.477966  z = -2.130521 angstrom
           Maximum rank =  0   Radius =  0.650 angstrom
                   Q00  =  -0.196778

C          x = -0.689976  y =  1.398966  z =  0.372479 angstrom
           Maximum rank =  0   Radius =  0.650 angstrom
                   Q00  =  -0.072053

C          x = -0.845976  y =  0.768966  z = -0.862521 angstrom
           Maximum rank =  0   Radius =  0.650 angstrom
                   Q00  =  -0.104649

C          x = -1.009976  y =  0.726966  z =  1.556479 angstrom
           Maximum rank =  0   Radius =  0.650 angstrom
                   Q00  =  -0.075570

C          x = -1.487976  y = -0.571034  z =  1.498479 angstrom
           Maximum rank =  0   Radius =  0.650 angstrom
                   Q00  =  -0.079180

C          x = -1.320976  y = -0.537034  z = -0.907521 angstrom
           Maximum rank =  0   Radius =  0.650 angstrom
                   Q00  =  -0.085776

C          x = -1.641976  y = -1.196034  z =  0.267479 angstrom
           Maximum rank =  0   Radius =  0.650 angstrom
                   Q00  =   0.016808

H          x = -0.323976  y =  2.413966  z =  0.417479 angstrom
           Maximum rank =  0   Radius =  0.325 angstrom
                   Q00  =   0.056721

H          x = -0.894976  y =  1.214966  z =  2.510479 angstrom
           Maximum rank =  0   Radius =  0.325 angstrom
                   Q00  =   0.065069

H          x = -0.166976  y =  0.733966  z = -2.860521 angstrom
           Maximum rank =  0   Radius =  0.325 angstrom
                   Q00  =   0.094817

H          x =  0.384024  y =  2.102966  z = -1.938521 angstrom
           Maximum rank =  0   Radius =  0.325 angstrom
                   Q00  =   0.096789

H          x = -1.752976  y = -1.090034  z =  2.407479 angstrom
           Maximum rank =  0   Radius =  0.325 angstrom
                   Q00  =   0.060139

H          x = -1.447976  y = -1.039034  z = -1.855521 angstrom
           Maximum rank =  0   Radius =  0.325 angstrom
                   Q00  =   0.056579

H          x = -2.030976  y = -2.204034  z =  0.232479 angstrom
           Maximum rank =  0   Radius =  0.325 angstrom
                   Q00  =   0.062303

H          x = -1.294496  y =  2.087433  z = -2.558582 angstrom
           Maximum rank =  0   Radius =  0.325 angstrom
                   Q00  =   0.106351

Total multipoles referred to origin at
           x =   0.000000,  y =    0.000000,  z =    0.000000 angstrom
                   Q00  =  -0.000000

Finished at 3:45:55 on 28 Apr 2020

  DMA results are available in the Python driver through the
	  variable('DMA DISTRIBUTED MULTIPOLES')
  and
	  variable('DMA TOTAL MULTIPOLES')
  commands.

    Psi4 stopped on: Tuesday, 28 April 2020 03:45AM
    Psi4 wall time for execution: 0:02:02.71

*** Psi4 exiting successfully. Buy a developer a beer!
