                               Psi4 1.3.2 release

  ==> Input File <==

--------------------------------------------------------------------------
import numpy as np
set {scf_type pk
basis cc-pvdz
d_convergence 10
gdma_switch   0
gdma_limit    0
gdma_origin   [ 0.0,  0.0,  0.0 ]
}
molecule test {
    units Angstrom
    0 1
    --
    0 1
    C                0.982766860608411    -1.242136592856878     1.218474194548167
    C                1.531766860608411    -2.475136592856878     1.944474194548167
    H                1.694766860608411    -0.915136592856878     0.462474194548167
    H                0.043766860608411    -1.497136592856878     0.725474194548167
    H                0.810766860608411    -0.435136592856878     1.931474194548167
    H                1.729766860608411    -3.226136592856878     1.180474194548167
    H                0.788256860608411    -2.869566592856878     2.652724194548167
    H                2.478706860608411    -2.262308592856878     2.462164194548167
    C               -1.188233139391589     1.257863407143122    -0.598525805451833
    C                0.141766860608411     2.021863407143122    -0.695525805451833
    C               -1.549233139391589     0.528863407143122    -1.904525805451833
    H               -1.128233139391589     0.516863407143122     0.199474194548167
    H               -1.973233139391589     1.961863407143122    -0.322525805451833
    H                0.915766860608411     1.358863407143122    -1.080525805451833
    H               -1.259233139391589     1.124863407143122    -2.769525805451833
    H               -0.992233139391589    -0.408136592856878    -1.949525805451833
    H                0.441806860608411     2.388834407143122     0.297104194548167
    H                0.041466860608411     2.863263407143122    -1.396935805451833
    H               -2.625713139391589     0.311710407143122    -1.968095805451833

}
e, wfn = energy('scf', return_wfn=True)
gdma(wfn)
dmavals = variable('DMA DISTRIBUTED MULTIPOLES')
charges = np.array(dmavals)
print(charges)
np.save('SSI-023LEU-036ARG-1-dimer.npy', np.array(charges))--------------------------------------------------------------------------

*** tstart() called on ds3
*** at Tue Apr 28 02:04:37 2020

   => Loading Basis Set <=

    Name: CC-PVDZ
    Role: ORBITAL
    Keyword: BASIS
    atoms 1-2, 9-11  entry C          line   138 file /theoryfs2/ds/metcalf/miniconda2/envs/tf2gpu/share/psi4/basis/cc-pvdz.gbs
    atoms 3-8, 12-19 entry H          line    22 file /theoryfs2/ds/metcalf/miniconda2/envs/tf2gpu/share/psi4/basis/cc-pvdz.gbs

         ---------------------------------------------------------
                                   SCF
               by Justin Turney, Rob Parrish, Andy Simmonett
                          and Daniel G. A. Smith
                              RHF Reference
                        1 Threads,    500 MiB Core
         ---------------------------------------------------------

  ==> Geometry <==

    Molecular point group: c1
    Full point group: C1

    Geometry (in Angstrom), charge = 0, multiplicity = 1:

       Center              X                  Y                   Z               Mass
    ------------   -----------------  -----------------  -----------------  -----------------
         C            0.982766860608    -1.242136592857     1.218474194548    12.000000000000
         C            1.531766860608    -2.475136592857     1.944474194548    12.000000000000
         H            1.694766860608    -0.915136592857     0.462474194548     1.007825032230
         H            0.043766860608    -1.497136592857     0.725474194548     1.007825032230
         H            0.810766860608    -0.435136592857     1.931474194548     1.007825032230
         H            1.729766860608    -3.226136592857     1.180474194548     1.007825032230
         H            0.788256860608    -2.869566592857     2.652724194548     1.007825032230
         H            2.478706860608    -2.262308592857     2.462164194548     1.007825032230
         C           -1.188233139392     1.257863407143    -0.598525805452    12.000000000000
         C            0.141766860608     2.021863407143    -0.695525805452    12.000000000000
         C           -1.549233139392     0.528863407143    -1.904525805452    12.000000000000
         H           -1.128233139392     0.516863407143     0.199474194548     1.007825032230
         H           -1.973233139392     1.961863407143    -0.322525805452     1.007825032230
         H            0.915766860608     1.358863407143    -1.080525805452     1.007825032230
         H           -1.259233139392     1.124863407143    -2.769525805452     1.007825032230
         H           -0.992233139392    -0.408136592857    -1.949525805452     1.007825032230
         H            0.441806860608     2.388834407143     0.297104194548     1.007825032230
         H            0.041466860608     2.863263407143    -1.396935805452     1.007825032230
         H           -2.625713139392     0.311710407143    -1.968095805452     1.007825032230

  Running in c1 symmetry.

  Rotational constants: A =      0.23078  B =      0.03974  C =      0.03613 [cm^-1]
  Rotational constants: A =   6918.59740  B =   1191.42496  C =   1083.08884 [MHz]
  Nuclear repulsion =  178.005934154799121

  Charge       = 0
  Multiplicity = 1
  Electrons    = 44
  Nalpha       = 22
  Nbeta        = 22

  ==> Algorithm <==

  SCF Algorithm Type is PK.
  DIIS enabled.
  MOM disabled.
  Fractional occupation disabled.
  Guess Type is SAD.
  Energy threshold   = 1.00e-06
  Density threshold  = 1.00e-10
  Integral threshold = 0.00e+00

  ==> Primary Basis <==

  Basis Set: CC-PVDZ
    Blend: CC-PVDZ
    Number of shells: 72
    Number of basis function: 140
    Number of Cartesian functions: 145
    Spherical Harmonics?: true
    Max angular momentum: 2

  ==> Pre-Iterations <==

   -------------------------------------------------------
    Irrep   Nso     Nmo     Nalpha   Nbeta   Ndocc  Nsocc
   -------------------------------------------------------
     A        140     140       0       0       0       0
   -------------------------------------------------------
    Total     140     140      22      22      22       0
   -------------------------------------------------------

  ==> Integral Setup <==

  Using integral reordering PK algorithm.
  Sizing the integral batches needed.
  Building batch lookup table.
   Calculation information:
      Number of atoms:                  19
      Number of AO shells:              72
      Number of primitives:            180
      Number of atomic orbitals:       145
      Number of basis functions:       140

      Integral cutoff                 1.00e-12
      Number of threads:                 1

	Batch   1 pq = [       0,    9405] index = [             0,44231715] size =     44231715
	Batch   2 pq = [    9405,    9870] index = [      44231715,48713385] size =      4481670
  Task number: 5
  Buffer size: 11059200
  Buffer per thread: 2
  We computed 2881077 shell quartets total.
  Whereas there are 3454506 unique shell quartets.

  ==> DiskJK: Disk-Based J/K Matrices <==

    J tasked:                  Yes
    K tasked:                  Yes
    wK tasked:                  No
    Memory [MiB]:              375
    Schwarz Cutoff:          1E-12

    OpenMP threads:              1

  Minimum eigenvalue in the overlap matrix is 5.7019177744E-03.
  Using Symmetric Orthogonalization.

  SCF Guess: Superposition of Atomic Densities via on-the-fly atomic UHF.

  ==> Iterations <==

                        Total Energy        Delta E     RMS |[F,P]|

   @RHF iter SAD:  -196.32232242236154   -1.96322e+02   0.00000e+00
   @RHF iter   1:  -197.31344184512520   -9.91119e-01   3.77812e-03 DIIS
   @RHF iter   2:  -197.47206949593883   -1.58628e-01   1.62417e-03 DIIS
   @RHF iter   3:  -197.49998580232773   -2.79163e-02   3.23982e-04 DIIS
   @RHF iter   4:  -197.50218979027713   -2.20399e-03   4.80499e-05 DIIS
   @RHF iter   5:  -197.50222775386240   -3.79636e-05   1.48329e-05 DIIS
   @RHF iter   6:  -197.50223107013989   -3.31628e-06   2.37377e-06 DIIS
   @RHF iter   7:  -197.50223117207267   -1.01933e-07   4.44957e-07 DIIS
   @RHF iter   8:  -197.50223117609258   -4.01991e-09   1.13531e-07 DIIS
   @RHF iter   9:  -197.50223117634710   -2.54516e-10   3.61348e-08 DIIS
   @RHF iter  10:  -197.50223117637594   -2.88480e-11   7.87969e-09 DIIS
   @RHF iter  11:  -197.50223117637756   -1.62004e-12   1.48164e-09 DIIS
   @RHF iter  12:  -197.50223117637768   -1.13687e-13   2.71038e-10 DIIS
   @RHF iter  13:  -197.50223117637819   -5.11591e-13   4.62665e-11 DIIS
  Energy and wave function converged.

  ==> Post-Iterations <==

    Orbital Energies [Eh]
    ---------------------

    Doubly Occupied:

       1A    -11.220104     2A    -11.218901     3A    -11.218420
       4A    -11.217059     5A    -11.216055     6A     -1.048802
       7A     -1.018543     8A     -0.921752     9A     -0.837820
      10A     -0.797112    11A     -0.621817    12A     -0.600155
      13A     -0.597810    14A     -0.592928    15A     -0.546484
      16A     -0.530915    17A     -0.500893    18A     -0.489506
      19A     -0.484947    20A     -0.470514    21A     -0.468576
      22A     -0.463358

    Virtual:

      23A      0.169466    24A      0.194326    25A      0.217165
      26A      0.223700    27A      0.228401    28A      0.250659
      29A      0.256957    30A      0.272026    31A      0.272154
      32A      0.287376    33A      0.294792    34A      0.311408
      35A      0.323441    36A      0.328690    37A      0.375964
      38A      0.399802    39A      0.425285    40A      0.566625
      41A      0.583886    42A      0.597306    43A      0.602511
      44A      0.612555    45A      0.621035    46A      0.642396
      47A      0.692279    48A      0.703668    49A      0.726091
      50A      0.785835    51A      0.824281    52A      0.839764
      53A      0.851355    54A      0.870870    55A      0.884846
      56A      0.891637    57A      0.893807    58A      0.895586
      59A      0.900799    60A      0.908420    61A      0.915156
      62A      0.925741    63A      0.935759    64A      0.939157
      65A      0.957551    66A      0.971704    67A      0.985530
      68A      1.008795    69A      1.115911    70A      1.117799
      71A      1.124507    72A      1.148373    73A      1.216082
      74A      1.246098    75A      1.372745    76A      1.458196
      77A      1.473234    78A      1.480176    79A      1.483190
      80A      1.526112    81A      1.588778    82A      1.640031
      83A      1.667081    84A      1.678980    85A      1.690882
      86A      1.691566    87A      1.717918    88A      1.841101
      89A      1.852063    90A      1.853756    91A      1.868035
      92A      1.881151    93A      1.903673    94A      1.919225
      95A      1.927261    96A      1.937147    97A      1.943985
      98A      1.946345    99A      1.953373   100A      1.968352
     101A      1.972555   102A      1.979932   103A      1.985617
     104A      1.991069   105A      2.002606   106A      2.049775
     107A      2.083546   108A      2.088788   109A      2.122758
     110A      2.148878   111A      2.179320   112A      2.271220
     113A      2.298180   114A      2.303593   115A      2.308514
     116A      2.324109   117A      2.367923   118A      2.449677
     119A      2.470110   120A      2.479573   121A      2.524044
     122A      2.552759   123A      2.568484   124A      2.576015
     125A      2.614352   126A      2.643087   127A      2.757923
     128A      2.760583   129A      2.766010   130A      2.784182
     131A      2.793225   132A      2.831474   133A      2.841846
     134A      2.856891   135A      2.916574   136A      2.943923
     137A      2.949959   138A      2.955542   139A      2.962007
     140A      3.062094

    Final Occupation by Irrep:
              A
    DOCC [    22 ]

  @RHF Final Energy:  -197.50223117637819

   => Energetics <=

    Nuclear Repulsion Energy =            178.0059341547991210
    One-Electron Energy =                -616.8513883929292660
    Two-Electron Energy =                 241.3432230617519849
    Total Energy =                       -197.5022311763781886

Computation Completed

Properties will be evaluated at   0.000000,   0.000000,   0.000000 [a0]

Properties computed using the SCF density matrix

  Nuclear Dipole Moment: [e a0]
     X:     0.9060      Y:    -1.0193      Z:     0.3977

  Electronic Dipole Moment: [e a0]
     X:    -0.9067      Y:     0.9988      Z:    -0.3741

  Dipole Moment: [e a0]
     X:    -0.0008      Y:    -0.0205      Z:     0.0236     Total:     0.0313

  Dipole Moment: [D]
     X:    -0.0019      Y:    -0.0521      Z:     0.0600     Total:     0.0795

*** tstop() called on ds3 at Tue Apr 28 02:04:56 2020
Module time:
	user time   =      13.61 seconds =       0.23 minutes
	system time =       5.83 seconds =       0.10 minutes
	total time  =         19 seconds =       0.32 minutes
Total time:
	user time   =      13.61 seconds =       0.23 minutes
	system time =       5.83 seconds =       0.10 minutes
	total time  =         19 seconds =       0.32 minutes
                                     G D M A

                                 by Anthony Stone

                           version 2.2.06, 22 June 2011

               Distributed Multipoles from Gaussian wavefunctions

Starting at 2:4:56 on 28 Apr 2020

Using SCF density matrix from file ./SSI/SSI-023LEU-036ARG-1-dimer.test.10417.fchk

                         Distributed Multipole Analysis

Standard DMA

Positions and radii in angstrom
Multipole moments in atomic units, ea_0^k for rank k

C          x =  0.982767  y = -1.242137  z =  1.218474 angstrom
           Maximum rank =  0   Radius =  0.650 angstrom
                   Q00  =  -0.241642

C          x =  1.531767  y = -2.475137  z =  1.944474 angstrom
           Maximum rank =  0   Radius =  0.650 angstrom
                   Q00  =  -0.235426

H          x =  1.694767  y = -0.915137  z =  0.462474 angstrom
           Maximum rank =  0   Radius =  0.325 angstrom
                   Q00  =   0.081739

H          x =  0.043767  y = -1.497137  z =  0.725474 angstrom
           Maximum rank =  0   Radius =  0.325 angstrom
                   Q00  =   0.078766

H          x =  0.810767  y = -0.435137  z =  1.931474 angstrom
           Maximum rank =  0   Radius =  0.325 angstrom
                   Q00  =   0.078629

H          x =  1.729767  y = -3.226137  z =  1.180474 angstrom
           Maximum rank =  0   Radius =  0.325 angstrom
                   Q00  =   0.077222

H          x =  0.788257  y = -2.869567  z =  2.652724 angstrom
           Maximum rank =  0   Radius =  0.325 angstrom
                   Q00  =   0.080387

H          x =  2.478707  y = -2.262309  z =  2.462164 angstrom
           Maximum rank =  0   Radius =  0.325 angstrom
                   Q00  =   0.081635

C          x = -1.188233  y =  1.257863  z = -0.598526 angstrom
           Maximum rank =  0   Radius =  0.650 angstrom
                   Q00  =  -0.091422

C          x =  0.141767  y =  2.021863  z = -0.695526 angstrom
           Maximum rank =  0   Radius =  0.650 angstrom
                   Q00  =  -0.246095

C          x = -1.549233  y =  0.528863  z = -1.904526 angstrom
           Maximum rank =  0   Radius =  0.650 angstrom
                   Q00  =  -0.238528

H          x = -1.128233  y =  0.516863  z =  0.199474 angstrom
           Maximum rank =  0   Radius =  0.325 angstrom
                   Q00  =   0.051351

H          x = -1.973233  y =  1.961863  z = -0.322526 angstrom
           Maximum rank =  0   Radius =  0.325 angstrom
                   Q00  =   0.047499

H          x =  0.915767  y =  1.358863  z = -1.080526 angstrom
           Maximum rank =  0   Radius =  0.325 angstrom
                   Q00  =   0.075889

H          x = -1.259233  y =  1.124863  z = -2.769526 angstrom
           Maximum rank =  0   Radius =  0.325 angstrom
                   Q00  =   0.075670

H          x = -0.992233  y = -0.408137  z = -1.949526 angstrom
           Maximum rank =  0   Radius =  0.325 angstrom
                   Q00  =   0.078172

H          x =  0.441807  y =  2.388834  z =  0.297104 angstrom
           Maximum rank =  0   Radius =  0.325 angstrom
                   Q00  =   0.084399

H          x =  0.041467  y =  2.863263  z = -1.396936 angstrom
           Maximum rank =  0   Radius =  0.325 angstrom
                   Q00  =   0.077554

H          x = -2.625713  y =  0.311710  z = -1.968096 angstrom
           Maximum rank =  0   Radius =  0.325 angstrom
                   Q00  =   0.084200

Total multipoles referred to origin at
           x =   0.000000,  y =    0.000000,  z =    0.000000 angstrom
                   Q00  =  -0.000000

Finished at 2:4:56 on 28 Apr 2020

  DMA results are available in the Python driver through the
	  variable('DMA DISTRIBUTED MULTIPOLES')
  and
	  variable('DMA TOTAL MULTIPOLES')
  commands.

    Psi4 stopped on: Tuesday, 28 April 2020 02:04AM
    Psi4 wall time for execution: 0:00:19.22

*** Psi4 exiting successfully. Buy a developer a beer!
