                               Psi4 1.3.2 release

  ==> Input File <==

--------------------------------------------------------------------------
import numpy as np
set {scf_type pk
basis cc-pvdz
d_convergence 10
gdma_switch   0
gdma_limit    0
gdma_origin   [ 0.0,  0.0,  0.0 ]
}
molecule test {
    units Angstrom
    0 1
    --
    0 1
    C               -2.417025668475441    -0.800745303104681    -1.717096546879668
    C                0.930974331524560    -1.316745303104681    -0.060096546879668
    C                0.548974331524560    -1.469745303104681     1.247903453120332
    C               -0.036025668475440    -1.094745303104681    -1.005096546879667
    C               -1.381025668475441    -1.030745303104681    -0.664096546879667
    C               -0.792025668475440    -1.436745303104682     1.596903453120332
    C               -1.759025668475440    -1.202745303104681     0.649903453120332
    H                1.975974331524560    -1.367745303104681    -0.339096546879668
    H                1.296974331524560    -1.647745303104681     2.008903453120332
    H                0.260974331524560    -0.980745303104681    -2.037096546879668
    H               -1.077025668475440    -1.586745303104681     2.628903453120333
    H               -3.259025668475441    -1.446745303104681    -1.521096546879668
    H               -2.002025668475441    -1.102745303104681    -2.681096546879667
    H               -2.802025668475440    -1.172745303104682     0.933903453120333
    H               -2.744565668475441     0.247232096895319    -1.783896546879668
    C                2.048974331524560     2.242254696895318     0.005903453120332
    C                1.106974331524560     2.408254696895319    -1.173096546879668
    C                1.462974331524560     2.781254696895318     1.313903453120332
    H                2.245974331524560     1.177254696895319     0.133903453120332
    H                3.000974331524560     2.736254696895318    -0.201096546879668
    H                0.149974331524560     1.951254696895319    -0.913096546879668
    H                1.452974331524560     3.872254696895319     1.285903453120333
    H                0.431974331524560     2.437254696895319     1.400903453120332
    H                1.511484331524560     1.914103696895319    -2.068744546879667
    H                0.970204331524560     3.478495696895318    -1.387289546879668
    H                1.995594331524559     2.450788696895319     2.217846453120333

}
e, wfn = energy('scf', return_wfn=True)
gdma(wfn)
dmavals = variable('DMA DISTRIBUTED MULTIPOLES')
charges = np.array(dmavals)
print(charges)
np.save('SSI-080PHE-085LYS-1-dimer.npy', np.array(charges))--------------------------------------------------------------------------

*** tstart() called on ds3
*** at Tue Apr 28 10:30:58 2020

   => Loading Basis Set <=

    Name: CC-PVDZ
    Role: ORBITAL
    Keyword: BASIS
    atoms 1-7, 16-18  entry C          line   138 file /theoryfs2/ds/metcalf/miniconda2/envs/tf2gpu/share/psi4/basis/cc-pvdz.gbs
    atoms 8-15, 19-26 entry H          line    22 file /theoryfs2/ds/metcalf/miniconda2/envs/tf2gpu/share/psi4/basis/cc-pvdz.gbs

         ---------------------------------------------------------
                                   SCF
               by Justin Turney, Rob Parrish, Andy Simmonett
                          and Daniel G. A. Smith
                              RHF Reference
                        1 Threads,    500 MiB Core
         ---------------------------------------------------------

  ==> Geometry <==

    Molecular point group: c1
    Full point group: C1

    Geometry (in Angstrom), charge = 0, multiplicity = 1:

       Center              X                  Y                   Z               Mass
    ------------   -----------------  -----------------  -----------------  -----------------
         C           -2.417025668475    -0.800745303105    -1.717096546880    12.000000000000
         C            0.930974331525    -1.316745303105    -0.060096546880    12.000000000000
         C            0.548974331525    -1.469745303105     1.247903453120    12.000000000000
         C           -0.036025668475    -1.094745303105    -1.005096546880    12.000000000000
         C           -1.381025668475    -1.030745303105    -0.664096546880    12.000000000000
         C           -0.792025668475    -1.436745303105     1.596903453120    12.000000000000
         C           -1.759025668475    -1.202745303105     0.649903453120    12.000000000000
         H            1.975974331525    -1.367745303105    -0.339096546880     1.007825032230
         H            1.296974331525    -1.647745303105     2.008903453120     1.007825032230
         H            0.260974331525    -0.980745303105    -2.037096546880     1.007825032230
         H           -1.077025668475    -1.586745303105     2.628903453120     1.007825032230
         H           -3.259025668475    -1.446745303105    -1.521096546880     1.007825032230
         H           -2.002025668475    -1.102745303105    -2.681096546880     1.007825032230
         H           -2.802025668475    -1.172745303105     0.933903453120     1.007825032230
         H           -2.744565668475     0.247232096895    -1.783896546880     1.007825032230
         C            2.048974331525     2.242254696895     0.005903453120    12.000000000000
         C            1.106974331525     2.408254696895    -1.173096546880    12.000000000000
         C            1.462974331525     2.781254696895     1.313903453120    12.000000000000
         H            2.245974331525     1.177254696895     0.133903453120     1.007825032230
         H            3.000974331525     2.736254696895    -0.201096546880     1.007825032230
         H            0.149974331525     1.951254696895    -0.913096546880     1.007825032230
         H            1.452974331525     3.872254696895     1.285903453120     1.007825032230
         H            0.431974331525     2.437254696895     1.400903453120     1.007825032230
         H            1.511484331525     1.914103696895    -2.068744546880     1.007825032230
         H            0.970204331525     3.478495696895    -1.387289546880     1.007825032230
         H            1.995594331525     2.450788696895     2.217846453120     1.007825032230

  Running in c1 symmetry.

  Rotational constants: A =      0.05395  B =      0.02442  C =      0.02075 [cm^-1]
  Rotational constants: A =   1617.37800  B =    732.11110  C =    621.95632 [MHz]
  Nuclear repulsion =  501.523353087760086

  Charge       = 0
  Multiplicity = 1
  Electrons    = 76
  Nalpha       = 38
  Nbeta        = 38

  ==> Algorithm <==

  SCF Algorithm Type is PK.
  DIIS enabled.
  MOM disabled.
  Fractional occupation disabled.
  Guess Type is SAD.
  Energy threshold   = 1.00e-06
  Density threshold  = 1.00e-10
  Integral threshold = 0.00e+00

  ==> Primary Basis <==

  Basis Set: CC-PVDZ
    Blend: CC-PVDZ
    Number of shells: 108
    Number of basis function: 220
    Number of Cartesian functions: 230
    Spherical Harmonics?: true
    Max angular momentum: 2

  ==> Pre-Iterations <==

   -------------------------------------------------------
    Irrep   Nso     Nmo     Nalpha   Nbeta   Ndocc  Nsocc
   -------------------------------------------------------
     A        220     220       0       0       0       0
   -------------------------------------------------------
    Total     220     220      38      38      38       0
   -------------------------------------------------------

  ==> Integral Setup <==

  Using integral reordering PK algorithm.
  Sizing the integral batches needed.
  Building batch lookup table.
   Calculation information:
      Number of atoms:                  26
      Number of AO shells:             108
      Number of primitives:            300
      Number of atomic orbitals:       230
      Number of basis functions:       220

      Integral cutoff                 1.00e-12
      Number of threads:                 1

	Batch   1 pq = [       0,    9405] index = [             0,44231715] size =     44231715
	Batch   2 pq = [    9405,   13301] index = [      44231715,88464951] size =     44233236
	Batch   3 pq = [   13301,   16290] index = [      88464951,132690195] size =     44225244
	Batch   4 pq = [   16290,   18810] index = [     132690195,176917455] size =     44227260
	Batch   5 pq = [   18810,   21030] index = [     176917455,221140965] size =     44223510
	Batch   6 pq = [   21030,   23037] index = [     221140965,265363203] size =     44222238
	Batch   7 pq = [   23037,   24310] index = [     265363203,295500205] size =     30137002
  Task number: 27
  Buffer size: 11059200
  Buffer per thread: 2
  We computed 17095157 shell quartets total.
  Whereas there are 17325441 unique shell quartets.

  ==> DiskJK: Disk-Based J/K Matrices <==

    J tasked:                  Yes
    K tasked:                  Yes
    wK tasked:                  No
    Memory [MiB]:              375
    Schwarz Cutoff:          1E-12

    OpenMP threads:              1

  Minimum eigenvalue in the overlap matrix is 2.8605156823E-04.
  Using Symmetric Orthogonalization.

  SCF Guess: Superposition of Atomic Densities via on-the-fly atomic UHF.

  ==> Iterations <==

                        Total Energy        Delta E     RMS |[F,P]|

   @RHF iter SAD:  -387.07925102369387   -3.87079e+02   0.00000e+00
   @RHF iter   1:  -387.76242296423948   -6.83172e-01   2.80674e-03 DIIS
   @RHF iter   2:  -387.98609471681254   -2.23672e-01   1.21083e-03 DIIS
   @RHF iter   3:  -388.02419790737957   -3.81032e-02   2.55544e-04 DIIS
   @RHF iter   4:  -388.02715813928046   -2.96023e-03   5.38977e-05 DIIS
   @RHF iter   5:  -388.02725437384095   -9.62346e-05   1.56073e-05 DIIS
   @RHF iter   6:  -388.02726218274762   -7.80891e-06   4.78160e-06 DIIS
   @RHF iter   7:  -388.02726296753383   -7.84786e-07   1.21090e-06 DIIS
   @RHF iter   8:  -388.02726302184936   -5.43155e-08   2.51469e-07 DIIS
   @RHF iter   9:  -388.02726302578725   -3.93788e-09   8.76469e-08 DIIS
   @RHF iter  10:  -388.02726302623262   -4.45368e-10   3.63591e-08 DIIS
   @RHF iter  11:  -388.02726302633266   -1.00044e-10   1.36748e-08 DIIS
   @RHF iter  12:  -388.02726302635347   -2.08047e-11   6.76226e-09 DIIS
   @RHF iter  13:  -388.02726302636052   -7.04858e-12   2.96832e-09 DIIS
   @RHF iter  14:  -388.02726302636114   -6.25278e-13   8.56370e-10 DIIS
   @RHF iter  15:  -388.02726302636040    7.38964e-13   2.58400e-10 DIIS
   @RHF iter  16:  -388.02726302636336   -2.95586e-12   7.22714e-11 DIIS
  Energy and wave function converged.

  ==> Post-Iterations <==

    Orbital Energies [Eh]
    ---------------------

    Doubly Occupied:

       1A    -11.236832     2A    -11.232430     3A    -11.231257
       4A    -11.227770     5A    -11.227311     6A    -11.226760
       7A    -11.226503     8A    -11.212019     9A    -11.210713
      10A    -11.209537    11A     -1.162947    12A     -1.049596
      13A     -1.047819    14A     -1.019584    15A     -0.933313
      16A     -0.916929    17A     -0.827481    18A     -0.799172
      19A     -0.789626    20A     -0.695059    21A     -0.637663
      22A     -0.628569    23A     -0.620981    24A     -0.591452
      25A     -0.587047    26A     -0.580890    27A     -0.562021
      28A     -0.536878    29A     -0.534321    30A     -0.524985
      31A     -0.493727    32A     -0.486092    33A     -0.482021
      34A     -0.469659    35A     -0.463574    36A     -0.456924
      37A     -0.338032    38A     -0.323017

    Virtual:

      39A      0.138236    40A      0.141847    41A      0.171749
      42A      0.194016    43A      0.201472    44A      0.208511
      45A      0.229228    46A      0.239702    47A      0.246239
      48A      0.251208    49A      0.263034    50A      0.268546
      51A      0.279547    52A      0.281925    53A      0.291750
      54A      0.310697    55A      0.320688    56A      0.339474
      57A      0.373003    58A      0.380290    59A      0.384036
      60A      0.434927    61A      0.458453    62A      0.466505
      63A      0.479873    64A      0.497680    65A      0.565178
      66A      0.572618    67A      0.596330    68A      0.605385
      69A      0.608717    70A      0.619332    71A      0.638346
      72A      0.649650    73A      0.688714    74A      0.692562
      75A      0.705242    76A      0.720913    77A      0.742941
      78A      0.747049    79A      0.757420    80A      0.763078
      81A      0.772293    82A      0.782157    83A      0.788555
      84A      0.810403    85A      0.830179    86A      0.846448
      87A      0.851639    88A      0.857716    89A      0.861332
      90A      0.874836    91A      0.882191    92A      0.884374
      93A      0.899405    94A      0.900858    95A      0.908273
      96A      0.917404    97A      0.921168    98A      0.930678
      99A      0.936377   100A      0.942341   101A      0.949291
     102A      0.969884   103A      0.981237   104A      0.996585
     105A      1.010779   106A      1.026868   107A      1.042859
     108A      1.060874   109A      1.125097   110A      1.132553
     111A      1.137886   112A      1.147238   113A      1.159745
     114A      1.169539   115A      1.192504   116A      1.226625
     117A      1.249483   118A      1.258465   119A      1.265383
     120A      1.271567   121A      1.306090   122A      1.317022
     123A      1.327003   124A      1.342173   125A      1.381568
     126A      1.409517   127A      1.484750   128A      1.506659
     129A      1.511024   130A      1.517453   131A      1.553621
     132A      1.568534   133A      1.599167   134A      1.621705
     135A      1.672243   136A      1.681065   137A      1.694442
     138A      1.701914   139A      1.714289   140A      1.744592
     141A      1.759243   142A      1.772929   143A      1.806209
     144A      1.821461   145A      1.845397   146A      1.868949
     147A      1.881087   148A      1.893102   149A      1.900271
     150A      1.907609   151A      1.917821   152A      1.922440
     153A      1.932538   154A      1.941656   155A      1.943250
     156A      1.954676   157A      1.962235   158A      1.966811
     159A      1.974340   160A      1.978112   161A      1.989714
     162A      1.995360   163A      1.999780   164A      2.006324
     165A      2.025748   166A      2.035484   167A      2.048231
     168A      2.063532   169A      2.072275   170A      2.085522
     171A      2.119594   172A      2.124064   173A      2.159874
     174A      2.173479   175A      2.175960   176A      2.181465
     177A      2.196898   178A      2.198969   179A      2.262770
     180A      2.285890   181A      2.292231   182A      2.308290
     183A      2.309834   184A      2.318336   185A      2.321720
     186A      2.330089   187A      2.341633   188A      2.354915
     189A      2.474476   190A      2.478976   191A      2.502405
     192A      2.522849   193A      2.545634   194A      2.558017
     195A      2.580692   196A      2.611323   197A      2.637199
     198A      2.651596   199A      2.742961   200A      2.762320
     201A      2.772473   202A      2.778315   203A      2.784458
     204A      2.802846   205A      2.805722   206A      2.814001
     207A      2.831495   208A      2.860814   209A      2.895038
     210A      2.927878   211A      2.973009   212A      2.982219
     213A      3.013914   214A      3.032839   215A      3.046434
     216A      3.085750   217A      3.176008   218A      3.233384
     219A      3.331014   220A      4.022186

    Final Occupation by Irrep:
              A
    DOCC [    38 ]

  @RHF Final Energy:  -388.02726302636336

   => Energetics <=

    Nuclear Repulsion Energy =            501.5233530877600856
    One-Electron Energy =               -1517.5002157457518024
    Two-Electron Energy =                 627.9495996316283026
    Total Energy =                       -388.0272630263633573

Computation Completed

Properties will be evaluated at   0.000000,   0.000000,   0.000000 [a0]

Properties computed using the SCF density matrix

  Nuclear Dipole Moment: [e a0]
     X:     3.1953      Y:    10.2744      Z:    -2.1770

  Electronic Dipole Moment: [e a0]
     X:    -3.3201      Y:   -10.3727      Z:     2.1084

  Dipole Moment: [e a0]
     X:    -0.1248      Y:    -0.0984      Z:    -0.0686     Total:     0.1731

  Dipole Moment: [D]
     X:    -0.3173      Y:    -0.2500      Z:    -0.1744     Total:     0.4400

*** tstop() called on ds3 at Tue Apr 28 10:34:44 2020
Module time:
	user time   =     116.25 seconds =       1.94 minutes
	system time =      39.99 seconds =       0.67 minutes
	total time  =        226 seconds =       3.77 minutes
Total time:
	user time   =     116.25 seconds =       1.94 minutes
	system time =      39.99 seconds =       0.67 minutes
	total time  =        226 seconds =       3.77 minutes
                                     G D M A

                                 by Anthony Stone

                           version 2.2.06, 22 June 2011

               Distributed Multipoles from Gaussian wavefunctions

Starting at 10:34:44 on 28 Apr 2020

Using SCF density matrix from file ./SSI/SSI-080PHE-085LYS-1-dimer.test.24192.fchk

                         Distributed Multipole Analysis

Standard DMA

Positions and radii in angstrom
Multipole moments in atomic units, ea_0^k for rank k

C          x = -2.417026  y = -0.800745  z = -1.717097 angstrom
           Maximum rank =  0   Radius =  0.650 angstrom
                   Q00  =  -0.194415

C          x =  0.930974  y = -1.316745  z = -0.060097 angstrom
           Maximum rank =  0   Radius =  0.650 angstrom
                   Q00  =  -0.072385

C          x =  0.548974  y = -1.469745  z =  1.247903 angstrom
           Maximum rank =  0   Radius =  0.650 angstrom
                   Q00  =  -0.089490

C          x = -0.036026  y = -1.094745  z = -1.005097 angstrom
           Maximum rank =  0   Radius =  0.650 angstrom
                   Q00  =   0.017842

C          x = -1.381026  y = -1.030745  z = -0.664097 angstrom
           Maximum rank =  0   Radius =  0.650 angstrom
                   Q00  =  -0.104204

C          x = -0.792026  y = -1.436745  z =  1.596903 angstrom
           Maximum rank =  0   Radius =  0.650 angstrom
                   Q00  =  -0.056765

C          x = -1.759026  y = -1.202745  z =  0.649903 angstrom
           Maximum rank =  0   Radius =  0.650 angstrom
                   Q00  =  -0.089210

H          x =  1.975974  y = -1.367745  z = -0.339097 angstrom
           Maximum rank =  0   Radius =  0.325 angstrom
                   Q00  =   0.064720

H          x =  1.296974  y = -1.647745  z =  2.008903 angstrom
           Maximum rank =  0   Radius =  0.325 angstrom
                   Q00  =   0.057646

H          x =  0.260974  y = -0.980745  z = -2.037097 angstrom
           Maximum rank =  0   Radius =  0.325 angstrom
                   Q00  =   0.053128

H          x = -1.077026  y = -1.586745  z =  2.628903 angstrom
           Maximum rank =  0   Radius =  0.325 angstrom
                   Q00  =   0.061109

H          x = -3.259026  y = -1.446745  z = -1.521097 angstrom
           Maximum rank =  0   Radius =  0.325 angstrom
                   Q00  =   0.099716

H          x = -2.002026  y = -1.102745  z = -2.681097 angstrom
           Maximum rank =  0   Radius =  0.325 angstrom
                   Q00  =   0.094829

H          x = -2.802026  y = -1.172745  z =  0.933903 angstrom
           Maximum rank =  0   Radius =  0.325 angstrom
                   Q00  =   0.055090

H          x = -2.744566  y =  0.247232  z = -1.783897 angstrom
           Maximum rank =  0   Radius =  0.325 angstrom
                   Q00  =   0.103514

C          x =  2.048974  y =  2.242255  z =  0.005903 angstrom
           Maximum rank =  0   Radius =  0.650 angstrom
                   Q00  =  -0.080725

C          x =  1.106974  y =  2.408255  z = -1.173097 angstrom
           Maximum rank =  0   Radius =  0.650 angstrom
                   Q00  =  -0.233682

C          x =  1.462974  y =  2.781255  z =  1.313903 angstrom
           Maximum rank =  0   Radius =  0.650 angstrom
                   Q00  =  -0.245409

H          x =  2.245974  y =  1.177255  z =  0.133903 angstrom
           Maximum rank =  0   Radius =  0.325 angstrom
                   Q00  =   0.048855

H          x =  3.000974  y =  2.736255  z = -0.201097 angstrom
           Maximum rank =  0   Radius =  0.325 angstrom
                   Q00  =   0.040895

H          x =  0.149974  y =  1.951255  z = -0.913097 angstrom
           Maximum rank =  0   Radius =  0.325 angstrom
                   Q00  =   0.085308

H          x =  1.452974  y =  3.872255  z =  1.285903 angstrom
           Maximum rank =  0   Radius =  0.325 angstrom
                   Q00  =   0.072763

H          x =  0.431974  y =  2.437255  z =  1.400903 angstrom
           Maximum rank =  0   Radius =  0.325 angstrom
                   Q00  =   0.078407

H          x =  1.511484  y =  1.914104  z = -2.068745 angstrom
           Maximum rank =  0   Radius =  0.325 angstrom
                   Q00  =   0.078436

H          x =  0.970204  y =  3.478496  z = -1.387290 angstrom
           Maximum rank =  0   Radius =  0.325 angstrom
                   Q00  =   0.070300

H          x =  1.995594  y =  2.450789  z =  2.217846 angstrom
           Maximum rank =  0   Radius =  0.325 angstrom
                   Q00  =   0.083728

Total multipoles referred to origin at
           x =   0.000000,  y =    0.000000,  z =    0.000000 angstrom
                   Q00  =  -0.000000

Finished at 10:34:44 on 28 Apr 2020

  DMA results are available in the Python driver through the
	  variable('DMA DISTRIBUTED MULTIPOLES')
  and
	  variable('DMA TOTAL MULTIPOLES')
  commands.

    Psi4 stopped on: Tuesday, 28 April 2020 10:34AM
    Psi4 wall time for execution: 0:03:46.29

*** Psi4 exiting successfully. Buy a developer a beer!
