                               Psi4 1.3.2 release

  ==> Input File <==

--------------------------------------------------------------------------
import numpy as np
set {scf_type pk
basis cc-pvdz
d_convergence 10
gdma_switch   0
gdma_limit    0
gdma_origin   [ 0.0,  0.0,  0.0 ]
}
molecule test {
    units Angstrom
    1 1
    --
    1 1
    C                0.297861986591394     2.561723976325504     0.843513786704776
    O                0.850861986591394     1.366723976325504     0.297513786704776
    H                1.812861986591394     1.460723976325504     0.318513786704776
    H                0.686861986591394     2.689723976325503     1.853513786704776
    H                0.584731986591394     3.424490976325504     0.224373786704776
    H               -0.797488013408606     2.474095876325504     0.893793786704776
    C               -1.263138013408606    -2.233276023674496    -0.914486213295224
    N               -0.029138013408606    -1.711276023674496    -0.261486213295224
    H                0.570861986591394    -2.473276023674496     0.035513786704776
    H                0.510861986591394    -1.126276023674496    -0.888486213295224
    H               -0.243138013408606    -1.159276023674496     0.561513786704776
    H               -1.818138013408606    -2.872276023674496    -0.218486213295224
    H               -1.000138013408606    -2.837276023674496    -1.789486213295224
    H               -1.912845013408606    -1.405261023674496    -1.234286213295223

}
e, wfn = energy('scf', return_wfn=True)
gdma(wfn)
dmavals = variable('DMA DISTRIBUTED MULTIPOLES')
charges = np.array(dmavals)
print(charges)
np.save('SSI-004THR-132LYS-1-dimer.npy', np.array(charges))--------------------------------------------------------------------------

*** tstart() called on ds3
*** at Tue Apr 28 02:53:19 2020

   => Loading Basis Set <=

    Name: CC-PVDZ
    Role: ORBITAL
    Keyword: BASIS
    atoms 1, 7      entry C          line   138 file /theoryfs2/ds/metcalf/miniconda2/envs/tf2gpu/share/psi4/basis/cc-pvdz.gbs
    atoms 2         entry O          line   198 file /theoryfs2/ds/metcalf/miniconda2/envs/tf2gpu/share/psi4/basis/cc-pvdz.gbs
    atoms 3-6, 9-14 entry H          line    22 file /theoryfs2/ds/metcalf/miniconda2/envs/tf2gpu/share/psi4/basis/cc-pvdz.gbs
    atoms 8         entry N          line   168 file /theoryfs2/ds/metcalf/miniconda2/envs/tf2gpu/share/psi4/basis/cc-pvdz.gbs

         ---------------------------------------------------------
                                   SCF
               by Justin Turney, Rob Parrish, Andy Simmonett
                          and Daniel G. A. Smith
                              RHF Reference
                        1 Threads,    500 MiB Core
         ---------------------------------------------------------

  ==> Geometry <==

    Molecular point group: c1
    Full point group: C1

    Geometry (in Angstrom), charge = 1, multiplicity = 1:

       Center              X                  Y                   Z               Mass
    ------------   -----------------  -----------------  -----------------  -----------------
         C            0.297861986591     2.561723976326     0.843513786705    12.000000000000
         O            0.850861986591     1.366723976326     0.297513786705    15.994914619570
         H            1.812861986591     1.460723976326     0.318513786705     1.007825032230
         H            0.686861986591     2.689723976326     1.853513786705     1.007825032230
         H            0.584731986591     3.424490976326     0.224373786705     1.007825032230
         H           -0.797488013409     2.474095876326     0.893793786705     1.007825032230
         C           -1.263138013409    -2.233276023674    -0.914486213295    12.000000000000
         N           -0.029138013409    -1.711276023674    -0.261486213295    14.003074004430
         H            0.570861986591    -2.473276023674     0.035513786705     1.007825032230
         H            0.510861986591    -1.126276023674    -0.888486213295     1.007825032230
         H           -0.243138013409    -1.159276023674     0.561513786705     1.007825032230
         H           -1.818138013409    -2.872276023674    -0.218486213295     1.007825032230
         H           -1.000138013409    -2.837276023674    -1.789486213295     1.007825032230
         H           -1.912845013409    -1.405261023674    -1.234286213295     1.007825032230

  Running in c1 symmetry.

  Rotational constants: A =      0.60485  B =      0.05283  C =      0.05041 [cm^-1]
  Rotational constants: A =  18132.90131  B =   1583.77112  C =   1511.37538 [MHz]
  Nuclear repulsion =  130.723725207435365

  Charge       = 1
  Multiplicity = 1
  Electrons    = 36
  Nalpha       = 18
  Nbeta        = 18

  ==> Algorithm <==

  SCF Algorithm Type is PK.
  DIIS enabled.
  MOM disabled.
  Fractional occupation disabled.
  Guess Type is SAD.
  Energy threshold   = 1.00e-06
  Density threshold  = 1.00e-10
  Integral threshold = 0.00e+00

  ==> Primary Basis <==

  Basis Set: CC-PVDZ
    Blend: CC-PVDZ
    Number of shells: 54
    Number of basis function: 106
    Number of Cartesian functions: 110
    Spherical Harmonics?: true
    Max angular momentum: 2

  ==> Pre-Iterations <==

   -------------------------------------------------------
    Irrep   Nso     Nmo     Nalpha   Nbeta   Ndocc  Nsocc
   -------------------------------------------------------
     A        106     106       0       0       0       0
   -------------------------------------------------------
    Total     106     106      18      18      18       0
   -------------------------------------------------------

  ==> Integral Setup <==

  Using in-core PK algorithm.
   Calculation information:
      Number of atoms:                  14
      Number of AO shells:              54
      Number of primitives:            138
      Number of atomic orbitals:       110
      Number of basis functions:       106

      Integral cutoff                 1.00e-12
      Number of threads:                 1

  Performing in-core PK
  Using 32165912 doubles for integral storage.
  We computed 847022 shell quartets total.
  Whereas there are 1103355 unique shell quartets.

  ==> DiskJK: Disk-Based J/K Matrices <==

    J tasked:                  Yes
    K tasked:                  Yes
    wK tasked:                  No
    Memory [MiB]:              375
    Schwarz Cutoff:          1E-12

    OpenMP threads:              1

  Minimum eigenvalue in the overlap matrix is 1.1240713605E-02.
  Using Symmetric Orthogonalization.

  SCF Guess: Superposition of Atomic Densities via on-the-fly atomic UHF.

  ==> Iterations <==

                        Total Energy        Delta E     RMS |[F,P]|

   @RHF iter SAD:  -209.86587800296417   -2.09866e+02   0.00000e+00
   @RHF iter   1:  -210.54148577991845   -6.75608e-01   4.12556e-03 DIIS
   @RHF iter   2:  -210.63980782411062   -9.83220e-02   1.79754e-03 DIIS
   @RHF iter   3:  -210.65441148665909   -1.46037e-02   5.04191e-04 DIIS
   @RHF iter   4:  -210.65618327409715   -1.77179e-03   9.73935e-05 DIIS
   @RHF iter   5:  -210.65625394414323   -7.06700e-05   2.66057e-05 DIIS
   @RHF iter   6:  -210.65625976275237   -5.81861e-06   5.09596e-06 DIIS
   @RHF iter   7:  -210.65626010316510   -3.40413e-07   1.21655e-06 DIIS
   @RHF iter   8:  -210.65626012403544   -2.08703e-08   3.32121e-07 DIIS
   @RHF iter   9:  -210.65626012503907   -1.00363e-09   9.32202e-08 DIIS
   @RHF iter  10:  -210.65626012511018   -7.11111e-11   1.72326e-08 DIIS
   @RHF iter  11:  -210.65626012511504   -4.86011e-12   4.76437e-09 DIIS
   @RHF iter  12:  -210.65626012511484    1.98952e-13   1.27268e-09 DIIS
   @RHF iter  13:  -210.65626012511530   -4.54747e-13   3.28604e-10 DIIS
   @RHF iter  14:  -210.65626012511433    9.66338e-13   9.72680e-11 DIIS
  Energy and wave function converged.

  ==> Post-Iterations <==

    Orbital Energies [Eh]
    ---------------------

    Doubly Occupied:

       1A    -20.691729     2A    -15.898695     3A    -11.483652
       4A    -11.396779     5A     -1.515152     6A     -1.486842
       7A     -1.159029     8A     -1.042135     9A     -0.970514
      10A     -0.969966    11A     -0.856396    12A     -0.813363
      13A     -0.759061    14A     -0.758081    15A     -0.741761
      16A     -0.720108    17A     -0.627792    18A     -0.575555

    Virtual:

      19A     -0.040062    20A      0.030446    21A      0.033084
      22A      0.035814    23A      0.078147    24A      0.087928
      25A      0.091420    26A      0.113550    27A      0.150564
      28A      0.161295    29A      0.163532    30A      0.237879
      31A      0.375611    32A      0.378726    33A      0.432522
      34A      0.510902    35A      0.513772    36A      0.524463
      37A      0.532360    38A      0.601550    39A      0.642797
      40A      0.662028    41A      0.663713    42A      0.691827
      43A      0.703156    44A      0.743057    45A      0.768707
      46A      0.770808    47A      0.782338    48A      0.790011
      49A      0.812285    50A      0.908447    51A      0.922733
      52A      1.004776    53A      1.026029    54A      1.042977
      55A      1.054193    56A      1.179061    57A      1.207070
      58A      1.266900    59A      1.273366    60A      1.346236
      61A      1.457107    62A      1.469098    63A      1.487697
      64A      1.536100    65A      1.552236    66A      1.604538
      67A      1.656520    68A      1.690102    69A      1.691839
      70A      1.727347    71A      1.729461    72A      1.737346
      73A      1.776372    74A      1.796111    75A      1.842451
      76A      1.898622    77A      1.931081    78A      1.933370
      79A      1.945034    80A      1.952494    81A      1.969678
      82A      2.040724    83A      2.137335    84A      2.160744
      85A      2.237793    86A      2.249720    87A      2.256708
      88A      2.262318    89A      2.364704    90A      2.379527
      91A      2.473026    92A      2.473880    93A      2.530748
      94A      2.629393    95A      2.631999    96A      2.652220
      97A      2.724883    98A      2.728575    99A      2.754913
     100A      3.082739   101A      3.092572   102A      3.160323
     103A      3.236226   104A      3.312724   105A      3.440896
     106A      3.941181

    Final Occupation by Irrep:
              A
    DOCC [    18 ]

  @RHF Final Energy:  -210.65626012511433

   => Energetics <=

    Nuclear Repulsion Energy =            130.7237252074353648
    One-Electron Energy =                -537.8267504755843902
    Two-Electron Energy =                 196.4467651430347246
    Total Energy =                       -210.6562601251143292

Computation Completed

Properties will be evaluated at   0.000000,   0.000000,   0.000000 [a0]

Properties computed using the SCF density matrix

  Nuclear Dipole Moment: [e a0]
     X:    -1.5010      Y:    -1.6990      Z:    -0.2261

  Electronic Dipole Moment: [e a0]
     X:     1.4996      Y:    -0.7680      Z:    -0.1101

  Dipole Moment: [e a0]
     X:    -0.0014      Y:    -2.4670      Z:    -0.3362     Total:     2.4898

  Dipole Moment: [D]
     X:    -0.0035      Y:    -6.2704      Z:    -0.8546     Total:     6.3284

*** tstop() called on ds3 at Tue Apr 28 02:53:25 2020
Module time:
	user time   =       4.98 seconds =       0.08 minutes
	system time =       0.11 seconds =       0.00 minutes
	total time  =          6 seconds =       0.10 minutes
Total time:
	user time   =       4.98 seconds =       0.08 minutes
	system time =       0.11 seconds =       0.00 minutes
	total time  =          6 seconds =       0.10 minutes
                                     G D M A

                                 by Anthony Stone

                           version 2.2.06, 22 June 2011

               Distributed Multipoles from Gaussian wavefunctions

Starting at 2:53:25 on 28 Apr 2020

Using SCF density matrix from file ./SSI/SSI-004THR-132LYS-1-dimer.test.14736.fchk

                         Distributed Multipole Analysis

Standard DMA

Positions and radii in angstrom
Multipole moments in atomic units, ea_0^k for rank k

C          x =  0.297862  y =  2.561724  z =  0.843514 angstrom
           Maximum rank =  0   Radius =  0.650 angstrom
                   Q00  =  -0.068040

O          x =  0.850862  y =  1.366724  z =  0.297514 angstrom
           Maximum rank =  0   Radius =  0.650 angstrom
                   Q00  =  -0.649609

H          x =  1.812862  y =  1.460724  z =  0.318514 angstrom
           Maximum rank =  0   Radius =  0.325 angstrom
                   Q00  =   0.406741

H          x =  0.686862  y =  2.689724  z =  1.853514 angstrom
           Maximum rank =  0   Radius =  0.325 angstrom
                   Q00  =   0.093090

H          x =  0.584732  y =  3.424491  z =  0.224374 angstrom
           Maximum rank =  0   Radius =  0.325 angstrom
                   Q00  =   0.102475

H          x = -0.797488  y =  2.474096  z =  0.893794 angstrom
           Maximum rank =  0   Radius =  0.325 angstrom
                   Q00  =   0.121519

C          x = -1.263138  y = -2.233276  z = -0.914486 angstrom
           Maximum rank =  0   Radius =  0.650 angstrom
                   Q00  =  -0.154694

N          x = -0.029138  y = -1.711276  z = -0.261486 angstrom
           Maximum rank =  0   Radius =  0.650 angstrom
                   Q00  =  -0.133198

H          x =  0.570862  y = -2.473276  z =  0.035514 angstrom
           Maximum rank =  0   Radius =  0.325 angstrom
                   Q00  =   0.251922

H          x =  0.510862  y = -1.126276  z = -0.888486 angstrom
           Maximum rank =  0   Radius =  0.325 angstrom
                   Q00  =   0.272393

H          x = -0.243138  y = -1.159276  z =  0.561514 angstrom
           Maximum rank =  0   Radius =  0.325 angstrom
                   Q00  =   0.271637

H          x = -1.818138  y = -2.872276  z = -0.218486 angstrom
           Maximum rank =  0   Radius =  0.325 angstrom
                   Q00  =   0.159897

H          x = -1.000138  y = -2.837276  z = -1.789486 angstrom
           Maximum rank =  0   Radius =  0.325 angstrom
                   Q00  =   0.160063

H          x = -1.912845  y = -1.405261  z = -1.234286 angstrom
           Maximum rank =  0   Radius =  0.325 angstrom
                   Q00  =   0.165805

Total multipoles referred to origin at
           x =   0.000000,  y =    0.000000,  z =    0.000000 angstrom
                   Q00  =   1.000000

Finished at 2:53:25 on 28 Apr 2020

  DMA results are available in the Python driver through the
	  variable('DMA DISTRIBUTED MULTIPOLES')
  and
	  variable('DMA TOTAL MULTIPOLES')
  commands.

    Psi4 stopped on: Tuesday, 28 April 2020 02:53AM
    Psi4 wall time for execution: 0:00:05.75

*** Psi4 exiting successfully. Buy a developer a beer!
