                               Psi4 1.3.2 release

  ==> Input File <==

--------------------------------------------------------------------------
import numpy as np
set {scf_type pk
basis cc-pvdz
d_convergence 10
gdma_switch   0
gdma_limit    0
gdma_origin   [ 0.0,  0.0,  0.0 ]
}
molecule test {
    units Angstrom
    0 1
    --
    0 1
    C                0.198246032073442    -2.718649861856354    -1.995029773546329
    C                1.278246032073442    -3.485649861856354    -2.754029773546328
    C               -1.222753967926558    -3.184649861856354    -2.312029773546329
    H                0.374246032073442    -2.826649861856354    -0.923029773546329
    H                0.260246032073442    -1.656649861856354    -2.232029773546329
    H                0.973246032073442    -3.573649861856354    -3.799029773546328
    H               -1.394753967926558    -3.064649861856354    -3.382029773546328
    H               -1.343753967926558    -4.236649861856353    -2.050029773546329
    H                1.439126032073442    -4.473509861856354    -2.297688773546329
    H                2.228616032073442    -2.931809861856354    -2.746055773546329
    H               -1.949743967926558    -2.577859861856354    -1.752305773546329
    C               -1.722753967926558     3.047350138143646    -0.706029773546329
    C                0.502246032073442     0.119350138143646     0.412970226453671
    C                0.750246032073442     0.441350138143646     1.741970226453671
    C               -0.306753967926558     0.955350138143646    -0.373029773546329
    C               -0.863753967926558     2.130350138143646     0.152970226453671
    C                0.213246032073442     1.614350138143646     2.279970226453671
    C               -0.599753967926558     2.442350138143646     1.494970226453671
    O                1.546246032073442    -0.375649861856354     2.483970226453671
    H                0.948246032073442    -0.771649861856354    -0.001029773546329
    H               -0.490753967926558     0.691350138143646    -1.406029773546329
    H                0.413246032073442     1.871350138143646     3.310970226453672
    H                2.043246032073442     0.154350138143646     3.146970226453671
    H               -2.286753967926558     3.717350138143646    -0.054029773546329
    H               -2.454753967926558     2.434350138143646    -1.234029773546329
    H               -1.015753967926558     3.342350138143646     1.929970226453671
    H               -1.166763967926558     3.652650138143646    -1.437110773546329

}
e, wfn = energy('scf', return_wfn=True)
gdma(wfn)
dmavals = variable('DMA DISTRIBUTED MULTIPOLES')
charges = np.array(dmavals)
print(charges)
np.save('SSI-024LYS-057TYR-1-dimer.npy', np.array(charges))--------------------------------------------------------------------------

*** tstart() called on ds3
*** at Tue Apr 28 21:55:28 2020

   => Loading Basis Set <=

    Name: CC-PVDZ
    Role: ORBITAL
    Keyword: BASIS
    atoms 1-3, 12-18  entry C          line   138 file /theoryfs2/ds/metcalf/miniconda2/envs/tf2gpu/share/psi4/basis/cc-pvdz.gbs
    atoms 4-11, 20-27 entry H          line    22 file /theoryfs2/ds/metcalf/miniconda2/envs/tf2gpu/share/psi4/basis/cc-pvdz.gbs
    atoms 19          entry O          line   198 file /theoryfs2/ds/metcalf/miniconda2/envs/tf2gpu/share/psi4/basis/cc-pvdz.gbs

         ---------------------------------------------------------
                                   SCF
               by Justin Turney, Rob Parrish, Andy Simmonett
                          and Daniel G. A. Smith
                              RHF Reference
                        1 Threads,    500 MiB Core
         ---------------------------------------------------------

  ==> Geometry <==

    Molecular point group: c1
    Full point group: C1

    Geometry (in Angstrom), charge = 0, multiplicity = 1:

       Center              X                  Y                   Z               Mass
    ------------   -----------------  -----------------  -----------------  -----------------
         C            0.198246032073    -2.718649861856    -1.995029773546    12.000000000000
         C            1.278246032073    -3.485649861856    -2.754029773546    12.000000000000
         C           -1.222753967927    -3.184649861856    -2.312029773546    12.000000000000
         H            0.374246032073    -2.826649861856    -0.923029773546     1.007825032230
         H            0.260246032073    -1.656649861856    -2.232029773546     1.007825032230
         H            0.973246032073    -3.573649861856    -3.799029773546     1.007825032230
         H           -1.394753967927    -3.064649861856    -3.382029773546     1.007825032230
         H           -1.343753967927    -4.236649861856    -2.050029773546     1.007825032230
         H            1.439126032073    -4.473509861856    -2.297688773546     1.007825032230
         H            2.228616032073    -2.931809861856    -2.746055773546     1.007825032230
         H           -1.949743967927    -2.577859861856    -1.752305773546     1.007825032230
         C           -1.722753967927     3.047350138144    -0.706029773546    12.000000000000
         C            0.502246032073     0.119350138144     0.412970226454    12.000000000000
         C            0.750246032073     0.441350138144     1.741970226454    12.000000000000
         C           -0.306753967927     0.955350138144    -0.373029773546    12.000000000000
         C           -0.863753967927     2.130350138144     0.152970226454    12.000000000000
         C            0.213246032073     1.614350138144     2.279970226454    12.000000000000
         C           -0.599753967927     2.442350138144     1.494970226454    12.000000000000
         O            1.546246032073    -0.375649861856     2.483970226454    15.994914619570
         H            0.948246032073    -0.771649861856    -0.001029773546     1.007825032230
         H           -0.490753967927     0.691350138144    -1.406029773546     1.007825032230
         H            0.413246032073     1.871350138144     3.310970226454     1.007825032230
         H            2.043246032073     0.154350138144     3.146970226454     1.007825032230
         H           -2.286753967927     3.717350138144    -0.054029773546     1.007825032230
         H           -2.454753967927     2.434350138144    -1.234029773546     1.007825032230
         H           -1.015753967927     3.342350138144     1.929970226454     1.007825032230
         H           -1.166763967927     3.652650138144    -1.437110773546     1.007825032230

  Running in c1 symmetry.

  Rotational constants: A =      0.04185  B =      0.01519  C =      0.01184 [cm^-1]
  Rotational constants: A =   1254.75720  B =    455.28121  C =    354.98618 [MHz]
  Nuclear repulsion =  563.958200148533933

  Charge       = 0
  Multiplicity = 1
  Electrons    = 84
  Nalpha       = 42
  Nbeta        = 42

  ==> Algorithm <==

  SCF Algorithm Type is PK.
  DIIS enabled.
  MOM disabled.
  Fractional occupation disabled.
  Guess Type is SAD.
  Energy threshold   = 1.00e-06
  Density threshold  = 1.00e-10
  Integral threshold = 0.00e+00

  ==> Primary Basis <==

  Basis Set: CC-PVDZ
    Blend: CC-PVDZ
    Number of shells: 114
    Number of basis function: 234
    Number of Cartesian functions: 245
    Spherical Harmonics?: true
    Max angular momentum: 2

  ==> Pre-Iterations <==

   -------------------------------------------------------
    Irrep   Nso     Nmo     Nalpha   Nbeta   Ndocc  Nsocc
   -------------------------------------------------------
     A        234     234       0       0       0       0
   -------------------------------------------------------
    Total     234     234      42      42      42       0
   -------------------------------------------------------

  ==> Integral Setup <==

  Using integral reordering PK algorithm.
  Sizing the integral batches needed.
  Building batch lookup table.
   Calculation information:
      Number of atoms:                  27
      Number of AO shells:             114
      Number of primitives:            322
      Number of atomic orbitals:       245
      Number of basis functions:       234

      Integral cutoff                 1.00e-12
      Number of threads:                 1

	Batch   1 pq = [       0,    9405] index = [             0,44231715] size =     44231715
	Batch   2 pq = [    9405,   13301] index = [      44231715,88464951] size =     44233236
	Batch   3 pq = [   13301,   16290] index = [      88464951,132690195] size =     44225244
	Batch   4 pq = [   16290,   18810] index = [     132690195,176917455] size =     44227260
	Batch   5 pq = [   18810,   21030] index = [     176917455,221140965] size =     44223510
	Batch   6 pq = [   21030,   23037] index = [     221140965,265363203] size =     44222238
	Batch   7 pq = [   23037,   24883] index = [     265363203,309594286] size =     44231083
	Batch   8 pq = [   24883,   26601] index = [     309594286,353819901] size =     44225615
	Batch   9 pq = [   26601,   27495] index = [     353819901,378001260] size =     24181359
  Task number: 35
  Buffer size: 11059200
  Buffer per thread: 2
  We computed 17379583 shell quartets total.
  Whereas there are 21487290 unique shell quartets.

  ==> DiskJK: Disk-Based J/K Matrices <==

    J tasked:                  Yes
    K tasked:                  Yes
    wK tasked:                  No
    Memory [MiB]:              375
    Schwarz Cutoff:          1E-12

    OpenMP threads:              1

  Minimum eigenvalue in the overlap matrix is 3.3066589589E-04.
  Using Symmetric Orthogonalization.

  SCF Guess: Superposition of Atomic Densities via on-the-fly atomic UHF.

  ==> Iterations <==

                        Total Energy        Delta E     RMS |[F,P]|

   @RHF iter SAD:  -461.58550693291215   -4.61586e+02   0.00000e+00
   @RHF iter   1:  -462.60596246918453   -1.02046e+00   2.80409e-03 DIIS
   @RHF iter   2:  -462.84781875637844   -2.41856e-01   1.19150e-03 DIIS
   @RHF iter   3:  -462.88695519130260   -3.91364e-02   2.67173e-04 DIIS
   @RHF iter   4:  -462.89022627925175   -3.27109e-03   1.02161e-04 DIIS
   @RHF iter   5:  -462.89055694810088   -3.30669e-04   2.05579e-05 DIIS
   @RHF iter   6:  -462.89057639741981   -1.94493e-05   6.39194e-06 DIIS
   @RHF iter   7:  -462.89057830600962   -1.90859e-06   1.80157e-06 DIIS
   @RHF iter   8:  -462.89057850694917   -2.00940e-07   6.64386e-07 DIIS
   @RHF iter   9:  -462.89057853171857   -2.47694e-08   2.15487e-07 DIIS
   @RHF iter  10:  -462.89057853456325   -2.84467e-09   6.19936e-08 DIIS
   @RHF iter  11:  -462.89057853496172   -3.98472e-10   2.43189e-08 DIIS
   @RHF iter  12:  -462.89057853503516   -7.34417e-11   1.29697e-08 DIIS
   @RHF iter  13:  -462.89057853505903   -2.38742e-11   6.28956e-09 DIIS
   @RHF iter  14:  -462.89057853506881   -9.77707e-12   1.75495e-09 DIIS
   @RHF iter  15:  -462.89057853506745    1.36424e-12   6.61296e-10 DIIS
   @RHF iter  16:  -462.89057853506898   -1.53477e-12   1.90343e-10 DIIS
   @RHF iter  17:  -462.89057853506654    2.44427e-12   7.59747e-11 DIIS
  Energy and wave function converged.

  ==> Post-Iterations <==

    Orbital Energies [Eh]
    ---------------------

    Doubly Occupied:

       1A    -20.583177     2A    -11.295997     3A    -11.240504
       4A    -11.239332     5A    -11.237577     6A    -11.234118
       7A    -11.230364     8A    -11.229409     9A    -11.218411
      10A    -11.216704    11A    -11.215131    12A     -1.395638
      13A     -1.144684    14A     -1.052878    15A     -1.032984
      16A     -1.012900    17A     -0.924677    18A     -0.923152
      19A     -0.840823    20A     -0.800414    21A     -0.793055
      22A     -0.726188    23A     -0.663697    24A     -0.641140
      25A     -0.626437    26A     -0.612439    27A     -0.595193
      28A     -0.586086    29A     -0.581418    30A     -0.569812
      31A     -0.559070    32A     -0.544512    33A     -0.533976
      34A     -0.520274    35A     -0.496826    36A     -0.483609
      37A     -0.471809    38A     -0.467475    39A     -0.465441
      40A     -0.462791    41A     -0.334737    42A     -0.303970

    Virtual:

      43A      0.127939    44A      0.151560    45A      0.174864
      46A      0.182266    47A      0.192125    48A      0.215136
      49A      0.216555    50A      0.225819    51A      0.234767
      52A      0.255386    53A      0.262570    54A      0.266286
      55A      0.270958    56A      0.288109    57A      0.293231
      58A      0.300996    59A      0.323274    60A      0.336132
      61A      0.370689    62A      0.381501    63A      0.392678
      64A      0.425978    65A      0.426985    66A      0.457135
      67A      0.487218    68A      0.503340    69A      0.518209
      70A      0.575081    71A      0.607415    72A      0.612053
      73A      0.615521    74A      0.624202    75A      0.632786
      76A      0.642208    77A      0.665281    78A      0.678826
      79A      0.692963    80A      0.708420    81A      0.714603
      82A      0.737006    83A      0.738438    84A      0.760747
      85A      0.768399    86A      0.771920    87A      0.793024
      88A      0.797256    89A      0.800433    90A      0.803751
      91A      0.829569    92A      0.834782    93A      0.846626
      94A      0.871418    95A      0.880056    96A      0.884682
      97A      0.887756    98A      0.890257    99A      0.897355
     100A      0.897502   101A      0.908287   102A      0.909052
     103A      0.918377   104A      0.926363   105A      0.926960
     106A      0.935354   107A      0.936183   108A      0.947834
     109A      0.961262   110A      0.979082   111A      0.996838
     112A      1.028362   113A      1.046379   114A      1.059838
     115A      1.106877   116A      1.120796   117A      1.127220
     118A      1.141818   119A      1.154190   120A      1.191943
     121A      1.212568   122A      1.215814   123A      1.242520
     124A      1.250077   125A      1.261812   126A      1.283343
     127A      1.301626   128A      1.306391   129A      1.313570
     130A      1.342919   131A      1.381779   132A      1.389876
     133A      1.411049   134A      1.458531   135A      1.472176
     136A      1.485610   137A      1.499202   138A      1.533350
     139A      1.540069   140A      1.565847   141A      1.622901
     142A      1.626316   143A      1.642491   144A      1.673620
     145A      1.685133   146A      1.688178   147A      1.698789
     148A      1.712460   149A      1.727981   150A      1.746280
     151A      1.776623   152A      1.796089   153A      1.802014
     154A      1.861405   155A      1.866200   156A      1.873624
     157A      1.883433   158A      1.889460   159A      1.898451
     160A      1.904248   161A      1.913442   162A      1.916091
     163A      1.923153   164A      1.930735   165A      1.941906
     166A      1.948852   167A      1.961811   168A      1.968200
     169A      1.972020   170A      1.987546   171A      1.988786
     172A      1.994627   173A      2.002721   174A      2.013628
     175A      2.026908   176A      2.041147   177A      2.047370
     178A      2.052139   179A      2.061502   180A      2.079921
     181A      2.124591   182A      2.129377   183A      2.152545
     184A      2.166959   185A      2.172067   186A      2.211085
     187A      2.225672   188A      2.259408   189A      2.269198
     190A      2.280844   191A      2.305730   192A      2.310630
     193A      2.326563   194A      2.327938   195A      2.348369
     196A      2.351256   197A      2.402562   198A      2.426507
     199A      2.469844   200A      2.480953   201A      2.506148
     202A      2.513993   203A      2.541846   204A      2.545374
     205A      2.576483   206A      2.590098   207A      2.610933
     208A      2.613599   209A      2.640843   210A      2.743916
     211A      2.752426   212A      2.766918   213A      2.769402
     214A      2.781425   215A      2.785645   216A      2.812607
     217A      2.823226   218A      2.842486   219A      2.888651
     220A      2.904063   221A      2.947793   222A      2.963123
     223A      2.967090   224A      2.996398   225A      3.064824
     226A      3.082497   227A      3.099943   228A      3.271718
     229A      3.282470   230A      3.361813   231A      3.565444
     232A      3.669774   233A      3.936744   234A      4.124500

    Final Occupation by Irrep:
              A
    DOCC [    42 ]

  @RHF Final Energy:  -462.89057853506654

   => Energetics <=

    Nuclear Repulsion Energy =            563.9582001485339333
    One-Electron Energy =               -1745.4798968488353239
    Two-Electron Energy =                 718.6311181652348523
    Total Energy =                       -462.8905785350665383

Computation Completed

Properties will be evaluated at   0.000000,   0.000000,   0.000000 [a0]

Properties computed using the SCF density matrix

  Nuclear Dipole Moment: [e a0]
     X:    -3.2014      Y:    -9.6102      Z:   -13.9812

  Electronic Dipole Moment: [e a0]
     X:     3.2962      Y:    10.1860      Z:    14.1547

  Dipole Moment: [e a0]
     X:     0.0949      Y:     0.5758      Z:     0.1735     Total:     0.6088

  Dipole Moment: [D]
     X:     0.2412      Y:     1.4635      Z:     0.4409     Total:     1.5474

*** tstop() called on ds3 at Tue Apr 28 21:58:21 2020
Module time:
	user time   =     125.02 seconds =       2.08 minutes
	system time =      53.67 seconds =       0.89 minutes
	total time  =        173 seconds =       2.88 minutes
Total time:
	user time   =     125.02 seconds =       2.08 minutes
	system time =      53.67 seconds =       0.89 minutes
	total time  =        173 seconds =       2.88 minutes
                                     G D M A

                                 by Anthony Stone

                           version 2.2.06, 22 June 2011

               Distributed Multipoles from Gaussian wavefunctions

Starting at 21:58:21 on 28 Apr 2020

Using SCF density matrix from file ./SSI/SSI-024LYS-057TYR-1-dimer.test.4743.fchk

                         Distributed Multipole Analysis

Standard DMA

Positions and radii in angstrom
Multipole moments in atomic units, ea_0^k for rank k

C          x =  0.198246  y = -2.718650  z = -1.995030 angstrom
           Maximum rank =  0   Radius =  0.650 angstrom
                   Q00  =  -0.097442

C          x =  1.278246  y = -3.485650  z = -2.754030 angstrom
           Maximum rank =  0   Radius =  0.650 angstrom
                   Q00  =  -0.236560

C          x = -1.222754  y = -3.184650  z = -2.312030 angstrom
           Maximum rank =  0   Radius =  0.650 angstrom
                   Q00  =  -0.227984

H          x =  0.374246  y = -2.826650  z = -0.923030 angstrom
           Maximum rank =  0   Radius =  0.325 angstrom
                   Q00  =   0.047923

H          x =  0.260246  y = -1.656650  z = -2.232030 angstrom
           Maximum rank =  0   Radius =  0.325 angstrom
                   Q00  =   0.038741

H          x =  0.973246  y = -3.573650  z = -3.799030 angstrom
           Maximum rank =  0   Radius =  0.325 angstrom
                   Q00  =   0.073586

H          x = -1.394754  y = -3.064650  z = -3.382030 angstrom
           Maximum rank =  0   Radius =  0.325 angstrom
                   Q00  =   0.073909

H          x = -1.343754  y = -4.236650  z = -2.050030 angstrom
           Maximum rank =  0   Radius =  0.325 angstrom
                   Q00  =   0.078773

H          x =  1.439126  y = -4.473510  z = -2.297689 angstrom
           Maximum rank =  0   Radius =  0.325 angstrom
                   Q00  =   0.081484

H          x =  2.228616  y = -2.931810  z = -2.746056 angstrom
           Maximum rank =  0   Radius =  0.325 angstrom
                   Q00  =   0.083050

H          x = -1.949744  y = -2.577860  z = -1.752306 angstrom
           Maximum rank =  0   Radius =  0.325 angstrom
                   Q00  =   0.085782

C          x = -1.722754  y =  3.047350  z = -0.706030 angstrom
           Maximum rank =  0   Radius =  0.650 angstrom
                   Q00  =  -0.207621

C          x =  0.502246  y =  0.119350  z =  0.412970 angstrom
           Maximum rank =  0   Radius =  0.650 angstrom
                   Q00  =  -0.108644

C          x =  0.750246  y =  0.441350  z =  1.741970 angstrom
           Maximum rank =  0   Radius =  0.650 angstrom
                   Q00  =   0.295075

C          x = -0.306754  y =  0.955350  z = -0.373030 angstrom
           Maximum rank =  0   Radius =  0.650 angstrom
                   Q00  =   0.047341

C          x = -0.863754  y =  2.130350  z =  0.152970 angstrom
           Maximum rank =  0   Radius =  0.650 angstrom
                   Q00  =  -0.131638

C          x =  0.213246  y =  1.614350  z =  2.279970 angstrom
           Maximum rank =  0   Radius =  0.650 angstrom
                   Q00  =  -0.158921

C          x = -0.599754  y =  2.442350  z =  1.494970 angstrom
           Maximum rank =  0   Radius =  0.650 angstrom
                   Q00  =  -0.062657

O          x =  1.546246  y = -0.375650  z =  2.483970 angstrom
           Maximum rank =  0   Radius =  0.650 angstrom
                   Q00  =  -0.665388

H          x =  0.948246  y = -0.771650  z = -0.001030 angstrom
           Maximum rank =  0   Radius =  0.325 angstrom
                   Q00  =   0.078850

H          x = -0.490754  y =  0.691350  z = -1.406030 angstrom
           Maximum rank =  0   Radius =  0.325 angstrom
                   Q00  =   0.061924

H          x =  0.413246  y =  1.871350  z =  3.310970 angstrom
           Maximum rank =  0   Radius =  0.325 angstrom
                   Q00  =   0.072973

H          x =  2.043246  y =  0.154350  z =  3.146970 angstrom
           Maximum rank =  0   Radius =  0.325 angstrom
                   Q00  =   0.409731

H          x = -2.286754  y =  3.717350  z = -0.054030 angstrom
           Maximum rank =  0   Radius =  0.325 angstrom
                   Q00  =   0.096503

H          x = -2.454754  y =  2.434350  z = -1.234030 angstrom
           Maximum rank =  0   Radius =  0.325 angstrom
                   Q00  =   0.098399

H          x = -1.015754  y =  3.342350  z =  1.929970 angstrom
           Maximum rank =  0   Radius =  0.325 angstrom
                   Q00  =   0.070556

H          x = -1.166764  y =  3.652650  z = -1.437111 angstrom
           Maximum rank =  0   Radius =  0.325 angstrom
                   Q00  =   0.102257

Total multipoles referred to origin at
           x =   0.000000,  y =    0.000000,  z =    0.000000 angstrom
                   Q00  =  -0.000000

Finished at 21:58:21 on 28 Apr 2020

  DMA results are available in the Python driver through the
	  variable('DMA DISTRIBUTED MULTIPOLES')
  and
	  variable('DMA TOTAL MULTIPOLES')
  commands.

    Psi4 stopped on: Tuesday, 28 April 2020 09:58PM
    Psi4 wall time for execution: 0:02:53.43

*** Psi4 exiting successfully. Buy a developer a beer!
