                               Psi4 1.3.2 release

  ==> Input File <==

--------------------------------------------------------------------------
import numpy as np
set {scf_type pk
basis cc-pvdz
d_convergence 10
gdma_switch   0
gdma_limit    0
gdma_origin   [ 0.0,  0.0,  0.0 ]
}
molecule test {
    units Angstrom
    0 1
    --
    0 1
    C                1.168633237638304     2.281920462219068    -2.857436595780604
    C               -1.242366762362696     0.160920462219068    -0.827436595780604
    C               -0.001366762362696     0.843920462219068    -0.934436595780604
    C                0.058633237638304     1.432920462219068    -2.258436595780604
    C               -1.075366762361696     1.037920462219069    -2.887436595780604
    C               -0.761366762362696    -0.518079537780932     1.402563404219396
    C               -1.631366762362696    -0.515079537780932     0.327563404219396
    C                0.451633237637304     0.195920462219068     1.349563404219396
    C                0.840633237637304     0.869920462219068     0.186563404219396
    N               -1.861366762362696     0.280920462219068    -2.041436595780604
    H               -1.036366762362696    -1.036079537780932     2.310563404219396
    H               -2.568366762362697    -1.048079537780932     0.373563404219396
    H                1.099633237637304     0.199920462219068     2.213563404219396
    H                1.770633237637304     1.413920462219068     0.152563404219396
    H               -2.802366762361697    -0.043079537780932    -2.267436595780604
    H               -1.329366762362696     1.311920462219068    -3.901436595780604
    H                1.584633237637304     2.925920462219068    -2.083436595780604
    H                0.736633237637304     2.928920462219068    -3.620436595780604
    H                1.981213237637304     1.698420462219068    -3.314871595780604
    C                1.078633237637304    -3.009079537780932     3.710563404219396
    C                2.446633237637304    -2.439079537780932     4.060563404219396
    H                1.112633237637304    -4.100079537780932     3.713563404219396
    H                0.342633237637304    -2.672079537780932     4.440563404219397
    H                0.765633237637304    -2.660079537780932     2.726563404219396
    H                2.411633237637304    -1.354079537780932     3.975563404219396
    H                3.229713237637303    -2.837181537780932     3.398519404219396
    H                2.692563237637303    -2.705116537780932     5.099189404219397

}
e, wfn = energy('scf', return_wfn=True)
gdma(wfn)
dmavals = variable('DMA DISTRIBUTED MULTIPOLES')
charges = np.array(dmavals)
print(charges)
np.save('SSI-015TRP-025THR-1-dimer.npy', np.array(charges))--------------------------------------------------------------------------

*** tstart() called on ds3
*** at Tue Apr 28 10:21:16 2020

   => Loading Basis Set <=

    Name: CC-PVDZ
    Role: ORBITAL
    Keyword: BASIS
    atoms 1-9, 20-21   entry C          line   138 file /theoryfs2/ds/metcalf/miniconda2/envs/tf2gpu/share/psi4/basis/cc-pvdz.gbs
    atoms 10           entry N          line   168 file /theoryfs2/ds/metcalf/miniconda2/envs/tf2gpu/share/psi4/basis/cc-pvdz.gbs
    atoms 11-19, 22-27 entry H          line    22 file /theoryfs2/ds/metcalf/miniconda2/envs/tf2gpu/share/psi4/basis/cc-pvdz.gbs

         ---------------------------------------------------------
                                   SCF
               by Justin Turney, Rob Parrish, Andy Simmonett
                          and Daniel G. A. Smith
                              RHF Reference
                        1 Threads,    500 MiB Core
         ---------------------------------------------------------

  ==> Geometry <==

    Molecular point group: c1
    Full point group: C1

    Geometry (in Angstrom), charge = 0, multiplicity = 1:

       Center              X                  Y                   Z               Mass
    ------------   -----------------  -----------------  -----------------  -----------------
         C            1.168633237638     2.281920462219    -2.857436595781    12.000000000000
         C           -1.242366762363     0.160920462219    -0.827436595781    12.000000000000
         C           -0.001366762363     0.843920462219    -0.934436595781    12.000000000000
         C            0.058633237638     1.432920462219    -2.258436595781    12.000000000000
         C           -1.075366762362     1.037920462219    -2.887436595781    12.000000000000
         C           -0.761366762363    -0.518079537781     1.402563404219    12.000000000000
         C           -1.631366762363    -0.515079537781     0.327563404219    12.000000000000
         C            0.451633237637     0.195920462219     1.349563404219    12.000000000000
         C            0.840633237637     0.869920462219     0.186563404219    12.000000000000
         N           -1.861366762363     0.280920462219    -2.041436595781    14.003074004430
         H           -1.036366762363    -1.036079537781     2.310563404219     1.007825032230
         H           -2.568366762363    -1.048079537781     0.373563404219     1.007825032230
         H            1.099633237637     0.199920462219     2.213563404219     1.007825032230
         H            1.770633237637     1.413920462219     0.152563404219     1.007825032230
         H           -2.802366762362    -0.043079537781    -2.267436595781     1.007825032230
         H           -1.329366762363     1.311920462219    -3.901436595781     1.007825032230
         H            1.584633237637     2.925920462219    -2.083436595781     1.007825032230
         H            0.736633237637     2.928920462219    -3.620436595781     1.007825032230
         H            1.981213237637     1.698420462219    -3.314871595781     1.007825032230
         C            1.078633237637    -3.009079537781     3.710563404219    12.000000000000
         C            2.446633237637    -2.439079537781     4.060563404219    12.000000000000
         H            1.112633237637    -4.100079537781     3.713563404219     1.007825032230
         H            0.342633237637    -2.672079537781     4.440563404219     1.007825032230
         H            0.765633237637    -2.660079537781     2.726563404219     1.007825032230
         H            2.411633237637    -1.354079537781     3.975563404219     1.007825032230
         H            3.229713237637    -2.837181537781     3.398519404219     1.007825032230
         H            2.692563237637    -2.705116537781     5.099189404219     1.007825032230

  Running in c1 symmetry.

  Rotational constants: A =      0.06182  B =      0.01265  C =      0.01100 [cm^-1]
  Rotational constants: A =   1853.20141  B =    379.13207  C =    329.62860 [MHz]
  Nuclear repulsion =  636.524218477874115

  Charge       = 0
  Multiplicity = 1
  Electrons    = 88
  Nalpha       = 44
  Nbeta        = 44

  ==> Algorithm <==

  SCF Algorithm Type is PK.
  DIIS enabled.
  MOM disabled.
  Fractional occupation disabled.
  Guess Type is SAD.
  Energy threshold   = 1.00e-06
  Density threshold  = 1.00e-10
  Integral threshold = 0.00e+00

  ==> Primary Basis <==

  Basis Set: CC-PVDZ
    Blend: CC-PVDZ
    Number of shells: 117
    Number of basis function: 243
    Number of Cartesian functions: 255
    Spherical Harmonics?: true
    Max angular momentum: 2

  ==> Pre-Iterations <==

   -------------------------------------------------------
    Irrep   Nso     Nmo     Nalpha   Nbeta   Ndocc  Nsocc
   -------------------------------------------------------
     A        243     243       0       0       0       0
   -------------------------------------------------------
    Total     243     243      44      44      44       0
   -------------------------------------------------------

  ==> Integral Setup <==

  Using integral reordering PK algorithm.
  Sizing the integral batches needed.
  Building batch lookup table.
   Calculation information:
      Number of atoms:                  27
      Number of AO shells:             117
      Number of primitives:            339
      Number of atomic orbitals:       255
      Number of basis functions:       243

      Integral cutoff                 1.00e-12
      Number of threads:                 1

	Batch   1 pq = [       0,    9405] index = [             0,44231715] size =     44231715
	Batch   2 pq = [    9405,   13301] index = [      44231715,88464951] size =     44233236
	Batch   3 pq = [   13301,   16290] index = [      88464951,132690195] size =     44225244
	Batch   4 pq = [   16290,   18810] index = [     132690195,176917455] size =     44227260
	Batch   5 pq = [   18810,   21030] index = [     176917455,221140965] size =     44223510
	Batch   6 pq = [   21030,   23037] index = [     221140965,265363203] size =     44222238
	Batch   7 pq = [   23037,   24883] index = [     265363203,309594286] size =     44231083
	Batch   8 pq = [   24883,   26601] index = [     309594286,353819901] size =     44225615
	Batch   9 pq = [   26601,   28214] index = [     353819901,398029005] size =     44209104
	Batch  10 pq = [   28214,   29646] index = [     398029005,439457481] size =     41428476
  Task number: 40
  Buffer size: 11059200
  Buffer per thread: 2
  We computed 18554074 shell quartets total.
  Whereas there are 23829156 unique shell quartets.

  ==> DiskJK: Disk-Based J/K Matrices <==

    J tasked:                  Yes
    K tasked:                  Yes
    wK tasked:                  No
    Memory [MiB]:              375
    Schwarz Cutoff:          1E-12

    OpenMP threads:              1

  Minimum eigenvalue in the overlap matrix is 2.4807879977E-04.
  Using Symmetric Orthogonalization.

  SCF Guess: Superposition of Atomic Densities via on-the-fly atomic UHF.

  ==> Iterations <==

                        Total Energy        Delta E     RMS |[F,P]|

   @RHF iter SAD:  -478.94872969300326   -4.78949e+02   0.00000e+00
   @RHF iter   1:  -479.49268760966413   -5.43958e-01   2.58578e-03 DIIS
   @RHF iter   2:  -479.72328727075632   -2.30600e-01   1.13488e-03 DIIS
   @RHF iter   3:  -479.76372283426656   -4.04356e-02   2.95779e-04 DIIS
   @RHF iter   4:  -479.76741101020372   -3.68818e-03   1.35971e-04 DIIS
   @RHF iter   5:  -479.76802716006489   -6.16150e-04   1.99198e-05 DIIS
   @RHF iter   6:  -479.76805605576590   -2.88957e-05   9.02334e-06 DIIS
   @RHF iter   7:  -479.76806182389589   -5.76813e-06   3.75000e-06 DIIS
   @RHF iter   8:  -479.76806346720201   -1.64331e-06   1.46153e-06 DIIS
   @RHF iter   9:  -479.76806378355616   -3.16354e-07   6.49295e-07 DIIS
   @RHF iter  10:  -479.76806384682845   -6.32723e-08   3.02729e-07 DIIS
   @RHF iter  11:  -479.76806386275950   -1.59311e-08   1.15151e-07 DIIS
   @RHF iter  12:  -479.76806386504995   -2.29045e-09   3.89710e-08 DIIS
   @RHF iter  13:  -479.76806386522088   -1.70928e-10   1.10943e-08 DIIS
   @RHF iter  14:  -479.76806386522873   -7.84439e-12   4.90104e-09 DIIS
   @RHF iter  15:  -479.76806386522850    2.27374e-13   2.22217e-09 DIIS
   @RHF iter  16:  -479.76806386523145   -2.95586e-12   9.53010e-10 DIIS
   @RHF iter  17:  -479.76806386523310   -1.64846e-12   4.34734e-10 DIIS
   @RHF iter  18:  -479.76806386522964    3.46745e-12   1.64412e-10 DIIS
   @RHF iter  19:  -479.76806386522702    2.61480e-12   5.53836e-11 DIIS
  Energy and wave function converged.

  ==> Post-Iterations <==

    Orbital Energies [Eh]
    ---------------------

    Doubly Occupied:

       1A    -15.601489     2A    -11.264929     3A    -11.263399
       4A    -11.231811     5A    -11.230455     6A    -11.229754
       7A    -11.229211     8A    -11.222712     9A    -11.222160
      10A    -11.220715    11A    -11.215533    12A    -11.211932
      13A     -1.293331    14A     -1.125727    15A     -1.070265
      16A     -1.015946    17A     -0.994998    18A     -0.986889
      19A     -0.930893    20A     -0.839074    21A     -0.832409
      22A     -0.802221    23A     -0.752384    24A     -0.718475
      25A     -0.663263    26A     -0.642112    27A     -0.601356
      28A     -0.596662    29A     -0.592999    30A     -0.590880
      31A     -0.586725    32A     -0.566675    33A     -0.552262
      34A     -0.534985    35A     -0.529300    36A     -0.497862
      37A     -0.495568    38A     -0.482790    39A     -0.479853
      40A     -0.470636    41A     -0.459305    42A     -0.373212
      43A     -0.293203    44A     -0.277653

    Virtual:

      45A      0.124929    46A      0.167426    47A      0.175985
      48A      0.181732    49A      0.190694    50A      0.213192
      51A      0.220176    52A      0.222644    53A      0.233497
      54A      0.241975    55A      0.257182    56A      0.264485
      57A      0.277391    58A      0.287552    59A      0.293498
      60A      0.300007    61A      0.306078    62A      0.356045
      63A      0.371098    64A      0.382734    65A      0.397763
      66A      0.404180    67A      0.427593    68A      0.441758
      69A      0.468889    70A      0.479475    71A      0.498819
      72A      0.510795    73A      0.595370    74A      0.601313
      75A      0.605127    76A      0.611861    77A      0.629157
      78A      0.635062    79A      0.638957    80A      0.666026
      81A      0.684415    82A      0.688081    83A      0.695678
      84A      0.715475    85A      0.725161    86A      0.729666
      87A      0.733183    88A      0.739621    89A      0.747172
      90A      0.757582    91A      0.761313    92A      0.766906
      93A      0.788950    94A      0.790682    95A      0.825716
      96A      0.843978    97A      0.847454    98A      0.863039
      99A      0.876825   100A      0.881180   101A      0.884849
     102A      0.891643   103A      0.895423   104A      0.900345
     105A      0.908166   106A      0.913201   107A      0.919865
     108A      0.926931   109A      0.946207   110A      0.952109
     111A      0.964065   112A      0.970974   113A      0.977897
     114A      0.994587   115A      1.001111   116A      1.020511
     117A      1.056888   118A      1.074818   119A      1.092433
     120A      1.119923   121A      1.122299   122A      1.134604
     123A      1.149874   124A      1.162501   125A      1.169083
     126A      1.182546   127A      1.205755   128A      1.223232
     129A      1.226574   130A      1.241935   131A      1.246163
     132A      1.272509   133A      1.277297   134A      1.289243
     135A      1.301080   136A      1.328535   137A      1.332246
     138A      1.360823   139A      1.367902   140A      1.409921
     141A      1.449591   142A      1.480873   143A      1.489811
     144A      1.511756   145A      1.551637   146A      1.557482
     147A      1.580831   148A      1.598071   149A      1.621556
     150A      1.637909   151A      1.644189   152A      1.685089
     153A      1.689503   154A      1.698114   155A      1.709608
     156A      1.734626   157A      1.761726   158A      1.771754
     159A      1.783716   160A      1.815269   161A      1.820724
     162A      1.837516   163A      1.865992   164A      1.877413
     165A      1.880550   166A      1.893859   167A      1.900900
     168A      1.902438   169A      1.906905   170A      1.915303
     171A      1.925685   172A      1.935907   173A      1.940693
     174A      1.948908   175A      1.957414   176A      1.964453
     177A      1.970201   178A      1.974073   179A      1.990486
     180A      1.994474   181A      2.006330   182A      2.013497
     183A      2.045722   184A      2.063362   185A      2.075116
     186A      2.084728   187A      2.097996   188A      2.109264
     189A      2.110148   190A      2.114883   191A      2.117635
     192A      2.144360   193A      2.162181   194A      2.174174
     195A      2.185614   196A      2.224525   197A      2.255438
     198A      2.277019   199A      2.299340   200A      2.305524
     201A      2.311920   202A      2.318460   203A      2.339700
     204A      2.345428   205A      2.391976   206A      2.402638
     207A      2.441392   208A      2.460042   209A      2.463168
     210A      2.475952   211A      2.524194   212A      2.572622
     213A      2.577158   214A      2.580475   215A      2.591346
     216A      2.620809   217A      2.661520   218A      2.677245
     219A      2.709525   220A      2.768049   221A      2.770307
     222A      2.780184   223A      2.786875   224A      2.798238
     225A      2.801979   226A      2.824111   227A      2.853445
     228A      2.856931   229A      2.866856   230A      2.876209
     231A      2.913925   232A      2.958821   233A      2.966851
     234A      2.973842   235A      3.021789   236A      3.046682
     237A      3.062698   238A      3.114182   239A      3.195375
     240A      3.289137   241A      3.368624   242A      3.726637
     243A      3.936659

    Final Occupation by Irrep:
              A
    DOCC [    44 ]

  @RHF Final Energy:  -479.76806386522702

   => Energetics <=

    Nuclear Repulsion Energy =            636.5242184778741148
    One-Electron Energy =               -1910.9965470076394922
    Two-Electron Energy =                 794.7042646645384139
    Total Energy =                       -479.7680638652270773

Computation Completed

Properties will be evaluated at   0.000000,   0.000000,   0.000000 [a0]

Properties computed using the SCF density matrix

  Nuclear Dipole Moment: [e a0]
     X:     9.3717      Y:    -7.4789      Z:    12.3961

  Electronic Dipole Moment: [e a0]
     X:    -9.9707      Y:     7.4735      Z:   -13.0065

  Dipole Moment: [e a0]
     X:    -0.5990      Y:    -0.0054      Z:    -0.6104     Total:     0.8552

  Dipole Moment: [D]
     X:    -1.5224      Y:    -0.0137      Z:    -1.5516     Total:     2.1738

*** tstop() called on ds3 at Tue Apr 28 10:26:32 2020
Module time:
	user time   =     152.53 seconds =       2.54 minutes
	system time =      67.63 seconds =       1.13 minutes
	total time  =        316 seconds =       5.27 minutes
Total time:
	user time   =     152.53 seconds =       2.54 minutes
	system time =      67.63 seconds =       1.13 minutes
	total time  =        316 seconds =       5.27 minutes
                                     G D M A

                                 by Anthony Stone

                           version 2.2.06, 22 June 2011

               Distributed Multipoles from Gaussian wavefunctions

Starting at 10:26:32 on 28 Apr 2020

Using SCF density matrix from file ./SSI/SSI-015TRP-025THR-1-dimer.test.10596.fchk

                         Distributed Multipole Analysis

Standard DMA

Positions and radii in angstrom
Multipole moments in atomic units, ea_0^k for rank k

C          x =  1.168633  y =  2.281920  z = -2.857437 angstrom
           Maximum rank =  0   Radius =  0.650 angstrom
                   Q00  =  -0.213973

C          x = -1.242367  y =  0.160920  z = -0.827437 angstrom
           Maximum rank =  0   Radius =  0.650 angstrom
                   Q00  =   0.296602

C          x = -0.001367  y =  0.843920  z = -0.934437 angstrom
           Maximum rank =  0   Radius =  0.650 angstrom
                   Q00  =  -0.057495

C          x =  0.058633  y =  1.432920  z = -2.258437 angstrom
           Maximum rank =  0   Radius =  0.650 angstrom
                   Q00  =  -0.125630

C          x = -1.075367  y =  1.037920  z = -2.887437 angstrom
           Maximum rank =  0   Radius =  0.650 angstrom
                   Q00  =   0.079300

C          x = -0.761367  y = -0.518080  z =  1.402563 angstrom
           Maximum rank =  0   Radius =  0.650 angstrom
                   Q00  =  -0.069814

C          x = -1.631367  y = -0.515080  z =  0.327563 angstrom
           Maximum rank =  0   Radius =  0.650 angstrom
                   Q00  =  -0.119438

C          x =  0.451633  y =  0.195920  z =  1.349563 angstrom
           Maximum rank =  0   Radius =  0.650 angstrom
                   Q00  =  -0.093846

C          x =  0.840633  y =  0.869920  z =  0.186563 angstrom
           Maximum rank =  0   Radius =  0.650 angstrom
                   Q00  =  -0.090097

N          x = -1.861367  y =  0.280920  z = -2.041437 angstrom
           Maximum rank =  0   Radius =  0.650 angstrom
                   Q00  =  -0.502472

H          x = -1.036367  y = -1.036080  z =  2.310563 angstrom
           Maximum rank =  0   Radius =  0.325 angstrom
                   Q00  =   0.067203

H          x = -2.568367  y = -1.048080  z =  0.373563 angstrom
           Maximum rank =  0   Radius =  0.325 angstrom
                   Q00  =   0.072358

H          x =  1.099633  y =  0.199920  z =  2.213563 angstrom
           Maximum rank =  0   Radius =  0.325 angstrom
                   Q00  =   0.061485

H          x =  1.770633  y =  1.413920  z =  0.152563 angstrom
           Maximum rank =  0   Radius =  0.325 angstrom
                   Q00  =   0.069420

H          x = -2.802367  y = -0.043080  z = -2.267437 angstrom
           Maximum rank =  0   Radius =  0.325 angstrom
                   Q00  =   0.217749

H          x = -1.329367  y =  1.311920  z = -3.901437 angstrom
           Maximum rank =  0   Radius =  0.325 angstrom
                   Q00  =   0.099151

H          x =  1.584633  y =  2.925920  z = -2.083437 angstrom
           Maximum rank =  0   Radius =  0.325 angstrom
                   Q00  =   0.104688

H          x =  0.736633  y =  2.928920  z = -3.620437 angstrom
           Maximum rank =  0   Radius =  0.325 angstrom
                   Q00  =   0.103883

H          x =  1.981213  y =  1.698420  z = -3.314872 angstrom
           Maximum rank =  0   Radius =  0.325 angstrom
                   Q00  =   0.101544

C          x =  1.078633  y = -3.009080  z =  3.710563 angstrom
           Maximum rank =  0   Radius =  0.650 angstrom
                   Q00  =  -0.236636

C          x =  2.446633  y = -2.439080  z =  4.060563 angstrom
           Maximum rank =  0   Radius =  0.650 angstrom
                   Q00  =  -0.236085

H          x =  1.112633  y = -4.100080  z =  3.713563 angstrom
           Maximum rank =  0   Radius =  0.325 angstrom
                   Q00  =   0.078597

H          x =  0.342633  y = -2.672080  z =  4.440563 angstrom
           Maximum rank =  0   Radius =  0.325 angstrom
                   Q00  =   0.073905

H          x =  0.765633  y = -2.660080  z =  2.726563 angstrom
           Maximum rank =  0   Radius =  0.325 angstrom
                   Q00  =   0.087141

H          x =  2.411633  y = -1.354080  z =  3.975563 angstrom
           Maximum rank =  0   Radius =  0.325 angstrom
                   Q00  =   0.077373

H          x =  3.229713  y = -2.837182  z =  3.398519 angstrom
           Maximum rank =  0   Radius =  0.325 angstrom
                   Q00  =   0.080977

H          x =  2.692563  y = -2.705117  z =  5.099189 angstrom
           Maximum rank =  0   Radius =  0.325 angstrom
                   Q00  =   0.074111

Total multipoles referred to origin at
           x =   0.000000,  y =    0.000000,  z =    0.000000 angstrom
                   Q00  =  -0.000000

Finished at 10:26:32 on 28 Apr 2020

  DMA results are available in the Python driver through the
	  variable('DMA DISTRIBUTED MULTIPOLES')
  and
	  variable('DMA TOTAL MULTIPOLES')
  commands.

    Psi4 stopped on: Tuesday, 28 April 2020 10:26AM
    Psi4 wall time for execution: 0:05:16.63

*** Psi4 exiting successfully. Buy a developer a beer!
