                               Psi4 1.3.2 release

  ==> Input File <==

--------------------------------------------------------------------------
import numpy as np
set {scf_type pk
basis cc-pvdz
d_convergence 10
gdma_switch   0
gdma_limit    0
gdma_origin   [ 0.0,  0.0,  0.0 ]
}
molecule test {
    units Angstrom
    0 1
    --
    0 1
    C               -0.495994797175917     2.917516862763581    -0.315687294721581
    N                0.243005202824083     1.850516862763582    -1.041687294721581
    H                1.246005202824083     1.972516862763581    -0.979687294721581
    H                0.016005202824083     0.938516862763582    -0.635687294721581
    H               -0.018994797175917     1.811516862763582    -2.017687294721580
    H               -0.147994797175917     2.992516862763582     0.719312705278419
    H               -1.561994797175917     2.671516862763582    -0.300687294721581
    H               -0.371994797175917     3.888496862763581    -0.817496294721581
    C               -0.264994797175917    -2.617483137236419     0.781312705278419
    C                0.067005202824083    -1.200483137236418     0.353312705278419
    O               -0.828994797175917    -0.477483137236418    -0.136687294721581
    O                1.245005202824083    -0.803483137236418     0.508312705278419
    H                0.402005202824083    -2.861483137236418     1.613312705278420
    H               -0.000994797175917    -3.360483137236418     0.043312705278419
    H               -1.277674797175917    -2.713483137236418     1.199954705278419

}
e, wfn = energy('scf', return_wfn=True)
gdma(wfn)
dmavals = variable('DMA DISTRIBUTED MULTIPOLES')
charges = np.array(dmavals)
print(charges)
np.save('SSI-042LYS-049GLU-1-dimer.npy', np.array(charges))--------------------------------------------------------------------------

*** tstart() called on ds3
*** at Tue Apr 28 10:37:10 2020

   => Loading Basis Set <=

    Name: CC-PVDZ
    Role: ORBITAL
    Keyword: BASIS
    atoms 1, 9-10    entry C          line   138 file /theoryfs2/ds/metcalf/miniconda2/envs/tf2gpu/share/psi4/basis/cc-pvdz.gbs
    atoms 2          entry N          line   168 file /theoryfs2/ds/metcalf/miniconda2/envs/tf2gpu/share/psi4/basis/cc-pvdz.gbs
    atoms 3-8, 13-15 entry H          line    22 file /theoryfs2/ds/metcalf/miniconda2/envs/tf2gpu/share/psi4/basis/cc-pvdz.gbs
    atoms 11-12      entry O          line   198 file /theoryfs2/ds/metcalf/miniconda2/envs/tf2gpu/share/psi4/basis/cc-pvdz.gbs

         ---------------------------------------------------------
                                   SCF
               by Justin Turney, Rob Parrish, Andy Simmonett
                          and Daniel G. A. Smith
                              RHF Reference
                        1 Threads,    500 MiB Core
         ---------------------------------------------------------

  ==> Geometry <==

    Molecular point group: c1
    Full point group: C1

    Geometry (in Angstrom), charge = 0, multiplicity = 1:

       Center              X                  Y                   Z               Mass
    ------------   -----------------  -----------------  -----------------  -----------------
         C           -0.495994797176     2.917516862764    -0.315687294722    12.000000000000
         N            0.243005202824     1.850516862764    -1.041687294722    14.003074004430
         H            1.246005202824     1.972516862764    -0.979687294722     1.007825032230
         H            0.016005202824     0.938516862764    -0.635687294722     1.007825032230
         H           -0.018994797176     1.811516862764    -2.017687294722     1.007825032230
         H           -0.147994797176     2.992516862764     0.719312705278     1.007825032230
         H           -1.561994797176     2.671516862764    -0.300687294722     1.007825032230
         H           -0.371994797176     3.888496862764    -0.817496294722     1.007825032230
         C           -0.264994797176    -2.617483137236     0.781312705278    12.000000000000
         C            0.067005202824    -1.200483137236     0.353312705278    12.000000000000
         O           -0.828994797176    -0.477483137236    -0.136687294722    15.994914619570
         O            1.245005202824    -0.803483137236     0.508312705278    15.994914619570
         H            0.402005202824    -2.861483137236     1.613312705278     1.007825032230
         H           -0.000994797176    -3.360483137236     0.043312705278     1.007825032230
         H           -1.277674797176    -2.713483137236     1.199954705278     1.007825032230

  Running in c1 symmetry.

  Rotational constants: A =      0.27729  B =      0.04540  C =      0.04192 [cm^-1]
  Rotational constants: A =   8312.94927  B =   1361.01746  C =   1256.63565 [MHz]
  Nuclear repulsion =  243.073236741593718

  Charge       = 0
  Multiplicity = 1
  Electrons    = 50
  Nalpha       = 25
  Nbeta        = 25

  ==> Algorithm <==

  SCF Algorithm Type is PK.
  DIIS enabled.
  MOM disabled.
  Fractional occupation disabled.
  Guess Type is SAD.
  Energy threshold   = 1.00e-06
  Density threshold  = 1.00e-10
  Integral threshold = 0.00e+00

  ==> Primary Basis <==

  Basis Set: CC-PVDZ
    Blend: CC-PVDZ
    Number of shells: 63
    Number of basis function: 129
    Number of Cartesian functions: 135
    Spherical Harmonics?: true
    Max angular momentum: 2

  ==> Pre-Iterations <==

   -------------------------------------------------------
    Irrep   Nso     Nmo     Nalpha   Nbeta   Ndocc  Nsocc
   -------------------------------------------------------
     A        129     129       0       0       0       0
   -------------------------------------------------------
    Total     129     129      25      25      25       0
   -------------------------------------------------------

  ==> Integral Setup <==

  Using integral reordering PK algorithm.
  Sizing the integral batches needed.
  Building batch lookup table.
   Calculation information:
      Number of atoms:                  15
      Number of AO shells:              63
      Number of primitives:            177
      Number of atomic orbitals:       135
      Number of basis functions:       129

      Integral cutoff                 1.00e-12
      Number of threads:                 1

	Batch   1 pq = [       0,    8385] index = [             0,35158305] size =     35158305
  Task number: 4
  Buffer size: 11059200
  Buffer per thread: 2
  We computed 1731713 shell quartets total.
  Whereas there are 2033136 unique shell quartets.

  ==> DiskJK: Disk-Based J/K Matrices <==

    J tasked:                  Yes
    K tasked:                  Yes
    wK tasked:                  No
    Memory [MiB]:              375
    Schwarz Cutoff:          1E-12

    OpenMP threads:              1

  Minimum eigenvalue in the overlap matrix is 4.5676062823E-03.
  Using Symmetric Orthogonalization.

  SCF Guess: Superposition of Atomic Densities via on-the-fly atomic UHF.

  ==> Iterations <==

                        Total Energy        Delta E     RMS |[F,P]|

   @RHF iter SAD:  -321.78450508872430   -3.21785e+02   0.00000e+00
   @RHF iter   1:  -322.80722068180768   -1.02272e+00   5.15710e-03 DIIS
   @RHF iter   2:  -322.97287534605374   -1.65655e-01   2.82559e-03 DIIS
   @RHF iter   3:  -323.01989397323666   -4.70186e-02   4.72733e-04 DIIS
   @RHF iter   4:  -323.02234957987184   -2.45561e-03   1.57126e-04 DIIS
   @RHF iter   5:  -323.02262455857704   -2.74979e-04   3.24001e-05 DIIS
   @RHF iter   6:  -323.02263703559993   -1.24770e-05   1.63127e-05 DIIS
   @RHF iter   7:  -323.02263921552174   -2.17992e-06   2.97502e-06 DIIS
   @RHF iter   8:  -323.02263945099577   -2.35474e-07   1.35705e-06 DIIS
   @RHF iter   9:  -323.02263950102082   -5.00251e-08   4.62702e-07 DIIS
   @RHF iter  10:  -323.02263950704224   -6.02142e-09   1.55112e-07 DIIS
   @RHF iter  11:  -323.02263950751109   -4.68845e-10   3.73233e-08 DIIS
   @RHF iter  12:  -323.02263950753866   -2.75691e-11   9.59724e-09 DIIS
   @RHF iter  13:  -323.02263950754042   -1.76215e-12   3.05602e-09 DIIS
   @RHF iter  14:  -323.02263950754235   -1.93268e-12   1.06043e-09 DIIS
   @RHF iter  15:  -323.02263950754292   -5.68434e-13   2.91369e-10 DIIS
   @RHF iter  16:  -323.02263950754116    1.76215e-12   1.31548e-10 DIIS
   @RHF iter  17:  -323.02263950754195   -7.95808e-13   3.73283e-11 DIIS
  Energy and wave function converged.

  ==> Post-Iterations <==

    Orbital Energies [Eh]
    ---------------------

    Doubly Occupied:

       1A    -20.441847     2A    -20.422561     3A    -15.707590
       4A    -11.334969     5A    -11.278040     6A    -11.175024
       7A     -1.338818     8A     -1.321081     9A     -1.206219
      10A     -1.002504    11A     -0.929712    12A     -0.798479
      13A     -0.788341    14A     -0.691983    15A     -0.656180
      16A     -0.610421    17A     -0.606519    18A     -0.567745
      19A     -0.556153    20A     -0.546138    21A     -0.482272
      22A     -0.459878    23A     -0.357749    24A     -0.337912
      25A     -0.334911

    Virtual:

      26A      0.116047    27A      0.168774    28A      0.181657
      29A      0.210900    30A      0.230485    31A      0.244485
      32A      0.270073    33A      0.292597    34A      0.307557
      35A      0.343483    36A      0.401698    37A      0.448981
      38A      0.523429    39A      0.538510    40A      0.553265
      41A      0.589978    42A      0.603419    43A      0.674594
      44A      0.687987    45A      0.709993    46A      0.758434
      47A      0.791259    48A      0.808678    49A      0.816186
      50A      0.820906    51A      0.851350    52A      0.853656
      53A      0.901658    54A      0.908128    55A      0.922562
      56A      0.949544    57A      0.958118    58A      0.986437
      59A      1.001602    60A      1.021813    61A      1.067205
      62A      1.093416    63A      1.126593    64A      1.193277
      65A      1.203997    66A      1.221367    67A      1.325236
      68A      1.360213    69A      1.419141    70A      1.433574
      71A      1.455893    72A      1.473702    73A      1.493951
      74A      1.535115    75A      1.589935    76A      1.601577
      77A      1.612132    78A      1.686760    79A      1.711210
      80A      1.732188    81A      1.797942    82A      1.836589
      83A      1.845253    84A      1.883753    85A      1.892762
      86A      1.904218    87A      1.935417    88A      1.953027
      89A      1.971421    90A      2.029830    91A      2.052223
      92A      2.094884    93A      2.107751    94A      2.117601
      95A      2.119730    96A      2.132392    97A      2.155338
      98A      2.225580    99A      2.281449   100A      2.302056
     101A      2.352095   102A      2.413528   103A      2.417231
     104A      2.449767   105A      2.536752   106A      2.539208
     107A      2.606502   108A      2.627006   109A      2.659441
     110A      2.675398   111A      2.698103   112A      2.801740
     113A      2.847367   114A      2.875061   115A      2.893427
     116A      2.910847   117A      2.933289   118A      3.075900
     119A      3.122000   120A      3.141519   121A      3.200255
     122A      3.273708   123A      3.465873   124A      3.479652
     125A      3.624812   126A      3.661947   127A      3.904013
     128A      3.910755   129A      4.053853

    Final Occupation by Irrep:
              A
    DOCC [    25 ]

  @RHF Final Energy:  -323.02263950754195

   => Energetics <=

    Nuclear Repulsion Energy =            243.0732367415937176
    One-Electron Energy =                -924.2856602714152814
    Two-Electron Energy =                 358.1897840222795821
    Total Energy =                       -323.0226395075419532

Computation Completed

Properties will be evaluated at   0.000000,   0.000000,   0.000000 [a0]

Properties computed using the SCF density matrix

  Nuclear Dipole Moment: [e a0]
     X:    -1.6071      Y:     4.9942      Z:    -1.0970

  Electronic Dipole Moment: [e a0]
     X:     1.3973      Y:    -1.5842      Z:    -0.4569

  Dipole Moment: [e a0]
     X:    -0.2097      Y:     3.4100      Z:    -1.5539     Total:     3.7532

  Dipole Moment: [D]
     X:    -0.5331      Y:     8.6674      Z:    -3.9497     Total:     9.5398

*** tstop() called on ds3 at Tue Apr 28 10:37:27 2020
Module time:
	user time   =      12.80 seconds =       0.21 minutes
	system time =       4.88 seconds =       0.08 minutes
	total time  =         17 seconds =       0.28 minutes
Total time:
	user time   =      12.80 seconds =       0.21 minutes
	system time =       4.88 seconds =       0.08 minutes
	total time  =         17 seconds =       0.28 minutes
                                     G D M A

                                 by Anthony Stone

                           version 2.2.06, 22 June 2011

               Distributed Multipoles from Gaussian wavefunctions

Starting at 10:37:27 on 28 Apr 2020

Using SCF density matrix from file ./SSI/SSI-042LYS-049GLU-1-dimer.test.4576.fchk

                         Distributed Multipole Analysis

Standard DMA

Positions and radii in angstrom
Multipole moments in atomic units, ea_0^k for rank k

C          x = -0.495995  y =  2.917517  z = -0.315687 angstrom
           Maximum rank =  0   Radius =  0.650 angstrom
                   Q00  =  -0.135796

N          x =  0.243005  y =  1.850517  z = -1.041687 angstrom
           Maximum rank =  0   Radius =  0.650 angstrom
                   Q00  =  -0.102845

H          x =  1.246005  y =  1.972517  z = -0.979687 angstrom
           Maximum rank =  0   Radius =  0.325 angstrom
                   Q00  =   0.230803

H          x =  0.016005  y =  0.938517  z = -0.635687 angstrom
           Maximum rank =  0   Radius =  0.325 angstrom
                   Q00  =   0.327051

H          x = -0.018995  y =  1.811517  z = -2.017687 angstrom
           Maximum rank =  0   Radius =  0.325 angstrom
                   Q00  =   0.217831

H          x = -0.147995  y =  2.992517  z =  0.719313 angstrom
           Maximum rank =  0   Radius =  0.325 angstrom
                   Q00  =   0.152052

H          x = -1.561995  y =  2.671517  z = -0.300687 angstrom
           Maximum rank =  0   Radius =  0.325 angstrom
                   Q00  =   0.152815

H          x = -0.371995  y =  3.888497  z = -0.817496 angstrom
           Maximum rank =  0   Radius =  0.325 angstrom
                   Q00  =   0.115144

C          x = -0.264995  y = -2.617483  z =  0.781313 angstrom
           Maximum rank =  0   Radius =  0.650 angstrom
                   Q00  =  -0.240889

C          x =  0.067005  y = -1.200483  z =  0.353313 angstrom
           Maximum rank =  0   Radius =  0.650 angstrom
                   Q00  =   0.845843

O          x = -0.828995  y = -0.477483  z = -0.136687 angstrom
           Maximum rank =  0   Radius =  0.650 angstrom
                   Q00  =  -0.935559

O          x =  1.245005  y = -0.803483  z =  0.508313 angstrom
           Maximum rank =  0   Radius =  0.650 angstrom
                   Q00  =  -0.892902

H          x =  0.402005  y = -2.861483  z =  1.613313 angstrom
           Maximum rank =  0   Radius =  0.325 angstrom
                   Q00  =   0.084387

H          x = -0.000995  y = -3.360483  z =  0.043313 angstrom
           Maximum rank =  0   Radius =  0.325 angstrom
                   Q00  =   0.099094

H          x = -1.277675  y = -2.713483  z =  1.199955 angstrom
           Maximum rank =  0   Radius =  0.325 angstrom
                   Q00  =   0.082972

Total multipoles referred to origin at
           x =   0.000000,  y =    0.000000,  z =    0.000000 angstrom
                   Q00  =  -0.000000

Finished at 10:37:27 on 28 Apr 2020

  DMA results are available in the Python driver through the
	  variable('DMA DISTRIBUTED MULTIPOLES')
  and
	  variable('DMA TOTAL MULTIPOLES')
  commands.

    Psi4 stopped on: Tuesday, 28 April 2020 10:37AM
    Psi4 wall time for execution: 0:00:17.42

*** Psi4 exiting successfully. Buy a developer a beer!
