                               Psi4 1.3.2 release

  ==> Input File <==

--------------------------------------------------------------------------
import numpy as np
set {scf_type pk
basis cc-pvdz
d_convergence 10
gdma_switch   0
gdma_limit    0
gdma_origin   [ 0.0,  0.0,  0.0 ]
}
molecule test {
    units Angstrom
    0 1
    --
    0 1
    C               -2.434325980035270    -0.062350681018381     0.293797378527026
    C               -2.346325980035270     1.053649318981619     1.333797378527026
    C               -2.557325980035269    -1.430350681018381     0.941797378527026
    O               -3.500325980035270    -1.694350681018381     1.681797378527026
    N               -1.611325980035269    -2.312350681018382     0.666797378527026
    H               -3.317325980035270     0.049649318981619    -0.329202621472974
    H               -1.561325980035269    -0.018350681018381    -0.358202621472974
    H               -1.364325980035269     1.018649318981619     1.808797378527026
    H               -3.093325980035269     0.865649318981619     2.105797378527026
    H               -1.681325980035269    -3.219350681018382     1.100797378527026
    H               -0.797325980035269    -2.065350681018382     0.117797378527026
    H               -2.520728980035270     2.064899318981618     0.937622378527026
    C                2.420674019964730     3.439649318981618    -0.719202621472974
    C                1.193674019964731     0.066649318981619     0.503797378527026
    C                1.321674019964731    -0.703350681018381    -0.640202621472974
    C                1.544674019964731     1.400649318981618     0.477797378527026
    C                2.042674019964731     1.979649318981618    -0.690202621472974
    C                1.806674019964731    -0.144350681018381    -1.815202621472974
    C                2.164674019964731     1.192649318981619    -1.835202621472974
    O                0.961674019964731    -2.013350681018381    -0.601202621472974
    H                0.828674019964731    -0.385350681018381     1.411797378527026
    H                1.445674019964731     1.996649318981619     1.374797378527026
    H                1.927674019964731    -0.745350681018382    -2.705202621472973
    H                1.250674019964731    -2.493350681018381    -1.385202621472974
    H                3.299674019964730     3.567649318981619    -1.353202621472974
    H                2.692674019964731     3.759649318981618     0.285797378527026
    H                2.563674019964731     1.625649318981619    -2.742202621472974
    H                1.605121019964731     4.074128318981619    -1.096440621472974

}
e, wfn = energy('scf', return_wfn=True)
gdma(wfn)
dmavals = variable('DMA DISTRIBUTED MULTIPOLES')
charges = np.array(dmavals)
print(charges)
np.save('SSI-022GLN-147TYR-1-dimer.npy', np.array(charges))--------------------------------------------------------------------------

*** tstart() called on ds3
*** at Mon Apr 27 10:22:27 2020

   => Loading Basis Set <=

    Name: CC-PVDZ
    Role: ORBITAL
    Keyword: BASIS
    atoms 1-3, 13-19  entry C          line   138 file /theoryfs2/ds/metcalf/miniconda2/envs/tf2gpu/share/psi4/basis/cc-pvdz.gbs
    atoms 4, 20       entry O          line   198 file /theoryfs2/ds/metcalf/miniconda2/envs/tf2gpu/share/psi4/basis/cc-pvdz.gbs
    atoms 5           entry N          line   168 file /theoryfs2/ds/metcalf/miniconda2/envs/tf2gpu/share/psi4/basis/cc-pvdz.gbs
    atoms 6-12, 21-28 entry H          line    22 file /theoryfs2/ds/metcalf/miniconda2/envs/tf2gpu/share/psi4/basis/cc-pvdz.gbs

         ---------------------------------------------------------
                                   SCF
               by Justin Turney, Rob Parrish, Andy Simmonett
                          and Daniel G. A. Smith
                              RHF Reference
                        1 Threads,    500 MiB Core
         ---------------------------------------------------------

  ==> Geometry <==

    Molecular point group: c1
    Full point group: C1

    Geometry (in Angstrom), charge = 0, multiplicity = 1:

       Center              X                  Y                   Z               Mass
    ------------   -----------------  -----------------  -----------------  -----------------
         C           -2.434325980035    -0.062350681018     0.293797378527    12.000000000000
         C           -2.346325980035     1.053649318982     1.333797378527    12.000000000000
         C           -2.557325980035    -1.430350681018     0.941797378527    12.000000000000
         O           -3.500325980035    -1.694350681018     1.681797378527    15.994914619570
         N           -1.611325980035    -2.312350681018     0.666797378527    14.003074004430
         H           -3.317325980035     0.049649318982    -0.329202621473     1.007825032230
         H           -1.561325980035    -0.018350681018    -0.358202621473     1.007825032230
         H           -1.364325980035     1.018649318982     1.808797378527     1.007825032230
         H           -3.093325980035     0.865649318982     2.105797378527     1.007825032230
         H           -1.681325980035    -3.219350681018     1.100797378527     1.007825032230
         H           -0.797325980035    -2.065350681018     0.117797378527     1.007825032230
         H           -2.520728980035     2.064899318982     0.937622378527     1.007825032230
         C            2.420674019965     3.439649318982    -0.719202621473    12.000000000000
         C            1.193674019965     0.066649318982     0.503797378527    12.000000000000
         C            1.321674019965    -0.703350681018    -0.640202621473    12.000000000000
         C            1.544674019965     1.400649318982     0.477797378527    12.000000000000
         C            2.042674019965     1.979649318982    -0.690202621473    12.000000000000
         C            1.806674019965    -0.144350681018    -1.815202621473    12.000000000000
         C            2.164674019965     1.192649318982    -1.835202621473    12.000000000000
         O            0.961674019965    -2.013350681018    -0.601202621473    15.994914619570
         H            0.828674019965    -0.385350681018     1.411797378527     1.007825032230
         H            1.445674019965     1.996649318982     1.374797378527     1.007825032230
         H            1.927674019965    -0.745350681018    -2.705202621473     1.007825032230
         H            1.250674019965    -2.493350681018    -1.385202621473     1.007825032230
         H            3.299674019965     3.567649318982    -1.353202621473     1.007825032230
         H            2.692674019965     3.759649318982     0.285797378527     1.007825032230
         H            2.563674019965     1.625649318982    -2.742202621473     1.007825032230
         H            1.605121019965     4.074128318982    -1.096440621473     1.007825032230

  Running in c1 symmetry.

  Rotational constants: A =      0.04205  B =      0.01356  C =      0.01111 [cm^-1]
  Rotational constants: A =   1260.70111  B =    406.56296  C =    333.14221 [MHz]
  Nuclear repulsion =  774.501846323666541

  Charge       = 0
  Multiplicity = 1
  Electrons    = 98
  Nalpha       = 49
  Nbeta        = 49

  ==> Algorithm <==

  SCF Algorithm Type is PK.
  DIIS enabled.
  MOM disabled.
  Fractional occupation disabled.
  Guess Type is SAD.
  Energy threshold   = 1.00e-06
  Density threshold  = 1.00e-10
  Integral threshold = 0.00e+00

  ==> Primary Basis <==

  Basis Set: CC-PVDZ
    Blend: CC-PVDZ
    Number of shells: 123
    Number of basis function: 257
    Number of Cartesian functions: 270
    Spherical Harmonics?: true
    Max angular momentum: 2

  ==> Pre-Iterations <==

   -------------------------------------------------------
    Irrep   Nso     Nmo     Nalpha   Nbeta   Ndocc  Nsocc
   -------------------------------------------------------
     A        257     257       0       0       0       0
   -------------------------------------------------------
    Total     257     257      49      49      49       0
   -------------------------------------------------------

  ==> Integral Setup <==

  Using integral reordering PK algorithm.
  Sizing the integral batches needed.
  Building batch lookup table.
   Calculation information:
      Number of atoms:                  28
      Number of AO shells:             123
      Number of primitives:            361
      Number of atomic orbitals:       270
      Number of basis functions:       257

      Integral cutoff                 1.00e-12
      Number of threads:                 1

	Batch   1 pq = [       0,    9405] index = [             0,44231715] size =     44231715
	Batch   2 pq = [    9405,   13301] index = [      44231715,88464951] size =     44233236
	Batch   3 pq = [   13301,   16290] index = [      88464951,132690195] size =     44225244
	Batch   4 pq = [   16290,   18810] index = [     132690195,176917455] size =     44227260
	Batch   5 pq = [   18810,   21030] index = [     176917455,221140965] size =     44223510
	Batch   6 pq = [   21030,   23037] index = [     221140965,265363203] size =     44222238
	Batch   7 pq = [   23037,   24883] index = [     265363203,309594286] size =     44231083
	Batch   8 pq = [   24883,   26601] index = [     309594286,353819901] size =     44225615
	Batch   9 pq = [   26601,   28214] index = [     353819901,398029005] size =     44209104
	Batch  10 pq = [   28214,   29740] index = [     398029005,442248670] size =     44219665
	Batch  11 pq = [   29740,   31191] index = [     442248670,486454836] size =     44206166
	Batch  12 pq = [   31191,   32578] index = [     486454836,530679331] size =     44224495
	Batch  13 pq = [   32578,   33153] index = [     530679331,549577281] size =     18897950
  Task number: 50
  Buffer size: 11059200
  Buffer per thread: 2
  We computed 29379358 shell quartets total.
  Whereas there are 29081751 unique shell quartets.
     1.02 percent of shell quartets recomputed by reordering.

  ==> DiskJK: Disk-Based J/K Matrices <==

    J tasked:                  Yes
    K tasked:                  Yes
    wK tasked:                  No
    Memory [MiB]:              375
    Schwarz Cutoff:          1E-12

    OpenMP threads:              1

  Minimum eigenvalue in the overlap matrix is 3.0533709105E-04.
  Using Symmetric Orthogonalization.

  SCF Guess: Superposition of Atomic Densities via on-the-fly atomic UHF.

  ==> Iterations <==

                        Total Energy        Delta E     RMS |[F,P]|

   @RHF iter SAD:  -590.43723315765010   -5.90437e+02   0.00000e+00
   @RHF iter   1:  -591.31300911910409   -8.75776e-01   2.99029e-03 DIIS
   @RHF iter   2:  -591.58913289681436   -2.76124e-01   1.52477e-03 DIIS
   @RHF iter   3:  -591.65151683674173   -6.23839e-02   3.63052e-04 DIIS
   @RHF iter   4:  -591.65655453416355   -5.03770e-03   1.49757e-04 DIIS
   @RHF iter   5:  -591.65740111551781   -8.46581e-04   2.14136e-05 DIIS
   @RHF iter   6:  -591.65743882930065   -3.77138e-05   9.17978e-06 DIIS
   @RHF iter   7:  -591.65744443619928   -5.60690e-06   3.55414e-06 DIIS
   @RHF iter   8:  -591.65744559811094   -1.16191e-06   1.42371e-06 DIIS
   @RHF iter   9:  -591.65744576928148   -1.71171e-07   5.23514e-07 DIIS
   @RHF iter  10:  -591.65744579050920   -2.12277e-08   1.60823e-07 DIIS
   @RHF iter  11:  -591.65744579269960   -2.19040e-09   4.89265e-08 DIIS
   @RHF iter  12:  -591.65744579287161   -1.72008e-10   1.60112e-08 DIIS
   @RHF iter  13:  -591.65744579289367   -2.20552e-11   4.84624e-09 DIIS
   @RHF iter  14:  -591.65744579289344    2.27374e-13   1.85249e-09 DIIS
   @RHF iter  15:  -591.65744579289230    1.13687e-12   8.95715e-10 DIIS
   @RHF iter  16:  -591.65744579288889    3.41061e-12   3.91834e-10 DIIS
   @RHF iter  17:  -591.65744579289299   -4.09273e-12   1.56129e-10 DIIS
   @RHF iter  18:  -591.65744579289060    2.38742e-12   5.29997e-11 DIIS
  Energy and wave function converged.

  ==> Post-Iterations <==

    Orbital Energies [Eh]
    ---------------------

    Doubly Occupied:

       1A    -20.613651     2A    -20.484390     3A    -15.562343
       4A    -11.325177     5A    -11.315598     6A    -11.251958
       7A    -11.250431     8A    -11.249566     9A    -11.247608
      10A    -11.244380    11A    -11.237868    12A    -11.224462
      13A    -11.217188    14A     -1.432898    15A     -1.350819
      16A     -1.195152    17A     -1.169491    18A     -1.052999
      19A     -1.038083    20A     -1.034539    21A     -0.940806
      22A     -0.875795    23A     -0.862873    24A     -0.821645
      25A     -0.771797    26A     -0.755364    27A     -0.712118
      28A     -0.684541    29A     -0.657555    30A     -0.650237
      31A     -0.626077    32A     -0.612459    33A     -0.609044
      34A     -0.602547    35A     -0.589562    36A     -0.582529
      37A     -0.567548    38A     -0.551567    39A     -0.540513
      40A     -0.511820    41A     -0.508101    42A     -0.500198
      43A     -0.490916    44A     -0.485467    45A     -0.481184
      46A     -0.390752    47A     -0.382694    48A     -0.356004
      49A     -0.319385

    Virtual:

      50A      0.116554    51A      0.137419    52A      0.159280
      53A      0.172203    54A      0.191002    55A      0.204642
      56A      0.210543    57A      0.222564    58A      0.243366
      59A      0.249996    60A      0.250489    61A      0.260477
      62A      0.265912    63A      0.275363    64A      0.284427
      65A      0.293128    66A      0.325084    67A      0.350308
      68A      0.365345    69A      0.371784    70A      0.395961
      71A      0.424559    72A      0.441213    73A      0.444640
      74A      0.476978    75A      0.483214    76A      0.491741
      77A      0.496920    78A      0.586194    79A      0.590821
      80A      0.597960    81A      0.623062    82A      0.632464
      83A      0.643459    84A      0.647718    85A      0.664359
      86A      0.675457    87A      0.681284    88A      0.698292
      89A      0.699924    90A      0.718252    91A      0.724677
      92A      0.728735    93A      0.745002    94A      0.762231
      95A      0.768800    96A      0.778230    97A      0.788612
      98A      0.798212    99A      0.817162   100A      0.818505
     101A      0.846155   102A      0.851942   103A      0.864868
     104A      0.871071   105A      0.874243   106A      0.883018
     107A      0.885466   108A      0.893240   109A      0.904237
     110A      0.910321   111A      0.918223   112A      0.925702
     113A      0.931149   114A      0.935177   115A      0.942411
     116A      0.955674   117A      0.963716   118A      0.988851
     119A      1.000868   120A      1.012787   121A      1.021136
     122A      1.043341   123A      1.046713   124A      1.058405
     125A      1.106699   126A      1.124319   127A      1.135298
     128A      1.140701   129A      1.153352   130A      1.157182
     131A      1.199198   132A      1.208248   133A      1.231464
     134A      1.246468   135A      1.250454   136A      1.276968
     137A      1.287284   138A      1.295615   139A      1.308207
     140A      1.327739   141A      1.346974   142A      1.351491
     143A      1.358587   144A      1.374003   145A      1.398406
     146A      1.410016   147A      1.436654   148A      1.472932
     149A      1.479256   150A      1.487485   151A      1.501396
     152A      1.508281   153A      1.519942   154A      1.547144
     155A      1.573423   156A      1.617894   157A      1.650886
     158A      1.665316   159A      1.673450   160A      1.690814
     161A      1.698886   162A      1.733170   163A      1.739277
     164A      1.766713   165A      1.771007   166A      1.786557
     167A      1.797696   168A      1.802242   169A      1.858250
     170A      1.863365   171A      1.875667   172A      1.883265
     173A      1.888852   174A      1.893284   175A      1.909116
     176A      1.914000   177A      1.921222   178A      1.924320
     179A      1.942108   180A      1.944038   181A      1.952958
     182A      1.962060   183A      1.968482   184A      1.973987
     185A      1.986157   186A      1.987067   187A      1.997796
     188A      2.001892   189A      2.034004   190A      2.038180
     191A      2.052236   192A      2.054572   193A      2.060169
     194A      2.089993   195A      2.093916   196A      2.134632
     197A      2.141668   198A      2.151515   199A      2.187463
     200A      2.191450   201A      2.220736   202A      2.248077
     203A      2.256073   204A      2.264127   205A      2.267950
     206A      2.283119   207A      2.284368   208A      2.313718
     209A      2.347639   210A      2.371412   211A      2.410653
     212A      2.425385   213A      2.435665   214A      2.461405
     215A      2.482001   216A      2.488946   217A      2.493532
     218A      2.526863   219A      2.548498   220A      2.566060
     221A      2.593304   222A      2.596699   223A      2.607886
     224A      2.633095   225A      2.669732   226A      2.685059
     227A      2.746167   228A      2.761871   229A      2.777935
     230A      2.785988   231A      2.796272   232A      2.809517
     233A      2.830278   234A      2.862186   235A      2.882177
     236A      2.906198   237A      2.940009   238A      2.975224
     239A      2.985531   240A      3.002067   241A      3.028392
     242A      3.082839   243A      3.103432   244A      3.122749
     245A      3.153566   246A      3.219215   247A      3.278450
     248A      3.317609   249A      3.385917   250A      3.538110
     251A      3.545232   252A      3.596420   253A      3.668432
     254A      3.894058   255A      3.931862   256A      3.969771
     257A      4.176041

    Final Occupation by Irrep:
              A
    DOCC [    49 ]

  @RHF Final Energy:  -591.65744579289060

   => Energetics <=

    Nuclear Repulsion Energy =            774.5018463236665411
    One-Electron Energy =               -2342.4391857844930200
    Two-Electron Energy =                 976.2798936679358803
    Total Energy =                       -591.6574457928905986

Computation Completed

Properties will be evaluated at   0.000000,   0.000000,   0.000000 [a0]

Properties computed using the SCF density matrix

  Nuclear Dipole Moment: [e a0]
     X:     1.1907      Y:     9.4531      Z:    -0.7715

  Electronic Dipole Moment: [e a0]
     X:     0.8597      Y:    -9.0923      Z:    -0.7392

  Dipole Moment: [e a0]
     X:     2.0504      Y:     0.3608      Z:    -1.5107     Total:     2.5723

  Dipole Moment: [D]
     X:     5.2116      Y:     0.9172      Z:    -3.8398     Total:     6.5380

*** tstop() called on ds3 at Mon Apr 27 10:44:33 2020
Module time:
	user time   =     230.13 seconds =       3.84 minutes
	system time =      81.13 seconds =       1.35 minutes
	total time  =       1326 seconds =      22.10 minutes
Total time:
	user time   =     230.13 seconds =       3.84 minutes
	system time =      81.13 seconds =       1.35 minutes
	total time  =       1326 seconds =      22.10 minutes
                                     G D M A

                                 by Anthony Stone

                           version 2.2.06, 22 June 2011

               Distributed Multipoles from Gaussian wavefunctions

Starting at 10:44:33 on 27 Apr 2020

Using SCF density matrix from file ./SSI/SSI-022GLN-147TYR-1-dimer.test.2518.fchk

                         Distributed Multipole Analysis

Standard DMA

Positions and radii in angstrom
Multipole moments in atomic units, ea_0^k for rank k

C          x = -2.434326  y = -0.062351  z =  0.293797 angstrom
           Maximum rank =  0   Radius =  0.650 angstrom
                   Q00  =  -0.131680

C          x = -2.346326  y =  1.053649  z =  1.333797 angstrom
           Maximum rank =  0   Radius =  0.650 angstrom
                   Q00  =  -0.205683

C          x = -2.557326  y = -1.430351  z =  0.941797 angstrom
           Maximum rank =  0   Radius =  0.650 angstrom
                   Q00  =   0.817417

O          x = -3.500326  y = -1.694351  z =  1.681797 angstrom
           Maximum rank =  0   Radius =  0.650 angstrom
                   Q00  =  -0.824747

N          x = -1.611326  y = -2.312351  z =  0.666797 angstrom
           Maximum rank =  0   Radius =  0.650 angstrom
                   Q00  =  -0.547994

H          x = -3.317326  y =  0.049649  z = -0.329203 angstrom
           Maximum rank =  0   Radius =  0.325 angstrom
                   Q00  =   0.103377

H          x = -1.561326  y = -0.018351  z = -0.358203 angstrom
           Maximum rank =  0   Radius =  0.325 angstrom
                   Q00  =   0.051311

H          x = -1.364326  y =  1.018649  z =  1.808797 angstrom
           Maximum rank =  0   Radius =  0.325 angstrom
                   Q00  =   0.069979

H          x = -3.093326  y =  0.865649  z =  2.105797 angstrom
           Maximum rank =  0   Radius =  0.325 angstrom
                   Q00  =   0.104937

H          x = -1.681326  y = -3.219351  z =  1.100797 angstrom
           Maximum rank =  0   Radius =  0.325 angstrom
                   Q00  =   0.203137

H          x = -0.797326  y = -2.065351  z =  0.117797 angstrom
           Maximum rank =  0   Radius =  0.325 angstrom
                   Q00  =   0.246549

H          x = -2.520729  y =  2.064899  z =  0.937622 angstrom
           Maximum rank =  0   Radius =  0.325 angstrom
                   Q00  =   0.086349

C          x =  2.420674  y =  3.439649  z = -0.719203 angstrom
           Maximum rank =  0   Radius =  0.650 angstrom
                   Q00  =  -0.192239

C          x =  1.193674  y =  0.066649  z =  0.503797 angstrom
           Maximum rank =  0   Radius =  0.650 angstrom
                   Q00  =  -0.109612

C          x =  1.321674  y = -0.703351  z = -0.640203 angstrom
           Maximum rank =  0   Radius =  0.650 angstrom
                   Q00  =   0.343042

C          x =  1.544674  y =  1.400649  z =  0.477797 angstrom
           Maximum rank =  0   Radius =  0.650 angstrom
                   Q00  =  -0.000001

C          x =  2.042674  y =  1.979649  z = -0.690203 angstrom
           Maximum rank =  0   Radius =  0.650 angstrom
                   Q00  =  -0.132057

C          x =  1.806674  y = -0.144351  z = -1.815203 angstrom
           Maximum rank =  0   Radius =  0.650 angstrom
                   Q00  =  -0.172229

C          x =  2.164674  y =  1.192649  z = -1.835203 angstrom
           Maximum rank =  0   Radius =  0.650 angstrom
                   Q00  =  -0.063966

O          x =  0.961674  y = -2.013351  z = -0.601203 angstrom
           Maximum rank =  0   Radius =  0.650 angstrom
                   Q00  =  -0.667890

H          x =  0.828674  y = -0.385351  z =  1.411797 angstrom
           Maximum rank =  0   Radius =  0.325 angstrom
                   Q00  =   0.082401

H          x =  1.445674  y =  1.996649  z =  1.374797 angstrom
           Maximum rank =  0   Radius =  0.325 angstrom
                   Q00  =   0.070596

H          x =  1.927674  y = -0.745351  z = -2.705203 angstrom
           Maximum rank =  0   Radius =  0.325 angstrom
                   Q00  =   0.075113

H          x =  1.250674  y = -2.493351  z = -1.385203 angstrom
           Maximum rank =  0   Radius =  0.325 angstrom
                   Q00  =   0.421349

H          x =  3.299674  y =  3.567649  z = -1.353203 angstrom
           Maximum rank =  0   Radius =  0.325 angstrom
                   Q00  =   0.097658

H          x =  2.692674  y =  3.759649  z =  0.285797 angstrom
           Maximum rank =  0   Radius =  0.325 angstrom
                   Q00  =   0.099637

H          x =  2.563674  y =  1.625649  z = -2.742203 angstrom
           Maximum rank =  0   Radius =  0.325 angstrom
                   Q00  =   0.071145

H          x =  1.605121  y =  4.074128  z = -1.096441 angstrom
           Maximum rank =  0   Radius =  0.325 angstrom
                   Q00  =   0.104101

Total multipoles referred to origin at
           x =   0.000000,  y =    0.000000,  z =    0.000000 angstrom
                   Q00  =  -0.000000

Finished at 10:44:34 on 27 Apr 2020

  DMA results are available in the Python driver through the
	  variable('DMA DISTRIBUTED MULTIPOLES')
  and
	  variable('DMA TOTAL MULTIPOLES')
  commands.

    Psi4 stopped on: Monday, 27 April 2020 10:44AM
    Psi4 wall time for execution: 0:22:06.95

*** Psi4 exiting successfully. Buy a developer a beer!
