                               Psi4 1.3.2 release

  ==> Input File <==

--------------------------------------------------------------------------
import numpy as np
set {scf_type pk
basis cc-pvdz
d_convergence 10
gdma_switch   0
gdma_limit    0
gdma_origin   [ 0.0,  0.0,  0.0 ]
}
molecule test {
    units Angstrom
    0 1
    --
    0 1
    C               -2.726899698394814     1.382766937039058     0.642801085841389
    C               -3.328899698394814     1.693766937039058     2.015801085841389
    H               -3.500899698394814     1.453766937039058    -0.120198914158611
    H               -1.934899698394814     2.097766937039058     0.419801085841389
    H               -2.316899698394814     0.371766937039057     0.640801085841389
    H               -2.561899698394814     1.561766937039057     2.776801085841389
    H               -4.188907698394813     1.039856937039058     2.222661085841389
    H               -3.678232698394814     2.736706937039057     2.031713085841389
    C               -0.119899698394814    -1.202233062960943    -2.480198914158611
    C                0.272100301605186     0.491766937039057    -0.649198914158611
    C                0.562100301605186    -0.743233062960943    -1.236198914158611
    C                0.897100301605186     0.847766937039057     0.530801085841389
    C                1.834100301605186    -0.001233062960943     1.135801085841389
    C                1.494100301605186    -1.588233062960942    -0.637198914158611
    C                2.125100301605186    -1.223233062960943     0.554801085841389
    H               -0.436899698394814     1.163766937039057    -1.110198914158611
    H                0.669100301605186     1.799766937039057     0.986801085841389
    H               -1.172899698394814    -0.927233062960943    -2.416198914158611
    H               -0.099899698394814    -2.288233062960942    -2.514198914158611
    H                2.326100301605186     0.294766937039057     2.051801085841389
    H                1.721100301605186    -2.541233062960942    -1.092198914158611
    H                2.857100301605186    -1.879233062960943     1.000801085841389
    H                0.305205301605186    -0.810703062960943    -3.416143914158611

}
e, wfn = energy('scf', return_wfn=True)
gdma(wfn)
dmavals = variable('DMA DISTRIBUTED MULTIPOLES')
charges = np.array(dmavals)
print(charges)
np.save('SSI-005ALA-019PHE-1-dimer.npy', np.array(charges))--------------------------------------------------------------------------

*** tstart() called on ds3
*** at Mon Apr 27 06:45:27 2020

   => Loading Basis Set <=

    Name: CC-PVDZ
    Role: ORBITAL
    Keyword: BASIS
    atoms 1-2, 9-15  entry C          line   138 file /theoryfs2/ds/metcalf/miniconda2/envs/tf2gpu/share/psi4/basis/cc-pvdz.gbs
    atoms 3-8, 16-23 entry H          line    22 file /theoryfs2/ds/metcalf/miniconda2/envs/tf2gpu/share/psi4/basis/cc-pvdz.gbs

         ---------------------------------------------------------
                                   SCF
               by Justin Turney, Rob Parrish, Andy Simmonett
                          and Daniel G. A. Smith
                              RHF Reference
                        1 Threads,    500 MiB Core
         ---------------------------------------------------------

  ==> Geometry <==

    Molecular point group: c1
    Full point group: C1

    Geometry (in Angstrom), charge = 0, multiplicity = 1:

       Center              X                  Y                   Z               Mass
    ------------   -----------------  -----------------  -----------------  -----------------
         C           -2.726899698395     1.382766937039     0.642801085841    12.000000000000
         C           -3.328899698395     1.693766937039     2.015801085841    12.000000000000
         H           -3.500899698395     1.453766937039    -0.120198914159     1.007825032230
         H           -1.934899698395     2.097766937039     0.419801085841     1.007825032230
         H           -2.316899698395     0.371766937039     0.640801085841     1.007825032230
         H           -2.561899698395     1.561766937039     2.776801085841     1.007825032230
         H           -4.188907698395     1.039856937039     2.222661085841     1.007825032230
         H           -3.678232698395     2.736706937039     2.031713085841     1.007825032230
         C           -0.119899698395    -1.202233062961    -2.480198914159    12.000000000000
         C            0.272100301605     0.491766937039    -0.649198914159    12.000000000000
         C            0.562100301605    -0.743233062961    -1.236198914159    12.000000000000
         C            0.897100301605     0.847766937039     0.530801085841    12.000000000000
         C            1.834100301605    -0.001233062961     1.135801085841    12.000000000000
         C            1.494100301605    -1.588233062961    -0.637198914159    12.000000000000
         C            2.125100301605    -1.223233062961     0.554801085841    12.000000000000
         H           -0.436899698395     1.163766937039    -1.110198914159     1.007825032230
         H            0.669100301605     1.799766937039     0.986801085841     1.007825032230
         H           -1.172899698395    -0.927233062961    -2.416198914159     1.007825032230
         H           -0.099899698395    -2.288233062961    -2.514198914159     1.007825032230
         H            2.326100301605     0.294766937039     2.051801085841     1.007825032230
         H            1.721100301605    -2.541233062961    -1.092198914159     1.007825032230
         H            2.857100301605    -1.879233062961     1.000801085841     1.007825032230
         H            0.305205301605    -0.810703062961    -3.416143914159     1.007825032230

  Running in c1 symmetry.

  Rotational constants: A =      0.06954  B =      0.02631  C =      0.02087 [cm^-1]
  Rotational constants: A =   2084.76411  B =    788.82324  C =    625.70408 [MHz]
  Nuclear repulsion =  408.956533366981546

  Charge       = 0
  Multiplicity = 1
  Electrons    = 68
  Nalpha       = 34
  Nbeta        = 34

  ==> Algorithm <==

  SCF Algorithm Type is PK.
  DIIS enabled.
  MOM disabled.
  Fractional occupation disabled.
  Guess Type is SAD.
  Energy threshold   = 1.00e-06
  Density threshold  = 1.00e-10
  Integral threshold = 0.00e+00

  ==> Primary Basis <==

  Basis Set: CC-PVDZ
    Blend: CC-PVDZ
    Number of shells: 96
    Number of basis function: 196
    Number of Cartesian functions: 205
    Spherical Harmonics?: true
    Max angular momentum: 2

  ==> Pre-Iterations <==

   -------------------------------------------------------
    Irrep   Nso     Nmo     Nalpha   Nbeta   Ndocc  Nsocc
   -------------------------------------------------------
     A        196     196       0       0       0       0
   -------------------------------------------------------
    Total     196     196      34      34      34       0
   -------------------------------------------------------

  ==> Integral Setup <==

  Using integral reordering PK algorithm.
  Sizing the integral batches needed.
  Building batch lookup table.
   Calculation information:
      Number of atoms:                  23
      Number of AO shells:              96
      Number of primitives:            268
      Number of atomic orbitals:       205
      Number of basis functions:       196

      Integral cutoff                 1.00e-12
      Number of threads:                 1

	Batch   1 pq = [       0,    9405] index = [             0,44231715] size =     44231715
	Batch   2 pq = [    9405,   13301] index = [      44231715,88464951] size =     44233236
	Batch   3 pq = [   13301,   16290] index = [      88464951,132690195] size =     44225244
	Batch   4 pq = [   16290,   18810] index = [     132690195,176917455] size =     44227260
	Batch   5 pq = [   18810,   19306] index = [     176917455,186370471] size =      9453016
  Task number: 17
  Buffer size: 11059200
  Buffer per thread: 2
  We computed 9485785 shell quartets total.
  Whereas there are 10841496 unique shell quartets.

  ==> DiskJK: Disk-Based J/K Matrices <==

    J tasked:                  Yes
    K tasked:                  Yes
    wK tasked:                  No
    Memory [MiB]:              375
    Schwarz Cutoff:          1E-12

    OpenMP threads:              1

  Minimum eigenvalue in the overlap matrix is 3.1405367854E-04.
  Using Symmetric Orthogonalization.

  SCF Guess: Superposition of Atomic Densities via on-the-fly atomic UHF.

  ==> Iterations <==

                        Total Energy        Delta E     RMS |[F,P]|

   @RHF iter SAD:  -347.91656064239436   -3.47917e+02   0.00000e+00
   @RHF iter   1:  -348.76349918266874   -8.46939e-01   2.90135e-03 DIIS
   @RHF iter   2:  -348.95721271822470   -1.93714e-01   1.20047e-03 DIIS
   @RHF iter   3:  -348.98741644558817   -3.02037e-02   2.59985e-04 DIIS
   @RHF iter   4:  -348.98991006481765   -2.49362e-03   5.46592e-05 DIIS
   @RHF iter   5:  -348.98998766280693   -7.75980e-05   1.82608e-05 DIIS
   @RHF iter   6:  -348.98999594215968   -8.27935e-06   4.99550e-06 DIIS
   @RHF iter   7:  -348.98999668967207   -7.47512e-07   1.33818e-06 DIIS
   @RHF iter   8:  -348.98999677002189   -8.03498e-08   4.37109e-07 DIIS
   @RHF iter   9:  -348.98999678906102   -1.90391e-08   2.15200e-07 DIIS
   @RHF iter  10:  -348.98999679455352   -5.49250e-09   9.42289e-08 DIIS
   @RHF iter  11:  -348.98999679583727   -1.28375e-09   2.64181e-08 DIIS
   @RHF iter  12:  -348.98999679589951   -6.22435e-11   1.04657e-08 DIIS
   @RHF iter  13:  -348.98999679590759   -8.07177e-12   4.00960e-09 DIIS
   @RHF iter  14:  -348.98999679590770   -1.13687e-13   1.29065e-09 DIIS
   @RHF iter  15:  -348.98999679590929   -1.59162e-12   6.28889e-10 DIIS
   @RHF iter  16:  -348.98999679590997   -6.82121e-13   2.75541e-10 DIIS
   @RHF iter  17:  -348.98999679591020   -2.27374e-13   9.77243e-11 DIIS
  Energy and wave function converged.

  ==> Post-Iterations <==

    Orbital Energies [Eh]
    ---------------------

    Doubly Occupied:

       1A    -11.238687     2A    -11.234429     3A    -11.234049
       4A    -11.230836     5A    -11.229066     6A    -11.228956
       7A    -11.226319     8A    -11.217423     9A    -11.214466
      10A     -1.152443    11A     -1.045097    12A     -1.017118
      13A     -1.011357    14A     -0.930315    15A     -0.835500
      16A     -0.823779    17A     -0.794803    18A     -0.690819
      19A     -0.631445    20A     -0.629836    21A     -0.599733
      22A     -0.595195    23A     -0.582290    24A     -0.577997
      25A     -0.562324    26A     -0.531717    27A     -0.498485
      28A     -0.488976    29A     -0.485151    30A     -0.484211
      31A     -0.481276    32A     -0.478773    33A     -0.331610
      34A     -0.320282

    Virtual:

      35A      0.136566    36A      0.140473    37A      0.175495
      38A      0.192165    39A      0.200958    40A      0.219682
      41A      0.236499    42A      0.237950    43A      0.257589
      44A      0.259350    45A      0.270150    46A      0.280541
      47A      0.286773    48A      0.291431    49A      0.293250
      50A      0.330079    51A      0.364886    52A      0.389086
      53A      0.406223    54A      0.452917    55A      0.463595
      56A      0.479440    57A      0.498829    58A      0.564776
      59A      0.590071    60A      0.598428    61A      0.605381
      62A      0.615554    63A      0.646664    64A      0.662835
      65A      0.676378    66A      0.693428    67A      0.698237
      68A      0.701768    69A      0.720961    70A      0.736967
      71A      0.746595    72A      0.749383    73A      0.762460
      74A      0.779656    75A      0.784875    76A      0.817947
      77A      0.832517    78A      0.850988    79A      0.865020
      80A      0.869128    81A      0.875184    82A      0.891986
      83A      0.894935    84A      0.897888    85A      0.900578
      86A      0.906500    87A      0.916864    88A      0.931678
      89A      0.934159    90A      0.939455    91A      0.957114
      92A      0.978339    93A      0.983159    94A      0.996208
      95A      1.015958    96A      1.049633    97A      1.122060
      98A      1.129326    99A      1.136788   100A      1.149105
     101A      1.155104   102A      1.181552   103A      1.192896
     104A      1.223399   105A      1.243887   106A      1.252366
     107A      1.256777   108A      1.258858   109A      1.305813
     110A      1.322000   111A      1.328711   112A      1.342194
     113A      1.411856   114A      1.472945   115A      1.485077
     116A      1.511414   117A      1.537390   118A      1.554759
     119A      1.575975   120A      1.614476   121A      1.679507
     122A      1.685671   123A      1.699914   124A      1.703885
     125A      1.742689   126A      1.752578   127A      1.764602
     128A      1.789075   129A      1.816004   130A      1.859903
     131A      1.864562   132A      1.878798   133A      1.890422
     134A      1.902349   135A      1.915167   136A      1.917351
     137A      1.921315   138A      1.929464   139A      1.933369
     140A      1.944493   141A      1.946189   142A      1.954485
     143A      1.965101   144A      1.978319   145A      1.985330
     146A      1.993273   147A      2.003503   148A      2.008597
     149A      2.045734   150A      2.063182   151A      2.085248
     152A      2.100327   153A      2.111559   154A      2.122351
     155A      2.145214   156A      2.158318   157A      2.172349
     158A      2.179593   159A      2.184738   160A      2.258829
     161A      2.277685   162A      2.296837   163A      2.301442
     164A      2.311581   165A      2.323411   166A      2.329228
     167A      2.338391   168A      2.458009   169A      2.469182
     170A      2.472950   171A      2.486438   172A      2.507787
     173A      2.548699   174A      2.568429   175A      2.577710
     176A      2.625418   177A      2.742591   178A      2.759127
     179A      2.764678   180A      2.773692   181A      2.788186
     182A      2.801342   183A      2.815352   184A      2.845259
     185A      2.857799   186A      2.860984   187A      2.879696
     188A      2.955277   189A      2.964806   190A      2.983312
     191A      3.014751   192A      3.032147   193A      3.161756
     194A      3.206958   195A      3.302771   196A      3.974946

    Final Occupation by Irrep:
              A
    DOCC [    34 ]

  @RHF Final Energy:  -348.98999679591020

   => Energetics <=

    Nuclear Repulsion Energy =            408.9565333669815459
    One-Electron Energy =               -1280.6235332004926022
    Two-Electron Energy =                 522.6770030376007981
    Total Energy =                       -348.9899967959102014

Computation Completed

Properties will be evaluated at   0.000000,   0.000000,   0.000000 [a0]

Properties computed using the SCF density matrix

  Nuclear Dipole Moment: [e a0]
     X:   -11.2617      Y:     3.8186      Z:     1.3706

  Electronic Dipole Moment: [e a0]
     X:    11.2115      Y:    -3.8773      Z:    -1.4759

  Dipole Moment: [e a0]
     X:    -0.0501      Y:    -0.0587      Z:    -0.1053     Total:     0.1305

  Dipole Moment: [D]
     X:    -0.1274      Y:    -0.1492      Z:    -0.2676     Total:     0.3318

*** tstop() called on ds3 at Mon Apr 27 06:46:57 2020
Module time:
	user time   =      65.05 seconds =       1.08 minutes
	system time =      28.75 seconds =       0.48 minutes
	total time  =         90 seconds =       1.50 minutes
Total time:
	user time   =      65.05 seconds =       1.08 minutes
	system time =      28.75 seconds =       0.48 minutes
	total time  =         90 seconds =       1.50 minutes
                                     G D M A

                                 by Anthony Stone

                           version 2.2.06, 22 June 2011

               Distributed Multipoles from Gaussian wavefunctions

Starting at 6:46:57 on 27 Apr 2020

Using SCF density matrix from file ./SSI/SSI-005ALA-019PHE-1-dimer.test.6395.fchk

                         Distributed Multipole Analysis

Standard DMA

Positions and radii in angstrom
Multipole moments in atomic units, ea_0^k for rank k

C          x = -2.726900  y =  1.382767  z =  0.642801 angstrom
           Maximum rank =  0   Radius =  0.650 angstrom
                   Q00  =  -0.236713

C          x = -3.328900  y =  1.693767  z =  2.015801 angstrom
           Maximum rank =  0   Radius =  0.650 angstrom
                   Q00  =  -0.234530

H          x = -3.500900  y =  1.453767  z = -0.120199 angstrom
           Maximum rank =  0   Radius =  0.325 angstrom
                   Q00  =   0.075849

H          x = -1.934900  y =  2.097767  z =  0.419801 angstrom
           Maximum rank =  0   Radius =  0.325 angstrom
                   Q00  =   0.070937

H          x = -2.316900  y =  0.371767  z =  0.640801 angstrom
           Maximum rank =  0   Radius =  0.325 angstrom
                   Q00  =   0.089165

H          x = -2.561900  y =  1.561767  z =  2.776801 angstrom
           Maximum rank =  0   Radius =  0.325 angstrom
                   Q00  =   0.080458

H          x = -4.188908  y =  1.039857  z =  2.222661 angstrom
           Maximum rank =  0   Radius =  0.325 angstrom
                   Q00  =   0.080242

H          x = -3.678233  y =  2.736707  z =  2.031713 angstrom
           Maximum rank =  0   Radius =  0.325 angstrom
                   Q00  =   0.074351

C          x = -0.119900  y = -1.202233  z = -2.480199 angstrom
           Maximum rank =  0   Radius =  0.650 angstrom
                   Q00  =  -0.206637

C          x =  0.272100  y =  0.491767  z = -0.649199 angstrom
           Maximum rank =  0   Radius =  0.650 angstrom
                   Q00  =  -0.091362

C          x =  0.562100  y = -0.743233  z = -1.236199 angstrom
           Maximum rank =  0   Radius =  0.650 angstrom
                   Q00  =  -0.083913

C          x =  0.897100  y =  0.847767  z =  0.530801 angstrom
           Maximum rank =  0   Radius =  0.650 angstrom
                   Q00  =  -0.027184

C          x =  1.834100  y = -0.001233  z =  1.135801 angstrom
           Maximum rank =  0   Radius =  0.650 angstrom
                   Q00  =  -0.088247

C          x =  1.494100  y = -1.588233  z = -0.637199 angstrom
           Maximum rank =  0   Radius =  0.650 angstrom
                   Q00  =  -0.038790

C          x =  2.125100  y = -1.223233  z =  0.554801 angstrom
           Maximum rank =  0   Radius =  0.650 angstrom
                   Q00  =  -0.066565

H          x = -0.436900  y =  1.163767  z = -1.110199 angstrom
           Maximum rank =  0   Radius =  0.325 angstrom
                   Q00  =   0.060623

H          x =  0.669100  y =  1.799767  z =  0.986801 angstrom
           Maximum rank =  0   Radius =  0.325 angstrom
                   Q00  =   0.062130

H          x = -1.172900  y = -0.927233  z = -2.416199 angstrom
           Maximum rank =  0   Radius =  0.325 angstrom
                   Q00  =   0.096732

H          x = -0.099900  y = -2.288233  z = -2.514199 angstrom
           Maximum rank =  0   Radius =  0.325 angstrom
                   Q00  =   0.096082

H          x =  2.326100  y =  0.294767  z =  2.051801 angstrom
           Maximum rank =  0   Radius =  0.325 angstrom
                   Q00  =   0.061576

H          x =  1.721100  y = -2.541233  z = -1.092199 angstrom
           Maximum rank =  0   Radius =  0.325 angstrom
                   Q00  =   0.056985

H          x =  2.857100  y = -1.879233  z =  1.000801 angstrom
           Maximum rank =  0   Radius =  0.325 angstrom
                   Q00  =   0.064819

H          x =  0.305205  y = -0.810703  z = -3.416144 angstrom
           Maximum rank =  0   Radius =  0.325 angstrom
                   Q00  =   0.103991

Total multipoles referred to origin at
           x =   0.000000,  y =    0.000000,  z =    0.000000 angstrom
                   Q00  =  -0.000000

Finished at 6:46:57 on 27 Apr 2020

  DMA results are available in the Python driver through the
	  variable('DMA DISTRIBUTED MULTIPOLES')
  and
	  variable('DMA TOTAL MULTIPOLES')
  commands.

    Psi4 stopped on: Monday, 27 April 2020 06:46AM
    Psi4 wall time for execution: 0:01:30.89

*** Psi4 exiting successfully. Buy a developer a beer!
