                               Psi4 1.3.2 release

  ==> Input File <==

--------------------------------------------------------------------------
import numpy as np
set {scf_type pk
basis cc-pvdz
d_convergence 10
gdma_switch   0
gdma_limit    0
gdma_origin   [ 0.0,  0.0,  0.0 ]
}
molecule test {
    units Angstrom
    0 1
    --
    0 1
    C                2.001589301084623     1.330636137071758    -1.753520997405979
    C                1.321589301084623     1.686636137071758    -3.083520997405980
    H                1.585589301084623     0.402636137071758    -1.358520997405979
    H                3.071589301084622     1.199636137071758    -1.916520997405979
    H                1.857589301084623     2.138636137071757    -1.035520997405979
    H                1.757589301084623     2.619636137071758    -3.436520997405979
    H                0.245469301084623     1.824228537071758    -2.901750997405979
    H                1.491949301084623     0.912898137071758    -3.846610997405979
    C               -0.612410698915377     0.761636137071758     1.042479002594021
    C               -1.386410698915377    -1.677363862928242     2.197479002594021
    S               -0.610410698915377    -1.008363862928242     0.713479002594021
    H               -0.143410698915377     0.955636137071758     2.005479002594021
    H               -0.056410698915377     1.278636137071758     0.261479002594021
    H               -1.636410698915377     1.136636137071758     1.049479002594021
    H               -0.789410698915377    -1.383363862928242     3.062479002594021
    H               -1.364410698915377    -2.766363862928242     2.134479002594021
    H               -2.424050698915378    -1.352417862928242     2.363969002594021

}
e, wfn = energy('scf', return_wfn=True)
gdma(wfn)
dmavals = variable('DMA DISTRIBUTED MULTIPOLES')
charges = np.array(dmavals)
print(charges)
np.save('SSI-036LEU-039MET-1-dimer.npy', np.array(charges))--------------------------------------------------------------------------

*** tstart() called on ds3
*** at Tue Apr 28 04:22:13 2020

   => Loading Basis Set <=

    Name: CC-PVDZ
    Role: ORBITAL
    Keyword: BASIS
    atoms 1-2, 9-10  entry C          line   138 file /theoryfs2/ds/metcalf/miniconda2/envs/tf2gpu/share/psi4/basis/cc-pvdz.gbs
    atoms 3-8, 12-17 entry H          line    22 file /theoryfs2/ds/metcalf/miniconda2/envs/tf2gpu/share/psi4/basis/cc-pvdz.gbs
    atoms 11         entry S          line   598 file /theoryfs2/ds/metcalf/miniconda2/envs/tf2gpu/share/psi4/basis/cc-pvdz.gbs

         ---------------------------------------------------------
                                   SCF
               by Justin Turney, Rob Parrish, Andy Simmonett
                          and Daniel G. A. Smith
                              RHF Reference
                        1 Threads,    500 MiB Core
         ---------------------------------------------------------

  ==> Geometry <==

    Molecular point group: c1
    Full point group: C1

    Geometry (in Angstrom), charge = 0, multiplicity = 1:

       Center              X                  Y                   Z               Mass
    ------------   -----------------  -----------------  -----------------  -----------------
         C            2.001589301085     1.330636137072    -1.753520997406    12.000000000000
         C            1.321589301085     1.686636137072    -3.083520997406    12.000000000000
         H            1.585589301085     0.402636137072    -1.358520997406     1.007825032230
         H            3.071589301085     1.199636137072    -1.916520997406     1.007825032230
         H            1.857589301085     2.138636137072    -1.035520997406     1.007825032230
         H            1.757589301085     2.619636137072    -3.436520997406     1.007825032230
         H            0.245469301085     1.824228537072    -2.901750997406     1.007825032230
         H            1.491949301085     0.912898137072    -3.846610997406     1.007825032230
         C           -0.612410698915     0.761636137072     1.042479002594    12.000000000000
         C           -1.386410698915    -1.677363862928     2.197479002594    12.000000000000
         S           -0.610410698915    -1.008363862928     0.713479002594    31.972071174400
         H           -0.143410698915     0.955636137072     2.005479002594     1.007825032230
         H           -0.056410698915     1.278636137072     0.261479002594     1.007825032230
         H           -1.636410698915     1.136636137072     1.049479002594     1.007825032230
         H           -0.789410698915    -1.383363862928     3.062479002594     1.007825032230
         H           -1.364410698915    -2.766363862928     2.134479002594     1.007825032230
         H           -2.424050698915    -1.352417862928     2.363969002594     1.007825032230

  Running in c1 symmetry.

  Rotational constants: A =      0.28708  B =      0.02967  C =      0.02872 [cm^-1]
  Rotational constants: A =   8606.47316  B =    889.36307  C =    860.86143 [MHz]
  Nuclear repulsion =  219.413126309126710

  Charge       = 0
  Multiplicity = 1
  Electrons    = 52
  Nalpha       = 26
  Nbeta        = 26

  ==> Algorithm <==

  SCF Algorithm Type is PK.
  DIIS enabled.
  MOM disabled.
  Fractional occupation disabled.
  Guess Type is SAD.
  Energy threshold   = 1.00e-06
  Density threshold  = 1.00e-10
  Integral threshold = 0.00e+00

  ==> Primary Basis <==

  Basis Set: CC-PVDZ
    Blend: CC-PVDZ
    Number of shells: 68
    Number of basis function: 134
    Number of Cartesian functions: 139
    Spherical Harmonics?: true
    Max angular momentum: 2

  ==> Pre-Iterations <==

   -------------------------------------------------------
    Irrep   Nso     Nmo     Nalpha   Nbeta   Ndocc  Nsocc
   -------------------------------------------------------
     A        134     134       0       0       0       0
   -------------------------------------------------------
    Total     134     134      26      26      26       0
   -------------------------------------------------------

  ==> Integral Setup <==

  Using integral reordering PK algorithm.
  Sizing the integral batches needed.
  Building batch lookup table.
   Calculation information:
      Number of atoms:                  17
      Number of AO shells:              68
      Number of primitives:            198
      Number of atomic orbitals:       139
      Number of basis functions:       134

      Integral cutoff                 1.00e-12
      Number of threads:                 1

	Batch   1 pq = [       0,    9045] index = [             0,40910535] size =     40910535
  Task number: 4
  Buffer size: 11059200
  Buffer per thread: 2
  We computed 2085599 shell quartets total.
  Whereas there are 2753031 unique shell quartets.

  ==> DiskJK: Disk-Based J/K Matrices <==

    J tasked:                  Yes
    K tasked:                  Yes
    wK tasked:                  No
    Memory [MiB]:              375
    Schwarz Cutoff:          1E-12

    OpenMP threads:              1

  Minimum eigenvalue in the overlap matrix is 7.9190959400E-03.
  Using Symmetric Orthogonalization.

  SCF Guess: Superposition of Atomic Densities via on-the-fly atomic UHF.

  ==> Iterations <==

                        Total Energy        Delta E     RMS |[F,P]|

   @RHF iter SAD:  -554.87473214757119   -5.54875e+02   0.00000e+00
   @RHF iter   1:  -555.84814936024941   -9.73417e-01   3.35153e-03 DIIS
   @RHF iter   2:  -555.97040527437264   -1.22256e-01   1.32006e-03 DIIS
   @RHF iter   3:  -555.98800828928370   -1.76030e-02   3.12592e-04 DIIS
   @RHF iter   4:  -555.98985229650361   -1.84401e-03   4.68523e-05 DIIS
   @RHF iter   5:  -555.98988952772993   -3.72312e-05   1.02684e-05 DIIS
   @RHF iter   6:  -555.98989141748825   -1.88976e-06   2.38247e-06 DIIS
   @RHF iter   7:  -555.98989151692456   -9.94363e-08   7.04759e-07 DIIS
   @RHF iter   8:  -555.98989152638183   -9.45727e-09   1.89430e-07 DIIS
   @RHF iter   9:  -555.98989152749584   -1.11402e-09   6.23881e-08 DIIS
   @RHF iter  10:  -555.98989152762147   -1.25624e-10   1.93994e-08 DIIS
   @RHF iter  11:  -555.98989152763454   -1.30740e-11   6.31318e-09 DIIS
   @RHF iter  12:  -555.98989152763659   -2.04636e-12   2.54185e-09 DIIS
   @RHF iter  13:  -555.98989152763602    5.68434e-13   7.92795e-10 DIIS
   @RHF iter  14:  -555.98989152763625   -2.27374e-13   1.80550e-10 DIIS
   @RHF iter  15:  -555.98989152763590    3.41061e-13   4.74066e-11 DIIS
  Energy and wave function converged.

  ==> Post-Iterations <==

    Orbital Energies [Eh]
    ---------------------

    Doubly Occupied:

       1A    -91.935560     2A    -11.257253     3A    -11.254425
       4A    -11.218986     5A    -11.216757     6A     -8.939289
       7A     -6.621401     8A     -6.619780     9A     -6.617552
      10A     -1.060569    11A     -1.016690    12A     -0.952620
      13A     -0.835775    14A     -0.805067    15A     -0.606474
      16A     -0.599927    17A     -0.597255    18A     -0.592963
      19A     -0.574120    20A     -0.561372    21A     -0.501858
      22A     -0.495511    23A     -0.485455    24A     -0.485259
      25A     -0.424782    26A     -0.331038

    Virtual:

      27A      0.169153    28A      0.179463    29A      0.202546
      30A      0.226370    31A      0.237559    32A      0.239006
      33A      0.244541    34A      0.257277    35A      0.267018
      36A      0.279273    37A      0.280574    38A      0.290865
      39A      0.330407    40A      0.339881    41A      0.392947
      42A      0.509725    43A      0.562486    44A      0.585203
      45A      0.598713    46A      0.605576    47A      0.616276
      48A      0.624974    49A      0.636509    50A      0.680603
      51A      0.711960    52A      0.728535    53A      0.767338
      54A      0.782080    55A      0.810413    56A      0.829878
      57A      0.842912    58A      0.852847    59A      0.865837
      60A      0.883726    61A      0.886113    62A      0.889806
      63A      0.893201    64A      0.896786    65A      0.903186
      66A      0.907155    67A      0.915858    68A      0.921813
      69A      0.938418    70A      0.957044    71A      0.992402
      72A      1.040339    73A      1.127174    74A      1.140206
      75A      1.225892    76A      1.241308    77A      1.263599
      78A      1.296838    79A      1.321349    80A      1.365116
      81A      1.387066    82A      1.459511    83A      1.472122
      84A      1.490217    85A      1.495370    86A      1.584521
      87A      1.669324    88A      1.673217    89A      1.678888
      90A      1.696127    91A      1.856970    92A      1.863024
      93A      1.875569    94A      1.885929    95A      1.890512
      96A      1.899714    97A      1.912569    98A      1.919647
      99A      1.938738   100A      1.949914   101A      1.957176
     102A      1.962895   103A      1.969732   104A      1.987212
     105A      1.989307   106A      2.017287   107A      2.057408
     108A      2.068681   109A      2.102996   110A      2.127676
     111A      2.229290   112A      2.241637   113A      2.286644
     114A      2.312043   115A      2.394240   116A      2.433877
     117A      2.440649   118A      2.453711   119A      2.457597
     120A      2.472358   121A      2.557633   122A      2.581109
     123A      2.727126   124A      2.751008   125A      2.761846
     126A      2.765570   127A      2.793824   128A      2.801095
     129A      2.804789   130A      2.831304   131A      2.847677
     132A      2.870489   133A      2.950403   134A      2.973100

    Final Occupation by Irrep:
              A
    DOCC [    26 ]

  @RHF Final Energy:  -555.98989152763590

   => Energetics <=

    Nuclear Repulsion Energy =            219.4131263091267101
    One-Electron Energy =               -1197.5905606493208779
    Two-Electron Energy =                 422.1875428125582630
    Total Energy =                       -555.9898915276359048

Computation Completed

Properties will be evaluated at   0.000000,   0.000000,   0.000000 [a0]

Properties computed using the SCF density matrix

  Nuclear Dipole Moment: [e a0]
     X:     3.3547      Y:     6.5042      Z:    -3.3730

  Electronic Dipole Moment: [e a0]
     X:    -3.5444      Y:    -6.1945      Z:     3.8969

  Dipole Moment: [e a0]
     X:    -0.1897      Y:     0.3098      Z:     0.5239     Total:     0.6375

  Dipole Moment: [D]
     X:    -0.4821      Y:     0.7873      Z:     1.3317     Total:     1.6204

*** tstop() called on ds3 at Tue Apr 28 04:22:51 2020
Module time:
	user time   =      16.53 seconds =       0.28 minutes
	system time =       5.27 seconds =       0.09 minutes
	total time  =         38 seconds =       0.63 minutes
Total time:
	user time   =      16.53 seconds =       0.28 minutes
	system time =       5.27 seconds =       0.09 minutes
	total time  =         38 seconds =       0.63 minutes
                                     G D M A

                                 by Anthony Stone

                           version 2.2.06, 22 June 2011

               Distributed Multipoles from Gaussian wavefunctions

Starting at 4:22:51 on 28 Apr 2020

Using SCF density matrix from file ./SSI/SSI-036LEU-039MET-1-dimer.test.27493.fchk

                         Distributed Multipole Analysis

Standard DMA

Positions and radii in angstrom
Multipole moments in atomic units, ea_0^k for rank k

C          x =  2.001589  y =  1.330636  z = -1.753521 angstrom
           Maximum rank =  0   Radius =  0.650 angstrom
                   Q00  =  -0.242696

C          x =  1.321589  y =  1.686636  z = -3.083521 angstrom
           Maximum rank =  0   Radius =  0.650 angstrom
                   Q00  =  -0.236265

H          x =  1.585589  y =  0.402636  z = -1.358521 angstrom
           Maximum rank =  0   Radius =  0.325 angstrom
                   Q00  =   0.085091

H          x =  3.071589  y =  1.199636  z = -1.916521 angstrom
           Maximum rank =  0   Radius =  0.325 angstrom
                   Q00  =   0.081109

H          x =  1.857589  y =  2.138636  z = -1.035521 angstrom
           Maximum rank =  0   Radius =  0.325 angstrom
                   Q00  =   0.073666

H          x =  1.757589  y =  2.619636  z = -3.436521 angstrom
           Maximum rank =  0   Radius =  0.325 angstrom
                   Q00  =   0.076590

H          x =  0.245469  y =  1.824229  z = -2.901751 angstrom
           Maximum rank =  0   Radius =  0.325 angstrom
                   Q00  =   0.076887

H          x =  1.491949  y =  0.912898  z = -3.846611 angstrom
           Maximum rank =  0   Radius =  0.325 angstrom
                   Q00  =   0.084093

C          x = -0.612411  y =  0.761636  z =  1.042479 angstrom
           Maximum rank =  0   Radius =  0.650 angstrom
                   Q00  =  -0.346763

C          x = -1.386411  y = -1.677364  z =  2.197479 angstrom
           Maximum rank =  0   Radius =  0.650 angstrom
                   Q00  =  -0.367629

S          x = -0.610411  y = -1.008364  z =  0.713479 angstrom
           Maximum rank =  0   Radius =  0.650 angstrom
                   Q00  =   0.115438

H          x = -0.143411  y =  0.955636  z =  2.005479 angstrom
           Maximum rank =  0   Radius =  0.325 angstrom
                   Q00  =   0.086654

H          x = -0.056411  y =  1.278636  z =  0.261479 angstrom
           Maximum rank =  0   Radius =  0.325 angstrom
                   Q00  =   0.128520

H          x = -1.636411  y =  1.136636  z =  1.049479 angstrom
           Maximum rank =  0   Radius =  0.325 angstrom
                   Q00  =   0.087073

H          x = -0.789411  y = -1.383364  z =  3.062479 angstrom
           Maximum rank =  0   Radius =  0.325 angstrom
                   Q00  =   0.084074

H          x = -1.364411  y = -2.766364  z =  2.134479 angstrom
           Maximum rank =  0   Radius =  0.325 angstrom
                   Q00  =   0.122076

H          x = -2.424051  y = -1.352418  z =  2.363969 angstrom
           Maximum rank =  0   Radius =  0.325 angstrom
                   Q00  =   0.092083

Total multipoles referred to origin at
           x =   0.000000,  y =    0.000000,  z =    0.000000 angstrom
                   Q00  =  -0.000000

Finished at 4:22:51 on 28 Apr 2020

  DMA results are available in the Python driver through the
	  variable('DMA DISTRIBUTED MULTIPOLES')
  and
	  variable('DMA TOTAL MULTIPOLES')
  commands.

    Psi4 stopped on: Tuesday, 28 April 2020 04:22AM
    Psi4 wall time for execution: 0:00:38.22

*** Psi4 exiting successfully. Buy a developer a beer!
