                               Psi4 1.3.2 release

  ==> Input File <==

--------------------------------------------------------------------------
import numpy as np
set {scf_type pk
basis cc-pvdz
d_convergence 10
gdma_switch   0
gdma_limit    0
gdma_origin   [ 0.0,  0.0,  0.0 ]
}
molecule test {
    units Angstrom
    0 1
    --
    0 1
    C                0.055077490813847     0.555278503581015    -2.157875948372089
    C               -0.384922509186153     1.320278503581015    -3.405875948372089
    O                0.474077490813847     1.459278503581015    -1.152875948372089
    H               -0.765922509186153    -0.059721496418985    -1.787875948372089
    H                0.892077490813847    -0.094721496418985    -2.397875948372089
    H               -1.247922509186153     1.930278503581015    -3.146875948372089
    H               -0.306922509186153     1.856278503581015    -0.729875948372089
    H               -0.677113509186153     0.633478503581015    -4.213917948372089
    H                0.414827490813847     2.000748503581015    -3.733535948372089
    C                0.055077490813847    -0.754721496418985     1.439124051627911
    C               -1.232922509186153    -1.590721496418985     1.204124051627911
    C               -0.183922509186153     0.409278503581015     2.405124051627911
    C                1.229077490813847    -1.633721496418985     1.901124051627911
    H                0.349077490813847    -0.340721496418985     0.483124051627911
    H               -0.955922509186153    -2.389721496418984     0.516124051627911
    H               -0.462922509186153     0.045278503581015     3.395124051627911
    H                0.730077490813847     0.997278503581015     2.497124051627911
    H               -0.964922509186153     1.054278503581015     2.017124051627911
    H                2.120077490813848    -1.006721496418985     1.949124051627911
    H                1.035077490813847    -2.010721496418984     2.899124051627911
    H               -2.027392509186153    -1.020021496418985     0.701010051627911
    H               -1.592262509186153    -2.096961496418984     2.112195051627911
    H                1.443460490813847    -2.484031496418984     1.237042051627911

}
e, wfn = energy('scf', return_wfn=True)
gdma(wfn)
dmavals = variable('DMA DISTRIBUTED MULTIPOLES')
charges = np.array(dmavals)
print(charges)
np.save('SSI-042SER-058ILE-1-dimer.npy', np.array(charges))--------------------------------------------------------------------------

*** tstart() called on ds3
*** at Sun Apr 26 21:05:53 2020

   => Loading Basis Set <=

    Name: CC-PVDZ
    Role: ORBITAL
    Keyword: BASIS
    atoms 1-2, 10-13 entry C          line   138 file /theoryfs2/ds/metcalf/miniconda2/envs/tf2gpu/share/psi4/basis/cc-pvdz.gbs
    atoms 3          entry O          line   198 file /theoryfs2/ds/metcalf/miniconda2/envs/tf2gpu/share/psi4/basis/cc-pvdz.gbs
    atoms 4-9, 14-23 entry H          line    22 file /theoryfs2/ds/metcalf/miniconda2/envs/tf2gpu/share/psi4/basis/cc-pvdz.gbs

         ---------------------------------------------------------
                                   SCF
               by Justin Turney, Rob Parrish, Andy Simmonett
                          and Daniel G. A. Smith
                              RHF Reference
                        1 Threads,    500 MiB Core
         ---------------------------------------------------------

  ==> Geometry <==

    Molecular point group: c1
    Full point group: C1

    Geometry (in Angstrom), charge = 0, multiplicity = 1:

       Center              X                  Y                   Z               Mass
    ------------   -----------------  -----------------  -----------------  -----------------
         C            0.055077490814     0.555278503581    -2.157875948372    12.000000000000
         C           -0.384922509186     1.320278503581    -3.405875948372    12.000000000000
         O            0.474077490814     1.459278503581    -1.152875948372    15.994914619570
         H           -0.765922509186    -0.059721496419    -1.787875948372     1.007825032230
         H            0.892077490814    -0.094721496419    -2.397875948372     1.007825032230
         H           -1.247922509186     1.930278503581    -3.146875948372     1.007825032230
         H           -0.306922509186     1.856278503581    -0.729875948372     1.007825032230
         H           -0.677113509186     0.633478503581    -4.213917948372     1.007825032230
         H            0.414827490814     2.000748503581    -3.733535948372     1.007825032230
         C            0.055077490814    -0.754721496419     1.439124051628    12.000000000000
         C           -1.232922509186    -1.590721496419     1.204124051628    12.000000000000
         C           -0.183922509186     0.409278503581     2.405124051628    12.000000000000
         C            1.229077490814    -1.633721496419     1.901124051628    12.000000000000
         H            0.349077490814    -0.340721496419     0.483124051628     1.007825032230
         H           -0.955922509186    -2.389721496419     0.516124051628     1.007825032230
         H           -0.462922509186     0.045278503581     3.395124051628     1.007825032230
         H            0.730077490814     0.997278503581     2.497124051628     1.007825032230
         H           -0.964922509186     1.054278503581     2.017124051628     1.007825032230
         H            2.120077490814    -1.006721496419     1.949124051628     1.007825032230
         H            1.035077490814    -2.010721496419     2.899124051628     1.007825032230
         H           -2.027392509186    -1.020021496419     0.701010051628     1.007825032230
         H           -1.592262509186    -2.096961496419     2.112195051628     1.007825032230
         H            1.443460490814    -2.484031496419     1.237042051628     1.007825032230

  Running in c1 symmetry.

  Rotational constants: A =      0.12137  B =      0.02748  C =      0.02655 [cm^-1]
  Rotational constants: A =   3638.66009  B =    823.73125  C =    796.05114 [MHz]
  Nuclear repulsion =  317.897270635762084

  Charge       = 0
  Multiplicity = 1
  Electrons    = 60
  Nalpha       = 30
  Nbeta        = 30

  ==> Algorithm <==

  SCF Algorithm Type is PK.
  DIIS enabled.
  MOM disabled.
  Fractional occupation disabled.
  Guess Type is SAD.
  Energy threshold   = 1.00e-06
  Density threshold  = 1.00e-10
  Integral threshold = 0.00e+00

  ==> Primary Basis <==

  Basis Set: CC-PVDZ
    Blend: CC-PVDZ
    Number of shells: 90
    Number of basis function: 178
    Number of Cartesian functions: 185
    Spherical Harmonics?: true
    Max angular momentum: 2

  ==> Pre-Iterations <==

   -------------------------------------------------------
    Irrep   Nso     Nmo     Nalpha   Nbeta   Ndocc  Nsocc
   -------------------------------------------------------
     A        178     178       0       0       0       0
   -------------------------------------------------------
    Total     178     178      30      30      30       0
   -------------------------------------------------------

  ==> Integral Setup <==

  Using integral reordering PK algorithm.
  Sizing the integral batches needed.
  Building batch lookup table.
   Calculation information:
      Number of atoms:                  23
      Number of AO shells:              90
      Number of primitives:            234
      Number of atomic orbitals:       185
      Number of basis functions:       178

      Integral cutoff                 1.00e-12
      Number of threads:                 1

	Batch   1 pq = [       0,    9405] index = [             0,44231715] size =     44231715
	Batch   2 pq = [    9405,   13301] index = [      44231715,88464951] size =     44233236
	Batch   3 pq = [   13301,   15931] index = [      88464951,126906346] size =     38441395
  Task number: 12
  Buffer size: 11059200
  Buffer per thread: 2
  We computed 7613962 shell quartets total.
  Whereas there are 8386560 unique shell quartets.

  ==> DiskJK: Disk-Based J/K Matrices <==

    J tasked:                  Yes
    K tasked:                  Yes
    wK tasked:                  No
    Memory [MiB]:              375
    Schwarz Cutoff:          1E-12

    OpenMP threads:              1

  Minimum eigenvalue in the overlap matrix is 4.7228422549E-03.
  Using Symmetric Orthogonalization.

  SCF Guess: Superposition of Atomic Densities via on-the-fly atomic UHF.

  ==> Iterations <==

                        Total Energy        Delta E     RMS |[F,P]|

   @RHF iter SAD:  -310.07929092928407   -3.10079e+02   0.00000e+00
   @RHF iter   1:  -311.15251481651802   -1.07322e+00   3.49857e-03 DIIS
   @RHF iter   2:  -311.35710150973847   -2.04587e-01   1.59610e-03 DIIS
   @RHF iter   3:  -311.39481605507660   -3.77145e-02   3.30548e-04 DIIS
   @RHF iter   4:  -311.39767720307896   -2.86115e-03   1.02784e-04 DIIS
   @RHF iter   5:  -311.39786073019548   -1.83527e-04   2.02422e-05 DIIS
   @RHF iter   6:  -311.39787068267367   -9.95248e-06   5.34953e-06 DIIS
   @RHF iter   7:  -311.39787146830992   -7.85636e-07   1.56660e-06 DIIS
   @RHF iter   8:  -311.39787154490182   -7.65919e-08   4.74141e-07 DIIS
   @RHF iter   9:  -311.39787155436528   -9.46346e-09   1.10683e-07 DIIS
   @RHF iter  10:  -311.39787155492030   -5.55019e-10   3.09373e-08 DIIS
   @RHF iter  11:  -311.39787155496163   -4.13252e-11   9.25278e-09 DIIS
   @RHF iter  12:  -311.39787155496185   -2.27374e-13   2.97780e-09 DIIS
   @RHF iter  13:  -311.39787155496515   -3.29692e-12   8.38379e-10 DIIS
   @RHF iter  14:  -311.39787155496225    2.89901e-12   2.14331e-10 DIIS
   @RHF iter  15:  -311.39787155496447   -2.21689e-12   7.31105e-11 DIIS
  Energy and wave function converged.

  ==> Post-Iterations <==

    Orbital Energies [Eh]
    ---------------------

    Doubly Occupied:

       1A    -20.554965     2A    -11.278459     3A    -11.224134
       4A    -11.218398     5A    -11.215553     6A    -11.211121
       7A    -11.210185     8A     -1.356546     9A     -1.071580
      10A     -1.009267    11A     -0.924644    12A     -0.921194
      13A     -0.845118    14A     -0.760892    15A     -0.691286
      16A     -0.629086    17A     -0.622088    18A     -0.591919
      19A     -0.585390    20A     -0.579599    21A     -0.545562
      22A     -0.536529    23A     -0.529605    24A     -0.524503
      25A     -0.504517    26A     -0.478144    27A     -0.456635
      28A     -0.454475    29A     -0.449592    30A     -0.433086

    Virtual:

      31A      0.155931    32A      0.193485    33A      0.201589
      34A      0.217858    35A      0.230466    36A      0.248635
      37A      0.251649    38A      0.258893    39A      0.263185
      40A      0.268179    41A      0.278913    42A      0.295419
      43A      0.309188    44A      0.311897    45A      0.326799
      46A      0.330956    47A      0.366270    48A      0.387544
      49A      0.409867    50A      0.414077    51A      0.414546
      52A      0.563602    53A      0.580902    54A      0.596596
      55A      0.604114    56A      0.620227    57A      0.631810
      58A      0.656764    59A      0.685382    60A      0.730448
      61A      0.741963    62A      0.762334    63A      0.778417
      64A      0.794040    65A      0.830586    66A      0.850559
      67A      0.857101    68A      0.865717    69A      0.880655
      70A      0.887341    71A      0.892045    72A      0.894906
      73A      0.902923    74A      0.904265    75A      0.913429
      76A      0.915380    77A      0.922787    78A      0.926293
      79A      0.937914    80A      0.943096    81A      0.950045
      82A      0.976630    83A      0.993511    84A      0.998010
      85A      1.047695    86A      1.122450    87A      1.128510
      88A      1.137377    89A      1.141692    90A      1.172665
      91A      1.238397    92A      1.290193    93A      1.348221
      94A      1.367001    95A      1.391581    96A      1.407706
      97A      1.468771    98A      1.477954    99A      1.524321
     100A      1.528815   101A      1.554478   102A      1.611936
     103A      1.626616   104A      1.665679   105A      1.673645
     106A      1.679629   107A      1.688958   108A      1.701647
     109A      1.703014   110A      1.706874   111A      1.736229
     112A      1.755775   113A      1.829629   114A      1.840337
     115A      1.862296   116A      1.867753   117A      1.878374
     118A      1.890126   119A      1.921186   120A      1.934611
     121A      1.944291   122A      1.953016   123A      1.961157
     124A      1.967698   125A      1.972235   126A      1.981010
     127A      1.991654   128A      1.995890   129A      2.013851
     130A      2.015848   131A      2.054007   132A      2.063826
     133A      2.068452   134A      2.100468   135A      2.119389
     136A      2.123782   137A      2.133527   138A      2.180754
     139A      2.242952   140A      2.257278   141A      2.262769
     142A      2.279392   143A      2.311335   144A      2.325329
     145A      2.333635   146A      2.349617   147A      2.368286
     148A      2.388749   149A      2.438922   150A      2.484536
     151A      2.526549   152A      2.530451   153A      2.551822
     154A      2.584369   155A      2.605983   156A      2.627410
     157A      2.713804   158A      2.721638   159A      2.751055
     160A      2.760061   161A      2.773377   162A      2.781120
     163A      2.798208   164A      2.805999   165A      2.808418
     166A      2.829330   167A      2.848167   168A      2.853893
     169A      2.879014   170A      2.921067   171A      3.019066
     172A      3.045223   173A      3.140642   174A      3.320428
     175A      3.397038   176A      3.456862   177A      3.646738
     178A      4.093234

    Final Occupation by Irrep:
              A
    DOCC [    30 ]

  @RHF Final Energy:  -311.39787155496447

   => Energetics <=

    Nuclear Repulsion Energy =            317.8972706357620837
    One-Electron Energy =               -1051.7621309473925066
    Two-Electron Energy =                 422.4669887566659554
    Total Energy =                       -311.3978715549644676

Computation Completed

Properties will be evaluated at   0.000000,   0.000000,   0.000000 [a0]

Properties computed using the SCF density matrix

  Nuclear Dipole Moment: [e a0]
     X:    -1.8882      Y:    -2.7920      Z:     1.6792

  Electronic Dipole Moment: [e a0]
     X:     1.3438      Y:     2.7437      Z:    -1.9730

  Dipole Moment: [e a0]
     X:    -0.5445      Y:    -0.0483      Z:    -0.2938     Total:     0.6206

  Dipole Moment: [D]
     X:    -1.3839      Y:    -0.1227      Z:    -0.7466     Total:     1.5773

*** tstop() called on ds3 at Sun Apr 26 21:07:11 2020
Module time:
	user time   =      41.30 seconds =       0.69 minutes
	system time =      15.76 seconds =       0.26 minutes
	total time  =         78 seconds =       1.30 minutes
Total time:
	user time   =      41.30 seconds =       0.69 minutes
	system time =      15.76 seconds =       0.26 minutes
	total time  =         78 seconds =       1.30 minutes
                                     G D M A

                                 by Anthony Stone

                           version 2.2.06, 22 June 2011

               Distributed Multipoles from Gaussian wavefunctions

Starting at 21:7:11 on 26 Apr 2020

Using SCF density matrix from file ./SSI/SSI-042SER-058ILE-1-dimer.test.10966.fchk

                         Distributed Multipole Analysis

Standard DMA

Positions and radii in angstrom
Multipole moments in atomic units, ea_0^k for rank k

C          x =  0.055077  y =  0.555279  z = -2.157876 angstrom
           Maximum rank =  0   Radius =  0.650 angstrom
                   Q00  =   0.071526

C          x = -0.384923  y =  1.320279  z = -3.405876 angstrom
           Maximum rank =  0   Radius =  0.650 angstrom
                   Q00  =  -0.231004

O          x =  0.474077  y =  1.459279  z = -1.152876 angstrom
           Maximum rank =  0   Radius =  0.650 angstrom
                   Q00  =  -0.588602

H          x = -0.765923  y = -0.059721  z = -1.787876 angstrom
           Maximum rank =  0   Radius =  0.325 angstrom
                   Q00  =   0.037622

H          x =  0.892077  y = -0.094721  z = -2.397876 angstrom
           Maximum rank =  0   Radius =  0.325 angstrom
                   Q00  =   0.089186

H          x = -1.247923  y =  1.930279  z = -3.146876 angstrom
           Maximum rank =  0   Radius =  0.325 angstrom
                   Q00  =   0.074372

H          x = -0.306923  y =  1.856279  z = -0.729876 angstrom
           Maximum rank =  0   Radius =  0.325 angstrom
                   Q00  =   0.388176

H          x = -0.677114  y =  0.633479  z = -4.213918 angstrom
           Maximum rank =  0   Radius =  0.325 angstrom
                   Q00  =   0.081884

H          x =  0.414827  y =  2.000749  z = -3.733536 angstrom
           Maximum rank =  0   Radius =  0.325 angstrom
                   Q00  =   0.094643

C          x =  0.055077  y = -0.754721  z =  1.439124 angstrom
           Maximum rank =  0   Radius =  0.650 angstrom
                   Q00  =   0.038434

C          x = -1.232923  y = -1.590721  z =  1.204124 angstrom
           Maximum rank =  0   Radius =  0.650 angstrom
                   Q00  =  -0.273144

C          x = -0.183923  y =  0.409279  z =  2.405124 angstrom
           Maximum rank =  0   Radius =  0.650 angstrom
                   Q00  =  -0.248830

C          x =  1.229077  y = -1.633721  z =  1.901124 angstrom
           Maximum rank =  0   Radius =  0.650 angstrom
                   Q00  =  -0.247974

H          x =  0.349077  y = -0.340721  z =  0.483124 angstrom
           Maximum rank =  0   Radius =  0.325 angstrom
                   Q00  =   0.015024

H          x = -0.955923  y = -2.389721  z =  0.516124 angstrom
           Maximum rank =  0   Radius =  0.325 angstrom
                   Q00  =   0.074850

H          x = -0.462923  y =  0.045279  z =  3.395124 angstrom
           Maximum rank =  0   Radius =  0.325 angstrom
                   Q00  =   0.076251

H          x =  0.730077  y =  0.997279  z =  2.497124 angstrom
           Maximum rank =  0   Radius =  0.325 angstrom
                   Q00  =   0.084179

H          x = -0.964923  y =  1.054279  z =  2.017124 angstrom
           Maximum rank =  0   Radius =  0.325 angstrom
                   Q00  =   0.071222

H          x =  2.120077  y = -1.006721  z =  1.949124 angstrom
           Maximum rank =  0   Radius =  0.325 angstrom
                   Q00  =   0.082858

H          x =  1.035077  y = -2.010721  z =  2.899124 angstrom
           Maximum rank =  0   Radius =  0.325 angstrom
                   Q00  =   0.071310

H          x = -2.027393  y = -1.020021  z =  0.701010 angstrom
           Maximum rank =  0   Radius =  0.325 angstrom
                   Q00  =   0.076562

H          x = -1.592263  y = -2.096961  z =  2.112195 angstrom
           Maximum rank =  0   Radius =  0.325 angstrom
                   Q00  =   0.079656

H          x =  1.443460  y = -2.484032  z =  1.237042 angstrom
           Maximum rank =  0   Radius =  0.325 angstrom
                   Q00  =   0.081798

Total multipoles referred to origin at
           x =   0.000000,  y =    0.000000,  z =    0.000000 angstrom
                   Q00  =  -0.000000

Finished at 21:7:11 on 26 Apr 2020

  DMA results are available in the Python driver through the
	  variable('DMA DISTRIBUTED MULTIPOLES')
  and
	  variable('DMA TOTAL MULTIPOLES')
  commands.

    Psi4 stopped on: Sunday, 26 April 2020 09:07PM
    Psi4 wall time for execution: 0:01:18.03

*** Psi4 exiting successfully. Buy a developer a beer!
