                               Psi4 1.3.2 release

  ==> Input File <==

--------------------------------------------------------------------------
import numpy as np
set {scf_type pk
basis cc-pvdz
d_convergence 10
gdma_switch   0
gdma_limit    0
gdma_origin   [ 0.0,  0.0,  0.0 ]
}
molecule test {
    units Angstrom
    0 1
    --
    0 1
    C                0.779323524926306    -3.531916406357786     0.400004365185388
    C               -1.027676475073694     0.296083593642214    -0.304995634814612
    C               -1.162676475073694    -0.738916406357786    -1.206995634814612
    C               -0.324676475073694     0.078083593642214     0.859004365185388
    C               -0.578676475073694    -1.971916406357786    -0.993995634814612
    C                0.256323524926306    -1.166916406357786     1.073004365185388
    C                0.173323524926306    -2.189916406357786     0.138004365185388
    H               -1.508676475073694     1.246083593642214    -0.489995634814612
    H               -1.772676475073694    -0.617916406357786    -2.082995634814612
    H               -0.230676475073694     0.859083593642214     1.600004365185388
    H               -0.738676475073694    -2.762916406357786    -1.709995634814612
    H                0.775323524926306    -1.342916406357786     1.999004365185388
    H                0.032323524926306    -4.270916406357786     0.212004365185388
    H                1.088323524926306    -3.599916406357786     1.444004365185388
    H                1.630543524926306    -3.775531406357787    -0.252740634814612
    C                0.314323524926306     3.820083593642214     0.476004365185388
    C                1.233323524926306     4.509083593642214    -0.498995634814612
    H               -0.399676475073694     3.190083593642214    -0.047995634814612
    H                0.905323524926306     3.195083593642214     1.147004365185388
    H               -0.221676475073694     4.562083593642214     1.064004365185388
    H                1.751323524926306     3.748083593642214    -1.085995634814612
    H                1.979323524926306     5.036083593642213     0.087004365185388
    H                0.723226524926306     5.204995593642214    -1.181276634814612

}
e, wfn = energy('scf', return_wfn=True)
gdma(wfn)
dmavals = variable('DMA DISTRIBUTED MULTIPOLES')
charges = np.array(dmavals)
print(charges)
np.save('SSI-054PHE-101ILE-1-dimer.npy', np.array(charges))--------------------------------------------------------------------------

*** tstart() called on ds3
*** at Mon Apr 27 07:40:44 2020

   => Loading Basis Set <=

    Name: CC-PVDZ
    Role: ORBITAL
    Keyword: BASIS
    atoms 1-7, 16-17  entry C          line   138 file /theoryfs2/ds/metcalf/miniconda2/envs/tf2gpu/share/psi4/basis/cc-pvdz.gbs
    atoms 8-15, 18-23 entry H          line    22 file /theoryfs2/ds/metcalf/miniconda2/envs/tf2gpu/share/psi4/basis/cc-pvdz.gbs

         ---------------------------------------------------------
                                   SCF
               by Justin Turney, Rob Parrish, Andy Simmonett
                          and Daniel G. A. Smith
                              RHF Reference
                        1 Threads,    500 MiB Core
         ---------------------------------------------------------

  ==> Geometry <==

    Molecular point group: c1
    Full point group: C1

    Geometry (in Angstrom), charge = 0, multiplicity = 1:

       Center              X                  Y                   Z               Mass
    ------------   -----------------  -----------------  -----------------  -----------------
         C            0.779323524926    -3.531916406358     0.400004365185    12.000000000000
         C           -1.027676475074     0.296083593642    -0.304995634815    12.000000000000
         C           -1.162676475074    -0.738916406358    -1.206995634815    12.000000000000
         C           -0.324676475074     0.078083593642     0.859004365185    12.000000000000
         C           -0.578676475074    -1.971916406358    -0.993995634815    12.000000000000
         C            0.256323524926    -1.166916406358     1.073004365185    12.000000000000
         C            0.173323524926    -2.189916406358     0.138004365185    12.000000000000
         H           -1.508676475074     1.246083593642    -0.489995634815     1.007825032230
         H           -1.772676475074    -0.617916406358    -2.082995634815     1.007825032230
         H           -0.230676475074     0.859083593642     1.600004365185     1.007825032230
         H           -0.738676475074    -2.762916406358    -1.709995634815     1.007825032230
         H            0.775323524926    -1.342916406358     1.999004365185     1.007825032230
         H            0.032323524926    -4.270916406358     0.212004365185     1.007825032230
         H            1.088323524926    -3.599916406358     1.444004365185     1.007825032230
         H            1.630543524926    -3.775531406358    -0.252740634815     1.007825032230
         C            0.314323524926     3.820083593642     0.476004365185    12.000000000000
         C            1.233323524926     4.509083593642    -0.498995634815    12.000000000000
         H           -0.399676475074     3.190083593642    -0.047995634815     1.007825032230
         H            0.905323524926     3.195083593642     1.147004365185     1.007825032230
         H           -0.221676475074     4.562083593642     1.064004365185     1.007825032230
         H            1.751323524926     3.748083593642    -1.085995634815     1.007825032230
         H            1.979323524926     5.036083593642     0.087004365185     1.007825032230
         H            0.723226524926     5.204995593642    -1.181276634815     1.007825032230

  Running in c1 symmetry.

  Rotational constants: A =      0.10722  B =      0.01841  C =      0.01717 [cm^-1]
  Rotational constants: A =   3214.34873  B =    552.05200  C =    514.77750 [MHz]
  Nuclear repulsion =  400.542248245628400

  Charge       = 0
  Multiplicity = 1
  Electrons    = 68
  Nalpha       = 34
  Nbeta        = 34

  ==> Algorithm <==

  SCF Algorithm Type is PK.
  DIIS enabled.
  MOM disabled.
  Fractional occupation disabled.
  Guess Type is SAD.
  Energy threshold   = 1.00e-06
  Density threshold  = 1.00e-10
  Integral threshold = 0.00e+00

  ==> Primary Basis <==

  Basis Set: CC-PVDZ
    Blend: CC-PVDZ
    Number of shells: 96
    Number of basis function: 196
    Number of Cartesian functions: 205
    Spherical Harmonics?: true
    Max angular momentum: 2

  ==> Pre-Iterations <==

   -------------------------------------------------------
    Irrep   Nso     Nmo     Nalpha   Nbeta   Ndocc  Nsocc
   -------------------------------------------------------
     A        196     196       0       0       0       0
   -------------------------------------------------------
    Total     196     196      34      34      34       0
   -------------------------------------------------------

  ==> Integral Setup <==

  Using integral reordering PK algorithm.
  Sizing the integral batches needed.
  Building batch lookup table.
   Calculation information:
      Number of atoms:                  23
      Number of AO shells:              96
      Number of primitives:            268
      Number of atomic orbitals:       205
      Number of basis functions:       196

      Integral cutoff                 1.00e-12
      Number of threads:                 1

	Batch   1 pq = [       0,    9405] index = [             0,44231715] size =     44231715
	Batch   2 pq = [    9405,   13301] index = [      44231715,88464951] size =     44233236
	Batch   3 pq = [   13301,   16290] index = [      88464951,132690195] size =     44225244
	Batch   4 pq = [   16290,   18810] index = [     132690195,176917455] size =     44227260
	Batch   5 pq = [   18810,   19306] index = [     176917455,186370471] size =      9453016
  Task number: 17
  Buffer size: 11059200
  Buffer per thread: 2
  We computed 8405052 shell quartets total.
  Whereas there are 10841496 unique shell quartets.

  ==> DiskJK: Disk-Based J/K Matrices <==

    J tasked:                  Yes
    K tasked:                  Yes
    wK tasked:                  No
    Memory [MiB]:              375
    Schwarz Cutoff:          1E-12

    OpenMP threads:              1

  Minimum eigenvalue in the overlap matrix is 2.9159785255E-04.
  Using Symmetric Orthogonalization.

  SCF Guess: Superposition of Atomic Densities via on-the-fly atomic UHF.

  ==> Iterations <==

                        Total Energy        Delta E     RMS |[F,P]|

   @RHF iter SAD:  -348.07247241358220   -3.48072e+02   0.00000e+00
   @RHF iter   1:  -348.75735399109544   -6.84882e-01   2.95672e-03 DIIS
   @RHF iter   2:  -348.95534498575518   -1.97991e-01   1.24134e-03 DIIS
   @RHF iter   3:  -348.98733876542548   -3.19938e-02   2.63070e-04 DIIS
   @RHF iter   4:  -348.98987174569339   -2.53298e-03   5.59272e-05 DIIS
   @RHF iter   5:  -348.98995259054368   -8.08449e-05   1.87074e-05 DIIS
   @RHF iter   6:  -348.98996114220188   -8.55166e-06   5.11160e-06 DIIS
   @RHF iter   7:  -348.98996188609351   -7.43892e-07   1.25783e-06 DIIS
   @RHF iter   8:  -348.98996194007583   -5.39823e-08   3.09887e-07 DIIS
   @RHF iter   9:  -348.98996194659151   -6.51568e-09   1.30734e-07 DIIS
   @RHF iter  10:  -348.98996194797479   -1.38328e-09   5.88713e-08 DIIS
   @RHF iter  11:  -348.98996194843994   -4.65150e-10   2.17080e-08 DIIS
   @RHF iter  12:  -348.98996194850349   -6.35509e-11   9.19291e-09 DIIS
   @RHF iter  13:  -348.98996194850815   -4.66116e-12   3.66366e-09 DIIS
   @RHF iter  14:  -348.98996194851003   -1.87583e-12   8.99800e-10 DIIS
   @RHF iter  15:  -348.98996194851134   -1.30740e-12   3.61480e-10 DIIS
   @RHF iter  16:  -348.98996194851122    1.13687e-13   1.28695e-10 DIIS
   @RHF iter  17:  -348.98996194851100    2.27374e-13   5.38195e-11 DIIS
  Energy and wave function converged.

  ==> Post-Iterations <==

    Orbital Energies [Eh]
    ---------------------

    Doubly Occupied:

       1A    -11.236240     2A    -11.232098     3A    -11.229691
       4A    -11.227054     5A    -11.226778     6A    -11.225910
       7A    -11.225171     8A    -11.214931     9A    -11.214161
      10A     -1.158732    11A     -1.049521    12A     -1.024083
      13A     -1.012593    14A     -0.935046    15A     -0.835591
      16A     -0.825690    17A     -0.797798    18A     -0.694053
      19A     -0.635203    20A     -0.628251    21A     -0.602332
      22A     -0.599675    23A     -0.581279    24A     -0.575731
      25A     -0.566233    26A     -0.539130    27A     -0.505367
      28A     -0.491072    29A     -0.487454    30A     -0.482504
      31A     -0.481480    32A     -0.478738    33A     -0.331903
      34A     -0.323877

    Virtual:

      35A      0.137774    36A      0.144420    37A      0.179065
      38A      0.192496    39A      0.207899    40A      0.214505
      41A      0.236528    42A      0.239438    43A      0.254097
      44A      0.263271    45A      0.268547    46A      0.277724
      47A      0.281466    48A      0.293028    49A      0.315582
      50A      0.352341    51A      0.376852    52A      0.382114
      53A      0.408081    54A      0.460884    55A      0.472675
      56A      0.488773    57A      0.505485    58A      0.567123
      59A      0.593900    60A      0.597870    61A      0.604022
      62A      0.620922    63A      0.623705    64A      0.655998
      65A      0.681894    66A      0.695129    67A      0.700375
      68A      0.714424    69A      0.720935    70A      0.748073
      71A      0.749623    72A      0.754455    73A      0.760045
      74A      0.766556    75A      0.791099    76A      0.803879
      77A      0.850003    78A      0.854711    79A      0.863872
      80A      0.867442    81A      0.879070    82A      0.890064
      83A      0.894897    84A      0.898363    85A      0.901705
      86A      0.912399    87A      0.913484    88A      0.920593
      89A      0.924927    90A      0.936080    91A      0.948374
      92A      0.978442    93A      0.990062    94A      1.007677
      95A      1.026622    96A      1.053430    97A      1.116512
      98A      1.132604    99A      1.135417   100A      1.151614
     101A      1.161751   102A      1.179135   103A      1.202325
     104A      1.225982   105A      1.237145   106A      1.259497
     107A      1.270031   108A      1.275363   109A      1.311643
     110A      1.320105   111A      1.328108   112A      1.334696
     113A      1.415693   114A      1.475932   115A      1.498043
     116A      1.517739   117A      1.528213   118A      1.550961
     119A      1.585338   120A      1.607621   121A      1.671516
     122A      1.685080   123A      1.693126   124A      1.701698
     125A      1.743964   126A      1.753234   127A      1.769475
     128A      1.797921   129A      1.820693   130A      1.852353
     131A      1.863705   132A      1.879415   133A      1.895237
     134A      1.908866   135A      1.913979   136A      1.916511
     137A      1.924183   138A      1.930133   139A      1.951117
     140A      1.954513   141A      1.956302   142A      1.967381
     143A      1.967429   144A      1.975645   145A      1.981778
     146A      1.988217   147A      1.998813   148A      2.027844
     149A      2.036116   150A      2.056398   151A      2.087518
     152A      2.096864   153A      2.122118   154A      2.130925
     155A      2.150599   156A      2.175025   157A      2.188937
     158A      2.197470   159A      2.225234   160A      2.253436
     161A      2.278411   162A      2.297577   163A      2.309347
     164A      2.313236   165A      2.320755   166A      2.338371
     167A      2.371967   168A      2.457257   169A      2.463170
     170A      2.484562   171A      2.490789   172A      2.542751
     173A      2.550613   174A      2.562959   175A      2.593031
     176A      2.641041   177A      2.741490   178A      2.768875
     179A      2.772549   180A      2.782057   181A      2.788623
     182A      2.823125   183A      2.833558   184A      2.856096
     185A      2.866095   186A      2.879200   187A      2.894660
     188A      2.960868   189A      2.980559   190A      3.007249
     191A      3.030028   192A      3.054155   193A      3.187601
     194A      3.233037   195A      3.326019   196A      4.003767

    Final Occupation by Irrep:
              A
    DOCC [    34 ]

  @RHF Final Energy:  -348.98996194851100

   => Energetics <=

    Nuclear Repulsion Energy =            400.5422482456284001
    One-Electron Energy =               -1263.7136863784112393
    Two-Electron Energy =                 514.1814761842719008
    Total Energy =                       -348.9899619485109952

Computation Completed

Properties will be evaluated at   0.000000,   0.000000,   0.000000 [a0]

Properties computed using the SCF density matrix

  Nuclear Dipole Moment: [e a0]
     X:     3.7627      Y:    10.0042      Z:     0.6581

  Electronic Dipole Moment: [e a0]
     X:    -3.7462      Y:   -10.1615      Z:    -0.6309

  Dipole Moment: [e a0]
     X:     0.0165      Y:    -0.1574      Z:     0.0272     Total:     0.1605

  Dipole Moment: [D]
     X:     0.0418      Y:    -0.4000      Z:     0.0691     Total:     0.4081

*** tstop() called on ds3 at Mon Apr 27 07:42:24 2020
Module time:
	user time   =      62.11 seconds =       1.04 minutes
	system time =      29.24 seconds =       0.49 minutes
	total time  =        100 seconds =       1.67 minutes
Total time:
	user time   =      62.11 seconds =       1.04 minutes
	system time =      29.24 seconds =       0.49 minutes
	total time  =        100 seconds =       1.67 minutes
                                     G D M A

                                 by Anthony Stone

                           version 2.2.06, 22 June 2011

               Distributed Multipoles from Gaussian wavefunctions

Starting at 7:42:24 on 27 Apr 2020

Using SCF density matrix from file ./SSI/SSI-054PHE-101ILE-1-dimer.test.32045.fchk

                         Distributed Multipole Analysis

Standard DMA

Positions and radii in angstrom
Multipole moments in atomic units, ea_0^k for rank k

C          x =  0.779324  y = -3.531916  z =  0.400004 angstrom
           Maximum rank =  0   Radius =  0.650 angstrom
                   Q00  =  -0.206308

C          x = -1.027676  y =  0.296084  z = -0.304996 angstrom
           Maximum rank =  0   Radius =  0.650 angstrom
                   Q00  =  -0.093271

C          x = -1.162676  y = -0.738916  z = -1.206996 angstrom
           Maximum rank =  0   Radius =  0.650 angstrom
                   Q00  =   0.034385

C          x = -0.324676  y =  0.078084  z =  0.859004 angstrom
           Maximum rank =  0   Radius =  0.650 angstrom
                   Q00  =  -0.081927

C          x = -0.578676  y = -1.971916  z = -0.993996 angstrom
           Maximum rank =  0   Radius =  0.650 angstrom
                   Q00  =  -0.095640

C          x =  0.256324  y = -1.166916  z =  1.073004 angstrom
           Maximum rank =  0   Radius =  0.650 angstrom
                   Q00  =  -0.057919

C          x =  0.173324  y = -2.189916  z =  0.138004 angstrom
           Maximum rank =  0   Radius =  0.650 angstrom
                   Q00  =  -0.093500

H          x = -1.508676  y =  1.246084  z = -0.489996 angstrom
           Maximum rank =  0   Radius =  0.325 angstrom
                   Q00  =   0.059577

H          x = -1.772676  y = -0.617916  z = -2.082996 angstrom
           Maximum rank =  0   Radius =  0.325 angstrom
                   Q00  =   0.058838

H          x = -0.230676  y =  0.859084  z =  1.600004 angstrom
           Maximum rank =  0   Radius =  0.325 angstrom
                   Q00  =   0.067364

H          x = -0.738676  y = -2.762916  z = -1.709996 angstrom
           Maximum rank =  0   Radius =  0.325 angstrom
                   Q00  =   0.052717

H          x =  0.775324  y = -1.342916  z =  1.999004 angstrom
           Maximum rank =  0   Radius =  0.325 angstrom
                   Q00  =   0.053121

H          x =  0.032324  y = -4.270916  z =  0.212004 angstrom
           Maximum rank =  0   Radius =  0.325 angstrom
                   Q00  =   0.102533

H          x =  1.088324  y = -3.599916  z =  1.444004 angstrom
           Maximum rank =  0   Radius =  0.325 angstrom
                   Q00  =   0.097651

H          x =  1.630544  y = -3.775531  z = -0.252741 angstrom
           Maximum rank =  0   Radius =  0.325 angstrom
                   Q00  =   0.102544

C          x =  0.314324  y =  3.820084  z =  0.476004 angstrom
           Maximum rank =  0   Radius =  0.650 angstrom
                   Q00  =  -0.230597

C          x =  1.233324  y =  4.509084  z = -0.498996 angstrom
           Maximum rank =  0   Radius =  0.650 angstrom
                   Q00  =  -0.230777

H          x = -0.399676  y =  3.190084  z = -0.047996 angstrom
           Maximum rank =  0   Radius =  0.325 angstrom
                   Q00  =   0.077174

H          x =  0.905324  y =  3.195084  z =  1.147004 angstrom
           Maximum rank =  0   Radius =  0.325 angstrom
                   Q00  =   0.077386

H          x = -0.221676  y =  4.562084  z =  1.064004 angstrom
           Maximum rank =  0   Radius =  0.325 angstrom
                   Q00  =   0.074845

H          x =  1.751324  y =  3.748084  z = -1.085996 angstrom
           Maximum rank =  0   Radius =  0.325 angstrom
                   Q00  =   0.077626

H          x =  1.979324  y =  5.036084  z =  0.087004 angstrom
           Maximum rank =  0   Radius =  0.325 angstrom
                   Q00  =   0.074928

H          x =  0.723227  y =  5.204996  z = -1.181277 angstrom
           Maximum rank =  0   Radius =  0.325 angstrom
                   Q00  =   0.079247

Total multipoles referred to origin at
           x =   0.000000,  y =    0.000000,  z =    0.000000 angstrom
                   Q00  =  -0.000000

Finished at 7:42:24 on 27 Apr 2020

  DMA results are available in the Python driver through the
	  variable('DMA DISTRIBUTED MULTIPOLES')
  and
	  variable('DMA TOTAL MULTIPOLES')
  commands.

    Psi4 stopped on: Monday, 27 April 2020 07:42AM
    Psi4 wall time for execution: 0:01:40.06

*** Psi4 exiting successfully. Buy a developer a beer!
