                               Psi4 1.3.2 release

  ==> Input File <==

--------------------------------------------------------------------------
import numpy as np
set {scf_type pk
basis cc-pvdz
d_convergence 10
gdma_switch   0
gdma_limit    0
gdma_origin   [ 0.0,  0.0,  0.0 ]
}
molecule test {
    units Angstrom
    0 1
    --
    0 1
    C               -0.745405363123667    -2.314051392893754     1.457898101041840
    N                0.700594636876333    -2.026051392893753     1.207898101041840
    H                0.748594636876333    -1.355051392893754     0.436898101041840
    H                1.146594636876333    -1.608051392893753     2.014898101041840
    H                1.215594636876333    -2.859051392893754     0.948898101041840
    H               -1.283405363123667    -1.374051392893754     1.620898101041840
    H               -0.858405363123667    -2.930051392893753     2.353898101041840
    H               -1.204865363123667    -2.844921392893753     0.611099501041840
    C               -0.069405363123667     2.203948607106247     0.296898101041840
    C               -0.009405363123667     1.116948607106246    -0.770101898958160
    O               -0.283405363123667    -0.055051392893754    -0.457101898958160
    O                0.320594636876333     1.418948607106246    -1.943101898958160
    H               -0.897405363123667     2.849948607106246     0.003898101041840
    H                0.857594636876333     2.781948607106246     0.267898101041840
    H               -0.235025363123667     1.855569607106246     1.327044171041840

}
e, wfn = energy('scf', return_wfn=True)
gdma(wfn)
dmavals = variable('DMA DISTRIBUTED MULTIPOLES')
charges = np.array(dmavals)
print(charges)
np.save('SSI-008LYS-068GLU-2-dimer.npy', np.array(charges))--------------------------------------------------------------------------

*** tstart() called on ds3
*** at Tue Apr 28 14:21:53 2020

   => Loading Basis Set <=

    Name: CC-PVDZ
    Role: ORBITAL
    Keyword: BASIS
    atoms 1, 9-10    entry C          line   138 file /theoryfs2/ds/metcalf/miniconda2/envs/tf2gpu/share/psi4/basis/cc-pvdz.gbs
    atoms 2          entry N          line   168 file /theoryfs2/ds/metcalf/miniconda2/envs/tf2gpu/share/psi4/basis/cc-pvdz.gbs
    atoms 3-8, 13-15 entry H          line    22 file /theoryfs2/ds/metcalf/miniconda2/envs/tf2gpu/share/psi4/basis/cc-pvdz.gbs
    atoms 11-12      entry O          line   198 file /theoryfs2/ds/metcalf/miniconda2/envs/tf2gpu/share/psi4/basis/cc-pvdz.gbs

         ---------------------------------------------------------
                                   SCF
               by Justin Turney, Rob Parrish, Andy Simmonett
                          and Daniel G. A. Smith
                              RHF Reference
                        1 Threads,    500 MiB Core
         ---------------------------------------------------------

  ==> Geometry <==

    Molecular point group: c1
    Full point group: C1

    Geometry (in Angstrom), charge = 0, multiplicity = 1:

       Center              X                  Y                   Z               Mass
    ------------   -----------------  -----------------  -----------------  -----------------
         C           -0.745405363124    -2.314051392894     1.457898101042    12.000000000000
         N            0.700594636876    -2.026051392894     1.207898101042    14.003074004430
         H            0.748594636876    -1.355051392894     0.436898101042     1.007825032230
         H            1.146594636876    -1.608051392894     2.014898101042     1.007825032230
         H            1.215594636876    -2.859051392894     0.948898101042     1.007825032230
         H           -1.283405363124    -1.374051392894     1.620898101042     1.007825032230
         H           -0.858405363124    -2.930051392894     2.353898101042     1.007825032230
         H           -1.204865363124    -2.844921392894     0.611099501042     1.007825032230
         C           -0.069405363124     2.203948607106     0.296898101042    12.000000000000
         C           -0.009405363124     1.116948607106    -0.770101898958    12.000000000000
         O           -0.283405363124    -0.055051392894    -0.457101898958    15.994914619570
         O            0.320594636876     1.418948607106    -1.943101898958    15.994914619570
         H           -0.897405363124     2.849948607106     0.003898101042     1.007825032230
         H            0.857594636876     2.781948607106     0.267898101042     1.007825032230
         H           -0.235025363124     1.855569607106     1.327044171042     1.007825032230

  Running in c1 symmetry.

  Rotational constants: A =      0.21766  B =      0.04395  C =      0.04082 [cm^-1]
  Rotational constants: A =   6525.39712  B =   1317.58220  C =   1223.79901 [MHz]
  Nuclear repulsion =  239.853138620079903

  Charge       = 0
  Multiplicity = 1
  Electrons    = 50
  Nalpha       = 25
  Nbeta        = 25

  ==> Algorithm <==

  SCF Algorithm Type is PK.
  DIIS enabled.
  MOM disabled.
  Fractional occupation disabled.
  Guess Type is SAD.
  Energy threshold   = 1.00e-06
  Density threshold  = 1.00e-10
  Integral threshold = 0.00e+00

  ==> Primary Basis <==

  Basis Set: CC-PVDZ
    Blend: CC-PVDZ
    Number of shells: 63
    Number of basis function: 129
    Number of Cartesian functions: 135
    Spherical Harmonics?: true
    Max angular momentum: 2

  ==> Pre-Iterations <==

   -------------------------------------------------------
    Irrep   Nso     Nmo     Nalpha   Nbeta   Ndocc  Nsocc
   -------------------------------------------------------
     A        129     129       0       0       0       0
   -------------------------------------------------------
    Total     129     129      25      25      25       0
   -------------------------------------------------------

  ==> Integral Setup <==

  Using integral reordering PK algorithm.
  Sizing the integral batches needed.
  Building batch lookup table.
   Calculation information:
      Number of atoms:                  15
      Number of AO shells:              63
      Number of primitives:            177
      Number of atomic orbitals:       135
      Number of basis functions:       129

      Integral cutoff                 1.00e-12
      Number of threads:                 1

	Batch   1 pq = [       0,    8385] index = [             0,35158305] size =     35158305
  Task number: 4
  Buffer size: 11059200
  Buffer per thread: 2
  We computed 1801499 shell quartets total.
  Whereas there are 2033136 unique shell quartets.

  ==> DiskJK: Disk-Based J/K Matrices <==

    J tasked:                  Yes
    K tasked:                  Yes
    wK tasked:                  No
    Memory [MiB]:              375
    Schwarz Cutoff:          1E-12

    OpenMP threads:              1

  Minimum eigenvalue in the overlap matrix is 5.5287969766E-03.
  Using Symmetric Orthogonalization.

  SCF Guess: Superposition of Atomic Densities via on-the-fly atomic UHF.

  ==> Iterations <==

                        Total Energy        Delta E     RMS |[F,P]|

   @RHF iter SAD:  -321.70961656731401   -3.21710e+02   0.00000e+00
   @RHF iter   1:  -322.76236743863331   -1.05275e+00   5.29766e-03 DIIS
   @RHF iter   2:  -322.93760014429068   -1.75233e-01   3.00645e-03 DIIS
   @RHF iter   3:  -322.99073614216240   -5.31360e-02   4.97613e-04 DIIS
   @RHF iter   4:  -322.99344639934696   -2.71026e-03   1.77368e-04 DIIS
   @RHF iter   5:  -322.99378579624783   -3.39397e-04   4.06037e-05 DIIS
   @RHF iter   6:  -322.99380554831998   -1.97521e-05   2.04445e-05 DIIS
   @RHF iter   7:  -322.99380970675594   -4.15844e-06   4.47373e-06 DIIS
   @RHF iter   8:  -322.99381028807255   -5.81317e-07   1.95503e-06 DIIS
   @RHF iter   9:  -322.99381039480238   -1.06730e-07   5.39028e-07 DIIS
   @RHF iter  10:  -322.99381040239552   -7.59314e-09   1.73175e-07 DIIS
   @RHF iter  11:  -322.99381040286727   -4.71744e-10   4.05254e-08 DIIS
   @RHF iter  12:  -322.99381040289705   -2.97860e-11   8.97592e-09 DIIS
   @RHF iter  13:  -322.99381040289893   -1.87583e-12   2.70618e-09 DIIS
   @RHF iter  14:  -322.99381040289791    1.02318e-12   9.29854e-10 DIIS
   @RHF iter  15:  -322.99381040289961   -1.70530e-12   3.43359e-10 DIIS
   @RHF iter  16:  -322.99381040289933    2.84217e-13   1.68189e-10 DIIS
   @RHF iter  17:  -322.99381040289813    1.19371e-12   6.93672e-11 DIIS
  Energy and wave function converged.

  ==> Post-Iterations <==

    Orbital Energies [Eh]
    ---------------------

    Doubly Occupied:

       1A    -20.425073     2A    -20.394884     3A    -15.743168
       4A    -11.342436     5A    -11.261884     6A    -11.177780
       7A     -1.362596     8A     -1.303851     9A     -1.181645
      10A     -1.013751    11A     -0.926372    12A     -0.826001
      13A     -0.816983    14A     -0.707676    15A     -0.643254
      16A     -0.618502    17A     -0.614399    18A     -0.556268
      19A     -0.542442    20A     -0.539232    21A     -0.480460
      22A     -0.449657    23A     -0.338058    24A     -0.312532
      25A     -0.309592

    Virtual:

      26A      0.091085    27A      0.150979    28A      0.161223
      29A      0.197750    30A      0.222805    31A      0.252099
      32A      0.270391    33A      0.281518    34A      0.295610
      35A      0.311090    36A      0.353505    37A      0.447601
      38A      0.515421    39A      0.533918    40A      0.560024
      41A      0.564979    42A      0.613041    43A      0.644930
      44A      0.672863    45A      0.694952    46A      0.765583
      47A      0.778231    48A      0.803255    49A      0.807273
      50A      0.823011    51A      0.835693    52A      0.854104
      53A      0.886764    54A      0.901013    55A      0.915257
      56A      0.922522    57A      0.928460    58A      0.960017
      59A      0.984699    60A      0.999800    61A      1.067918
      62A      1.079834    63A      1.100918    64A      1.180135
      65A      1.221081    66A      1.225573    67A      1.326635
      68A      1.382984    69A      1.402180    70A      1.424531
      71A      1.455948    72A      1.468216    73A      1.502485
      74A      1.532409    75A      1.571876    76A      1.604968
      77A      1.624714    78A      1.678197    79A      1.719506
      80A      1.735581    81A      1.791316    82A      1.804516
      83A      1.824841    84A      1.859365    85A      1.889244
      86A      1.901312    87A      1.930749    88A      1.957735
      89A      1.970323    90A      2.011986    91A      2.068899
      92A      2.076794    93A      2.093808    94A      2.112330
      95A      2.119744    96A      2.127839    97A      2.159217
      98A      2.190721    99A      2.262041   100A      2.282623
     101A      2.302992   102A      2.402886   103A      2.414415
     104A      2.456220   105A      2.518642   106A      2.553126
     107A      2.589033   108A      2.624731   109A      2.649297
     110A      2.671979   111A      2.683023   112A      2.797111
     113A      2.834580   114A      2.862360   115A      2.871722
     116A      2.883060   117A      2.928033   118A      3.086999
     119A      3.128238   120A      3.145429   121A      3.210978
     122A      3.230934   123A      3.276060   124A      3.497311
     125A      3.634215   126A      3.671885   127A      3.929226
     128A      3.963838   129A      4.054266

    Final Occupation by Irrep:
              A
    DOCC [    25 ]

  @RHF Final Energy:  -322.99381040289813

   => Energetics <=

    Nuclear Repulsion Energy =            239.8531386200799034
    One-Electron Energy =                -917.9169071128520727
    Two-Electron Energy =                 355.0699580898740351
    Total Energy =                       -322.9938104028981343

Computation Completed

Properties will be evaluated at   0.000000,   0.000000,   0.000000 [a0]

Properties computed using the SCF density matrix

  Nuclear Dipole Moment: [e a0]
     X:    -0.4806      Y:    -5.1284      Z:     8.9710

  Electronic Dipole Moment: [e a0]
     X:     1.2044      Y:     1.2090      Z:    -4.8681

  Dipole Moment: [e a0]
     X:     0.7237      Y:    -3.9194      Z:     4.1029     Total:     5.7200

  Dipole Moment: [D]
     X:     1.8395      Y:    -9.9621      Z:    10.4285     Total:    14.5389

*** tstop() called on ds3 at Tue Apr 28 14:22:13 2020
Module time:
	user time   =      14.34 seconds =       0.24 minutes
	system time =       6.68 seconds =       0.11 minutes
	total time  =         20 seconds =       0.33 minutes
Total time:
	user time   =      14.34 seconds =       0.24 minutes
	system time =       6.68 seconds =       0.11 minutes
	total time  =         20 seconds =       0.33 minutes
                                     G D M A

                                 by Anthony Stone

                           version 2.2.06, 22 June 2011

               Distributed Multipoles from Gaussian wavefunctions

Starting at 14:22:13 on 28 Apr 2020

Using SCF density matrix from file ./SSI/SSI-008LYS-068GLU-2-dimer.test.15341.fchk

                         Distributed Multipole Analysis

Standard DMA

Positions and radii in angstrom
Multipole moments in atomic units, ea_0^k for rank k

C          x = -0.745405  y = -2.314051  z =  1.457898 angstrom
           Maximum rank =  0   Radius =  0.650 angstrom
                   Q00  =  -0.113757

N          x =  0.700595  y = -2.026051  z =  1.207898 angstrom
           Maximum rank =  0   Radius =  0.650 angstrom
                   Q00  =  -0.122562

H          x =  0.748595  y = -1.355051  z =  0.436898 angstrom
           Maximum rank =  0   Radius =  0.325 angstrom
                   Q00  =   0.283745

H          x =  1.146595  y = -1.608051  z =  2.014898 angstrom
           Maximum rank =  0   Radius =  0.325 angstrom
                   Q00  =   0.232456

H          x =  1.215595  y = -2.859051  z =  0.948898 angstrom
           Maximum rank =  0   Radius =  0.325 angstrom
                   Q00  =   0.223579

H          x = -1.283405  y = -1.374051  z =  1.620898 angstrom
           Maximum rank =  0   Radius =  0.325 angstrom
                   Q00  =   0.169017

H          x = -0.858405  y = -2.930051  z =  2.353898 angstrom
           Maximum rank =  0   Radius =  0.325 angstrom
                   Q00  =   0.107741

H          x = -1.204865  y = -2.844921  z =  0.611100 angstrom
           Maximum rank =  0   Radius =  0.325 angstrom
                   Q00  =   0.158901

C          x = -0.069405  y =  2.203949  z =  0.296898 angstrom
           Maximum rank =  0   Radius =  0.650 angstrom
                   Q00  =  -0.286295

C          x = -0.009405  y =  1.116949  z = -0.770102 angstrom
           Maximum rank =  0   Radius =  0.650 angstrom
                   Q00  =   0.929368

O          x = -0.283405  y = -0.055051  z = -0.457102 angstrom
           Maximum rank =  0   Radius =  0.650 angstrom
                   Q00  =  -0.954061

O          x =  0.320595  y =  1.418949  z = -1.943102 angstrom
           Maximum rank =  0   Radius =  0.650 angstrom
                   Q00  =  -0.874882

H          x = -0.897405  y =  2.849949  z =  0.003898 angstrom
           Maximum rank =  0   Radius =  0.325 angstrom
                   Q00  =   0.113189

H          x =  0.857595  y =  2.781949  z =  0.267898 angstrom
           Maximum rank =  0   Radius =  0.325 angstrom
                   Q00  =   0.095618

H          x = -0.235025  y =  1.855570  z =  1.327044 angstrom
           Maximum rank =  0   Radius =  0.325 angstrom
                   Q00  =   0.037942

Total multipoles referred to origin at
           x =   0.000000,  y =    0.000000,  z =    0.000000 angstrom
                   Q00  =  -0.000000

Finished at 14:22:13 on 28 Apr 2020

  DMA results are available in the Python driver through the
	  variable('DMA DISTRIBUTED MULTIPOLES')
  and
	  variable('DMA TOTAL MULTIPOLES')
  commands.

    Psi4 stopped on: Tuesday, 28 April 2020 02:22PM
    Psi4 wall time for execution: 0:00:20.65

*** Psi4 exiting successfully. Buy a developer a beer!
