                               Psi4 1.3.2 release

  ==> Input File <==

--------------------------------------------------------------------------
import numpy as np
set {scf_type pk
basis cc-pvdz
d_convergence 10
gdma_switch   0
gdma_limit    0
gdma_origin   [ 0.0,  0.0,  0.0 ]
}
molecule test {
    units Angstrom
    1 1
    --
    1 1
    C               -1.895400641201401    -0.585327197858374    -1.794369754597408
    C                0.429599358798599    -0.201327197858374    -1.047369754597408
    N               -0.706400641201401     0.240672802141626    -1.564369754597408
    N                0.552599358798599    -1.466327197858374    -0.691369754597408
    N                1.443599358798600     0.623672802141626    -0.876369754597408
    H               -0.744400641201400     1.210672802141626    -1.843369754597408
    H               -0.197400641201401    -2.112327197858374    -0.869369754597408
    H                1.418599358798599    -1.808327197858374    -0.306369754597408
    H                1.372599358798599     1.585672802141626    -1.170369754597408
    H                2.326599358798599     0.278672802141626    -0.536369754597408
    H               -1.898400641201401    -1.505327197858374    -1.208369754597408
    H               -1.916400641201401    -0.861327197858374    -2.851369754597408
    H               -2.810330641201400    -0.016317197858374    -1.572719754597408
    C               -0.189400641201401     0.620672802141626     2.229630245402592
    C                0.321599358798599     0.786672802141626     3.656630245402592
    H               -1.141400641201401     1.142672802141626     2.117630245402592
    H                0.521599358798599     1.046672802141626     1.528630245402592
    H               -0.332400641201401    -0.438327197858374     2.009630245402592
    H                1.234599358798599     0.200672802141626     3.745630245402592
    H               -0.431640641201400     0.408922802141626     4.363690245402593
    H                0.556449358798599     1.841672802141626     3.861130245402592

}
e, wfn = energy('scf', return_wfn=True)
gdma(wfn)
dmavals = variable('DMA DISTRIBUTED MULTIPOLES')
charges = np.array(dmavals)
print(charges)
np.save('SSI-112ARG-115ALA-1-dimer.npy', np.array(charges))--------------------------------------------------------------------------

*** tstart() called on ds3
*** at Sun Apr 26 17:55:17 2020

   => Loading Basis Set <=

    Name: CC-PVDZ
    Role: ORBITAL
    Keyword: BASIS
    atoms 1-2, 14-15  entry C          line   138 file /theoryfs2/ds/metcalf/miniconda2/envs/tf2gpu/share/psi4/basis/cc-pvdz.gbs
    atoms 3-5         entry N          line   168 file /theoryfs2/ds/metcalf/miniconda2/envs/tf2gpu/share/psi4/basis/cc-pvdz.gbs
    atoms 6-13, 16-21 entry H          line    22 file /theoryfs2/ds/metcalf/miniconda2/envs/tf2gpu/share/psi4/basis/cc-pvdz.gbs

         ---------------------------------------------------------
                                   SCF
               by Justin Turney, Rob Parrish, Andy Simmonett
                          and Daniel G. A. Smith
                              RHF Reference
                        1 Threads,    500 MiB Core
         ---------------------------------------------------------

  ==> Geometry <==

    Molecular point group: c1
    Full point group: C1

    Geometry (in Angstrom), charge = 1, multiplicity = 1:

       Center              X                  Y                   Z               Mass
    ------------   -----------------  -----------------  -----------------  -----------------
         C           -1.895400641201    -0.585327197858    -1.794369754597    12.000000000000
         C            0.429599358799    -0.201327197858    -1.047369754597    12.000000000000
         N           -0.706400641201     0.240672802142    -1.564369754597    14.003074004430
         N            0.552599358799    -1.466327197858    -0.691369754597    14.003074004430
         N            1.443599358799     0.623672802142    -0.876369754597    14.003074004430
         H           -0.744400641201     1.210672802142    -1.843369754597     1.007825032230
         H           -0.197400641201    -2.112327197858    -0.869369754597     1.007825032230
         H            1.418599358799    -1.808327197858    -0.306369754597     1.007825032230
         H            1.372599358799     1.585672802142    -1.170369754597     1.007825032230
         H            2.326599358799     0.278672802142    -0.536369754597     1.007825032230
         H           -1.898400641201    -1.505327197858    -1.208369754597     1.007825032230
         H           -1.916400641201    -0.861327197858    -2.851369754597     1.007825032230
         H           -2.810330641201    -0.016317197858    -1.572719754597     1.007825032230
         C           -0.189400641201     0.620672802142     2.229630245403    12.000000000000
         C            0.321599358799     0.786672802142     3.656630245403    12.000000000000
         H           -1.141400641201     1.142672802142     2.117630245403     1.007825032230
         H            0.521599358799     1.046672802142     1.528630245403     1.007825032230
         H           -0.332400641201    -0.438327197858     2.009630245403     1.007825032230
         H            1.234599358799     0.200672802142     3.745630245403     1.007825032230
         H           -0.431640641201     0.408922802142     4.363690245403     1.007825032230
         H            0.556449358799     1.841672802142     3.861130245403     1.007825032230

  Running in c1 symmetry.

  Rotational constants: A =      0.10411  B =      0.03486  C =      0.03134 [cm^-1]
  Rotational constants: A =   3121.12831  B =   1045.19390  C =    939.61856 [MHz]
  Nuclear repulsion =  325.561817687712164

  Charge       = 1
  Multiplicity = 1
  Electrons    = 58
  Nalpha       = 29
  Nbeta        = 29

  ==> Algorithm <==

  SCF Algorithm Type is PK.
  DIIS enabled.
  MOM disabled.
  Fractional occupation disabled.
  Guess Type is SAD.
  Energy threshold   = 1.00e-06
  Density threshold  = 1.00e-10
  Integral threshold = 0.00e+00

  ==> Primary Basis <==

  Basis Set: CC-PVDZ
    Blend: CC-PVDZ
    Number of shells: 84
    Number of basis function: 168
    Number of Cartesian functions: 175
    Spherical Harmonics?: true
    Max angular momentum: 2

  ==> Pre-Iterations <==

   -------------------------------------------------------
    Irrep   Nso     Nmo     Nalpha   Nbeta   Ndocc  Nsocc
   -------------------------------------------------------
     A        168     168       0       0       0       0
   -------------------------------------------------------
    Total     168     168      29      29      29       0
   -------------------------------------------------------

  ==> Integral Setup <==

  Using integral reordering PK algorithm.
  Sizing the integral batches needed.
  Building batch lookup table.
   Calculation information:
      Number of atoms:                  21
      Number of AO shells:              84
      Number of primitives:            224
      Number of atomic orbitals:       175
      Number of basis functions:       168

      Integral cutoff                 1.00e-12
      Number of threads:                 1

	Batch   1 pq = [       0,    9405] index = [             0,44231715] size =     44231715
	Batch   2 pq = [    9405,   13301] index = [      44231715,88464951] size =     44233236
	Batch   3 pq = [   13301,   14196] index = [      88464951,100770306] size =     12305355
  Task number: 10
  Buffer size: 11059200
  Buffer per thread: 2
  We computed 5863189 shell quartets total.
  Whereas there are 6374235 unique shell quartets.

  ==> DiskJK: Disk-Based J/K Matrices <==

    J tasked:                  Yes
    K tasked:                  Yes
    wK tasked:                  No
    Memory [MiB]:              375
    Schwarz Cutoff:          1E-12

    OpenMP threads:              1

  Minimum eigenvalue in the overlap matrix is 3.2910350589E-03.
  Using Symmetric Orthogonalization.

  SCF Guess: Superposition of Atomic Densities via on-the-fly atomic UHF.

  ==> Iterations <==

                        Total Energy        Delta E     RMS |[F,P]|

   @RHF iter SAD:  -322.15849494754559   -3.22158e+02   0.00000e+00
   @RHF iter   1:  -322.61289432865101   -4.54399e-01   3.42866e-03 DIIS
   @RHF iter   2:  -322.78580764317866   -1.72913e-01   1.34374e-03 DIIS
   @RHF iter   3:  -322.81111035971492   -2.53027e-02   3.20077e-04 DIIS
   @RHF iter   4:  -322.81350795922833   -2.39760e-03   5.10466e-05 DIIS
   @RHF iter   5:  -322.81357125287860   -6.32937e-05   2.07873e-05 DIIS
   @RHF iter   6:  -322.81358005635286   -8.80347e-06   4.13207e-06 DIIS
   @RHF iter   7:  -322.81358065058134   -5.94228e-07   1.34839e-06 DIIS
   @RHF iter   8:  -322.81358069261069   -4.20293e-08   3.98887e-07 DIIS
   @RHF iter   9:  -322.81358069653305   -3.92237e-09   9.32342e-08 DIIS
   @RHF iter  10:  -322.81358069676560   -2.32546e-10   2.70330e-08 DIIS
   @RHF iter  11:  -322.81358069678544   -1.98384e-11   7.01929e-09 DIIS
   @RHF iter  12:  -322.81358069678606   -6.25278e-13   2.13670e-09 DIIS
   @RHF iter  13:  -322.81358069678834   -2.27374e-12   8.15215e-10 DIIS
   @RHF iter  14:  -322.81358069678714    1.19371e-12   2.79371e-10 DIIS
   @RHF iter  15:  -322.81358069678686    2.84217e-13   6.39999e-11 DIIS
  Energy and wave function converged.

  ==> Post-Iterations <==

    Orbital Energies [Eh]
    ---------------------

    Doubly Occupied:

       1A    -15.788114     2A    -15.787836     3A    -15.787517
       4A    -11.590171     5A    -11.443923     6A    -11.329901
       7A    -11.317402     8A     -1.546971     9A     -1.403829
      10A     -1.392917    11A     -1.143655    12A     -1.127239
      13A     -1.040032    14A     -0.981725    15A     -0.943021
      16A     -0.942427    17A     -0.860939    18A     -0.858573
      19A     -0.825164    20A     -0.796728    21A     -0.744214
      22A     -0.729188    23A     -0.708858    24A     -0.705349
      25A     -0.621149    26A     -0.605273    27A     -0.592343
      28A     -0.589993    29A     -0.581812

    Virtual:

      30A     -0.011950    31A      0.022489    32A      0.024586
      33A      0.030811    34A      0.060192    35A      0.083344
      36A      0.091231    37A      0.114491    38A      0.118012
      39A      0.139322    40A      0.147512    41A      0.155239
      42A      0.164516    43A      0.183395    44A      0.193241
      45A      0.201975    46A      0.257937    47A      0.306270
      48A      0.324485    49A      0.338171    50A      0.420872
      51A      0.447100    52A      0.475080    53A      0.492568
      54A      0.493343    55A      0.516015    56A      0.528044
      57A      0.548183    58A      0.556842    59A      0.563341
      60A      0.573321    61A      0.599168    62A      0.670723
      63A      0.679248    64A      0.686961    65A      0.697235
      66A      0.712283    67A      0.743162    68A      0.754386
      69A      0.769556    70A      0.774203    71A      0.789386
      72A      0.797834    73A      0.798747    74A      0.809403
      75A      0.823017    76A      0.838771    77A      0.857468
      78A      0.869420    79A      0.892726    80A      0.912019
      81A      0.937417    82A      0.950297    83A      1.000085
      84A      1.021932    85A      1.040977    86A      1.058492
      87A      1.110383    88A      1.125001    89A      1.162764
      90A      1.184671    91A      1.193031    92A      1.201170
      93A      1.227253    94A      1.289879    95A      1.355497
      96A      1.375818    97A      1.386803    98A      1.442397
      99A      1.478504   100A      1.506043   101A      1.549470
     102A      1.557059   103A      1.570169   104A      1.586606
     105A      1.600182   106A      1.614434   107A      1.664347
     108A      1.701934   109A      1.708437   110A      1.730106
     111A      1.736277   112A      1.745351   113A      1.762241
     114A      1.772734   115A      1.787572   116A      1.804828
     117A      1.817985   118A      1.826569   119A      1.838349
     120A      1.848521   121A      1.865223   122A      1.874322
     123A      1.897147   124A      1.900504   125A      1.920012
     126A      1.984803   127A      1.999853   128A      2.011670
     129A      2.019771   130A      2.057791   131A      2.111240
     132A      2.143439   133A      2.162100   134A      2.188483
     135A      2.225827   136A      2.241679   137A      2.275318
     138A      2.316386   139A      2.320779   140A      2.342011
     141A      2.364341   142A      2.373368   143A      2.376819
     144A      2.416839   145A      2.454838   146A      2.474872
     147A      2.476050   148A      2.546712   149A      2.571926
     150A      2.593521   151A      2.628909   152A      2.668562
     153A      2.682765   154A      2.726107   155A      2.734291
     156A      2.743187   157A      2.753295   158A      2.782896
     159A      2.817128   160A      2.838196   161A      2.859161
     162A      2.867553   163A      2.910019   164A      3.062364
     165A      3.104630   166A      3.124290   167A      3.576369
     168A      3.656228

    Final Occupation by Irrep:
              A
    DOCC [    29 ]

  @RHF Final Energy:  -322.81358069678686

   => Energetics <=

    Nuclear Repulsion Energy =            325.5618176877121641
    One-Electron Energy =               -1071.1782697097296477
    Two-Electron Energy =                 422.8028713252306261
    Total Energy =                       -322.8135806967868575

Computation Completed

Properties will be evaluated at   0.000000,   0.000000,   0.000000 [a0]

Properties computed using the SCF density matrix

  Nuclear Dipole Moment: [e a0]
     X:    -1.9180      Y:     0.9145      Z:     6.8227

  Electronic Dipole Moment: [e a0]
     X:     2.3997      Y:    -1.3322      Z:    -8.8181

  Dipole Moment: [e a0]
     X:     0.4817      Y:    -0.4176      Z:    -1.9955     Total:     2.0948

  Dipole Moment: [D]
     X:     1.2243      Y:    -1.0615      Z:    -5.0720     Total:     5.3246

*** tstop() called on ds3 at Sun Apr 26 17:56:05 2020
Module time:
	user time   =      35.32 seconds =       0.59 minutes
	system time =      13.87 seconds =       0.23 minutes
	total time  =         48 seconds =       0.80 minutes
Total time:
	user time   =      35.32 seconds =       0.59 minutes
	system time =      13.87 seconds =       0.23 minutes
	total time  =         48 seconds =       0.80 minutes
                                     G D M A

                                 by Anthony Stone

                           version 2.2.06, 22 June 2011

               Distributed Multipoles from Gaussian wavefunctions

Starting at 17:56:5 on 26 Apr 2020

Using SCF density matrix from file ./SSI/SSI-112ARG-115ALA-1-dimer.test.30811.fchk

                         Distributed Multipole Analysis

Standard DMA

Positions and radii in angstrom
Multipole moments in atomic units, ea_0^k for rank k

C          x = -1.895401  y = -0.585327  z = -1.794370 angstrom
           Maximum rank =  0   Radius =  0.650 angstrom
                   Q00  =  -0.124741

C          x =  0.429599  y = -0.201327  z = -1.047370 angstrom
           Maximum rank =  0   Radius =  0.650 angstrom
                   Q00  =   1.068320

N          x = -0.706401  y =  0.240673  z = -1.564370 angstrom
           Maximum rank =  0   Radius =  0.650 angstrom
                   Q00  =  -0.489362

N          x =  0.552599  y = -1.466327  z = -0.691370 angstrom
           Maximum rank =  0   Radius =  0.650 angstrom
                   Q00  =  -0.577560

N          x =  1.443599  y =  0.623673  z = -0.876370 angstrom
           Maximum rank =  0   Radius =  0.650 angstrom
                   Q00  =  -0.578987

H          x = -0.744401  y =  1.210673  z = -1.843370 angstrom
           Maximum rank =  0   Radius =  0.325 angstrom
                   Q00  =   0.237376

H          x = -0.197401  y = -2.112327  z = -0.869370 angstrom
           Maximum rank =  0   Radius =  0.325 angstrom
                   Q00  =   0.268288

H          x =  1.418599  y = -1.808327  z = -0.306370 angstrom
           Maximum rank =  0   Radius =  0.325 angstrom
                   Q00  =   0.267646

H          x =  1.372599  y =  1.585673  z = -1.170370 angstrom
           Maximum rank =  0   Radius =  0.325 angstrom
                   Q00  =   0.266843

H          x =  2.326599  y =  0.278673  z = -0.536370 angstrom
           Maximum rank =  0   Radius =  0.325 angstrom
                   Q00  =   0.266634

H          x = -1.898401  y = -1.505327  z = -1.208370 angstrom
           Maximum rank =  0   Radius =  0.325 angstrom
                   Q00  =   0.114832

H          x = -1.916401  y = -0.861327  z = -2.851370 angstrom
           Maximum rank =  0   Radius =  0.325 angstrom
                   Q00  =   0.129740

H          x = -2.810331  y = -0.016317  z = -1.572720 angstrom
           Maximum rank =  0   Radius =  0.325 angstrom
                   Q00  =   0.157420

C          x = -0.189401  y =  0.620673  z =  2.229630 angstrom
           Maximum rank =  0   Radius =  0.650 angstrom
                   Q00  =  -0.278594

C          x =  0.321599  y =  0.786673  z =  3.656630 angstrom
           Maximum rank =  0   Radius =  0.650 angstrom
                   Q00  =  -0.203936

H          x = -1.141401  y =  1.142673  z =  2.117630 angstrom
           Maximum rank =  0   Radius =  0.325 angstrom
                   Q00  =   0.091710

H          x =  0.521599  y =  1.046673  z =  1.528630 angstrom
           Maximum rank =  0   Radius =  0.325 angstrom
                   Q00  =   0.052267

H          x = -0.332401  y = -0.438327  z =  2.009630 angstrom
           Maximum rank =  0   Radius =  0.325 angstrom
                   Q00  =   0.064327

H          x =  1.234599  y =  0.200673  z =  3.745630 angstrom
           Maximum rank =  0   Radius =  0.325 angstrom
                   Q00  =   0.076147

H          x = -0.431641  y =  0.408923  z =  4.363690 angstrom
           Maximum rank =  0   Radius =  0.325 angstrom
                   Q00  =   0.098465

H          x =  0.556449  y =  1.841673  z =  3.861130 angstrom
           Maximum rank =  0   Radius =  0.325 angstrom
                   Q00  =   0.093165

Total multipoles referred to origin at
           x =   0.000000,  y =    0.000000,  z =    0.000000 angstrom
                   Q00  =   1.000000

Finished at 17:56:5 on 26 Apr 2020

  DMA results are available in the Python driver through the
	  variable('DMA DISTRIBUTED MULTIPOLES')
  and
	  variable('DMA TOTAL MULTIPOLES')
  commands.

    Psi4 stopped on: Sunday, 26 April 2020 05:56PM
    Psi4 wall time for execution: 0:00:47.80

*** Psi4 exiting successfully. Buy a developer a beer!
