                               Psi4 1.3.2 release

  ==> Input File <==

--------------------------------------------------------------------------
import numpy as np
set {scf_type pk
basis cc-pvdz
d_convergence 10
gdma_switch   0
gdma_limit    0
gdma_origin   [ 0.0,  0.0,  0.0 ]
}
molecule test {
    units Angstrom
    0 1
    --
    0 1
    C               -1.576106754121535    -1.062064661614884     2.277586740915572
    C               -0.995106754121535    -0.362064661614884     3.503586740915572
    H               -2.489106754121534    -1.600064661614884     2.530586740915572
    H               -1.769106754121535    -0.320064661614884     1.511586740915572
    H               -0.849106754121534    -1.759064661614884     1.860586740915572
    H               -0.229106754121535     0.335935338385116     3.168586740915572
    H               -0.527591754121535    -1.102596661614884     4.169196740915571
    H               -1.775502754121535     0.195774338385116     4.041916740915571
    C               -1.385106754121535     0.359935338385116    -3.179413259084428
    C                0.416893245878465     1.255935338385116     0.079586740915572
    C               -0.411106754121535     1.332935338385116    -1.040413259084428
    C                1.174893245878465     0.108935338385116     0.302586740915572
    C               -0.502106754121535     0.266935338385116    -1.943413259084428
    C                1.104893245878465    -0.953064661614884    -0.591413259084428
    C                0.276893245878465    -0.866064661614884    -1.714413259084428
    O                1.989893245878465     0.029935338385116     1.390586740915572
    H                0.466893245878465     2.085935338385116     0.770586740915572
    H               -0.984106754121535     2.233935338385116    -1.207413259084428
    H                1.946893245878465     0.850935338385116     1.913586740915572
    H                1.697893245878465    -1.839064661614884    -0.418413259084428
    H               -1.380106754121535    -0.594064661614884    -3.709413259084428
    H               -0.921106754121535     1.096935338385116    -3.836413259084428
    H                0.233893245878465    -1.695064661614884    -2.407413259084428
    H               -2.426900754121534     0.666007338385116    -3.003383259084428

}
e, wfn = energy('scf', return_wfn=True)
gdma(wfn)
dmavals = variable('DMA DISTRIBUTED MULTIPOLES')
charges = np.array(dmavals)
print(charges)
np.save('SSI-036LEU-047TYR-1-dimer.npy', np.array(charges))--------------------------------------------------------------------------

*** tstart() called on ds3
*** at Tue Apr 28 21:35:45 2020

   => Loading Basis Set <=

    Name: CC-PVDZ
    Role: ORBITAL
    Keyword: BASIS
    atoms 1-2, 9-15  entry C          line   138 file /theoryfs2/ds/metcalf/miniconda2/envs/tf2gpu/share/psi4/basis/cc-pvdz.gbs
    atoms 3-8, 17-24 entry H          line    22 file /theoryfs2/ds/metcalf/miniconda2/envs/tf2gpu/share/psi4/basis/cc-pvdz.gbs
    atoms 16         entry O          line   198 file /theoryfs2/ds/metcalf/miniconda2/envs/tf2gpu/share/psi4/basis/cc-pvdz.gbs

         ---------------------------------------------------------
                                   SCF
               by Justin Turney, Rob Parrish, Andy Simmonett
                          and Daniel G. A. Smith
                              RHF Reference
                        1 Threads,    500 MiB Core
         ---------------------------------------------------------

  ==> Geometry <==

    Molecular point group: c1
    Full point group: C1

    Geometry (in Angstrom), charge = 0, multiplicity = 1:

       Center              X                  Y                   Z               Mass
    ------------   -----------------  -----------------  -----------------  -----------------
         C           -1.576106754122    -1.062064661615     2.277586740916    12.000000000000
         C           -0.995106754122    -0.362064661615     3.503586740916    12.000000000000
         H           -2.489106754122    -1.600064661615     2.530586740916     1.007825032230
         H           -1.769106754122    -0.320064661615     1.511586740916     1.007825032230
         H           -0.849106754122    -1.759064661615     1.860586740916     1.007825032230
         H           -0.229106754122     0.335935338385     3.168586740916     1.007825032230
         H           -0.527591754122    -1.102596661615     4.169196740916     1.007825032230
         H           -1.775502754122     0.195774338385     4.041916740916     1.007825032230
         C           -1.385106754122     0.359935338385    -3.179413259084    12.000000000000
         C            0.416893245878     1.255935338385     0.079586740916    12.000000000000
         C           -0.411106754122     1.332935338385    -1.040413259084    12.000000000000
         C            1.174893245878     0.108935338385     0.302586740916    12.000000000000
         C           -0.502106754122     0.266935338385    -1.943413259084    12.000000000000
         C            1.104893245878    -0.953064661615    -0.591413259084    12.000000000000
         C            0.276893245878    -0.866064661615    -1.714413259084    12.000000000000
         O            1.989893245878     0.029935338385     1.390586740916    15.994914619570
         H            0.466893245878     2.085935338385     0.770586740916     1.007825032230
         H           -0.984106754122     2.233935338385    -1.207413259084     1.007825032230
         H            1.946893245878     0.850935338385     1.913586740916     1.007825032230
         H            1.697893245878    -1.839064661615    -0.418413259084     1.007825032230
         H           -1.380106754122    -0.594064661615    -3.709413259084     1.007825032230
         H           -0.921106754122     1.096935338385    -3.836413259084     1.007825032230
         H            0.233893245878    -1.695064661615    -2.407413259084     1.007825032230
         H           -2.426900754122     0.666007338385    -3.003383259084     1.007825032230

  Running in c1 symmetry.

  Rotational constants: A =      0.05779  B =      0.02514  C =      0.02180 [cm^-1]
  Rotational constants: A =   1732.43188  B =    753.72247  C =    653.53079 [MHz]
  Nuclear repulsion =  508.424961669107063

  Charge       = 0
  Multiplicity = 1
  Electrons    = 76
  Nalpha       = 38
  Nbeta        = 38

  ==> Algorithm <==

  SCF Algorithm Type is PK.
  DIIS enabled.
  MOM disabled.
  Fractional occupation disabled.
  Guess Type is SAD.
  Energy threshold   = 1.00e-06
  Density threshold  = 1.00e-10
  Integral threshold = 0.00e+00

  ==> Primary Basis <==

  Basis Set: CC-PVDZ
    Blend: CC-PVDZ
    Number of shells: 102
    Number of basis function: 210
    Number of Cartesian functions: 220
    Spherical Harmonics?: true
    Max angular momentum: 2

  ==> Pre-Iterations <==

   -------------------------------------------------------
    Irrep   Nso     Nmo     Nalpha   Nbeta   Ndocc  Nsocc
   -------------------------------------------------------
     A        210     210       0       0       0       0
   -------------------------------------------------------
    Total     210     210      38      38      38       0
   -------------------------------------------------------

  ==> Integral Setup <==

  Using integral reordering PK algorithm.
  Sizing the integral batches needed.
  Building batch lookup table.
   Calculation information:
      Number of atoms:                  24
      Number of AO shells:             102
      Number of primitives:            290
      Number of atomic orbitals:       220
      Number of basis functions:       210

      Integral cutoff                 1.00e-12
      Number of threads:                 1

	Batch   1 pq = [       0,    9405] index = [             0,44231715] size =     44231715
	Batch   2 pq = [    9405,   13301] index = [      44231715,88464951] size =     44233236
	Batch   3 pq = [   13301,   16290] index = [      88464951,132690195] size =     44225244
	Batch   4 pq = [   16290,   18810] index = [     132690195,176917455] size =     44227260
	Batch   5 pq = [   18810,   21030] index = [     176917455,221140965] size =     44223510
	Batch   6 pq = [   21030,   22155] index = [     221140965,245433090] size =     24292125
  Task number: 23
  Buffer size: 11059200
  Buffer per thread: 2
  We computed 12923961 shell quartets total.
  Whereas there are 13799631 unique shell quartets.

  ==> DiskJK: Disk-Based J/K Matrices <==

    J tasked:                  Yes
    K tasked:                  Yes
    wK tasked:                  No
    Memory [MiB]:              375
    Schwarz Cutoff:          1E-12

    OpenMP threads:              1

  Minimum eigenvalue in the overlap matrix is 3.2523289335E-04.
  Using Symmetric Orthogonalization.

  SCF Guess: Superposition of Atomic Densities via on-the-fly atomic UHF.

  ==> Iterations <==

                        Total Energy        Delta E     RMS |[F,P]|

   @RHF iter SAD:  -422.64876047340204   -4.22649e+02   0.00000e+00
   @RHF iter   1:  -423.60090929923905   -9.52149e-01   2.97357e-03 DIIS
   @RHF iter   2:  -423.81728199197016   -2.16373e-01   1.25287e-03 DIIS
   @RHF iter   3:  -423.85198118915088   -3.46992e-02   2.78536e-04 DIIS
   @RHF iter   4:  -423.85480491564169   -2.82373e-03   1.10650e-04 DIIS
   @RHF iter   5:  -423.85511646866587   -3.11553e-04   2.11329e-05 DIIS
   @RHF iter   6:  -423.85513420852101   -1.77399e-05   6.55222e-06 DIIS
   @RHF iter   7:  -423.85513588356849   -1.67505e-06   2.09568e-06 DIIS
   @RHF iter   8:  -423.85513610860903   -2.25041e-07   8.01477e-07 DIIS
   @RHF iter   9:  -423.85513614336639   -3.47574e-08   2.93081e-07 DIIS
   @RHF iter  10:  -423.85513614936383   -5.99744e-09   1.21251e-07 DIIS
   @RHF iter  11:  -423.85513615102241   -1.65858e-09   5.53438e-08 DIIS
   @RHF iter  12:  -423.85513615140582   -3.83409e-10   2.88280e-08 DIIS
   @RHF iter  13:  -423.85513615148818   -8.23661e-11   8.32742e-09 DIIS
   @RHF iter  14:  -423.85513615149478   -6.59384e-12   2.19081e-09 DIIS
   @RHF iter  15:  -423.85513615149347    1.30740e-12   7.57648e-10 DIIS
   @RHF iter  16:  -423.85513615149586   -2.38742e-12   2.52521e-10 DIIS
   @RHF iter  17:  -423.85513615149330    2.55795e-12   1.15695e-10 DIIS
   @RHF iter  18:  -423.85513615148875    4.54747e-12   5.68705e-11 DIIS
  Energy and wave function converged.

  ==> Post-Iterations <==

    Orbital Energies [Eh]
    ---------------------

    Doubly Occupied:

       1A    -20.586766     2A    -11.299582     3A    -11.241271
       4A    -11.239752     5A    -11.236777     6A    -11.235323
       7A    -11.230794     8A    -11.230517     9A    -11.213919
      10A    -11.204952    11A     -1.400549    12A     -1.149885
      13A     -1.035757    14A     -1.017790    15A     -1.011306
      16A     -0.926512    17A     -0.845191    18A     -0.829013
      19A     -0.802274    20A     -0.731092    21A     -0.668415
      22A     -0.641901    23A     -0.608225    24A     -0.601742
      25A     -0.589361    26A     -0.586938    27A     -0.579439
      28A     -0.569607    29A     -0.566570    30A     -0.529340
      31A     -0.497979    32A     -0.492782    33A     -0.486355
      34A     -0.483059    35A     -0.475633    36A     -0.463920
      37A     -0.338910    38A     -0.302371

    Virtual:

      39A      0.127108    40A      0.155018    41A      0.166149
      42A      0.184908    43A      0.207773    44A      0.213749
      45A      0.220315    46A      0.245687    47A      0.255502
      48A      0.264497    49A      0.268360    50A      0.272404
      51A      0.282275    52A      0.292584    53A      0.310061
      54A      0.324933    55A      0.367298    56A      0.375866
      57A      0.404366    58A      0.425144    59A      0.452456
      60A      0.485912    61A      0.491224    62A      0.504703
      63A      0.579045    64A      0.600737    65A      0.602106
      66A      0.617556    67A      0.626269    68A      0.649676
      69A      0.655580    70A      0.662428    71A      0.685875
      72A      0.692964    73A      0.713191    74A      0.727917
      75A      0.734748    76A      0.752994    77A      0.766048
      78A      0.780198    79A      0.783439    80A      0.798485
      81A      0.827581    82A      0.839286    83A      0.851744
      84A      0.854497    85A      0.861567    86A      0.873628
      87A      0.885951    88A      0.889664    89A      0.895144
      90A      0.900716    91A      0.907682    92A      0.921328
      93A      0.923053    94A      0.940894    95A      0.945687
      96A      0.959828    97A      0.970718    98A      0.982823
      99A      0.998713   100A      1.024171   101A      1.038738
     102A      1.074996   103A      1.115714   104A      1.128045
     105A      1.134818   106A      1.146134   107A      1.154403
     108A      1.173099   109A      1.210434   110A      1.224920
     111A      1.247439   112A      1.263053   113A      1.265400
     114A      1.282482   115A      1.305589   116A      1.312034
     117A      1.336637   118A      1.354640   119A      1.379607
     120A      1.392915   121A      1.480479   122A      1.486855
     123A      1.497494   124A      1.502969   125A      1.506392
     126A      1.558565   127A      1.586558   128A      1.618699
     129A      1.647828   130A      1.671729   131A      1.688807
     132A      1.693504   133A      1.704221   134A      1.737153
     135A      1.754520   136A      1.782628   137A      1.810254
     138A      1.812060   139A      1.863886   140A      1.869184
     141A      1.879830   142A      1.888804   143A      1.892986
     144A      1.904768   145A      1.911252   146A      1.927697
     147A      1.930707   148A      1.938591   149A      1.953152
     150A      1.956230   151A      1.959045   152A      1.964951
     153A      1.967102   154A      1.970527   155A      1.982246
     156A      2.003321   157A      2.032734   158A      2.047611
     159A      2.062944   160A      2.077253   161A      2.090479
     162A      2.115958   163A      2.133977   164A      2.144540
     165A      2.159386   166A      2.178366   167A      2.197591
     168A      2.213783   169A      2.253841   170A      2.269707
     171A      2.291850   172A      2.314620   173A      2.326112
     174A      2.362599   175A      2.379883   176A      2.388497
     177A      2.440311   178A      2.454405   179A      2.469859
     180A      2.477864   181A      2.483203   182A      2.528780
     183A      2.551699   184A      2.593944   185A      2.607591
     186A      2.612944   187A      2.641796   188A      2.731949
     189A      2.763140   190A      2.776807   191A      2.782485
     192A      2.803610   193A      2.813794   194A      2.841444
     195A      2.852377   196A      2.873003   197A      2.894078
     198A      2.947660   199A      2.976197   200A      2.996111
     201A      3.005621   202A      3.083576   203A      3.125430
     204A      3.252740   205A      3.275968   206A      3.340328
     207A      3.584756   208A      3.673179   209A      3.955733
     210A      4.179482

    Final Occupation by Irrep:
              A
    DOCC [    38 ]

  @RHF Final Energy:  -423.85513615148875

   => Energetics <=

    Nuclear Repulsion Energy =            508.4249616691070628
    One-Electron Energy =               -1582.6570582528956947
    Two-Electron Energy =                 650.3769604322999385
    Total Energy =                       -423.8551361514887503

Computation Completed

Properties will be evaluated at   0.000000,   0.000000,   0.000000 [a0]

Properties computed using the SCF density matrix

  Nuclear Dipole Moment: [e a0]
     X:    -8.4334      Y:    -1.3541      Z:     5.0542

  Electronic Dipole Moment: [e a0]
     X:     8.2089      Y:     1.8680      Z:    -5.1858

  Dipole Moment: [e a0]
     X:    -0.2245      Y:     0.5139      Z:    -0.1316     Total:     0.5761

  Dipole Moment: [D]
     X:    -0.5707      Y:     1.3063      Z:    -0.3345     Total:     1.4642

*** tstop() called on ds3 at Tue Apr 28 21:37:56 2020
Module time:
	user time   =      96.19 seconds =       1.60 minutes
	system time =      39.62 seconds =       0.66 minutes
	total time  =        131 seconds =       2.18 minutes
Total time:
	user time   =      96.19 seconds =       1.60 minutes
	system time =      39.62 seconds =       0.66 minutes
	total time  =        131 seconds =       2.18 minutes
                                     G D M A

                                 by Anthony Stone

                           version 2.2.06, 22 June 2011

               Distributed Multipoles from Gaussian wavefunctions

Starting at 21:37:56 on 28 Apr 2020

Using SCF density matrix from file ./SSI/SSI-036LEU-047TYR-1-dimer.test.17080.fchk

                         Distributed Multipole Analysis

Standard DMA

Positions and radii in angstrom
Multipole moments in atomic units, ea_0^k for rank k

C          x = -1.576107  y = -1.062065  z =  2.277587 angstrom
           Maximum rank =  0   Radius =  0.650 angstrom
                   Q00  =  -0.223582

C          x = -0.995107  y = -0.362065  z =  3.503587 angstrom
           Maximum rank =  0   Radius =  0.650 angstrom
                   Q00  =  -0.236005

H          x = -2.489107  y = -1.600065  z =  2.530587 angstrom
           Maximum rank =  0   Radius =  0.325 angstrom
                   Q00  =   0.074502

H          x = -1.769107  y = -0.320065  z =  1.511587 angstrom
           Maximum rank =  0   Radius =  0.325 angstrom
                   Q00  =   0.083872

H          x = -0.849107  y = -1.759065  z =  1.860587 angstrom
           Maximum rank =  0   Radius =  0.325 angstrom
                   Q00  =   0.084708

H          x = -0.229107  y =  0.335935  z =  3.168587 angstrom
           Maximum rank =  0   Radius =  0.325 angstrom
                   Q00  =   0.056705

H          x = -0.527592  y = -1.102597  z =  4.169197 angstrom
           Maximum rank =  0   Radius =  0.325 angstrom
                   Q00  =   0.078254

H          x = -1.775503  y =  0.195774  z =  4.041917 angstrom
           Maximum rank =  0   Radius =  0.325 angstrom
                   Q00  =   0.073647

C          x = -1.385107  y =  0.359935  z = -3.179413 angstrom
           Maximum rank =  0   Radius =  0.650 angstrom
                   Q00  =  -0.204377

C          x =  0.416893  y =  1.255935  z =  0.079587 angstrom
           Maximum rank =  0   Radius =  0.650 angstrom
                   Q00  =  -0.180540

C          x = -0.411107  y =  1.332935  z = -1.040413 angstrom
           Maximum rank =  0   Radius =  0.650 angstrom
                   Q00  =  -0.026400

C          x =  1.174893  y =  0.108935  z =  0.302587 angstrom
           Maximum rank =  0   Radius =  0.650 angstrom
                   Q00  =   0.312887

C          x = -0.502107  y =  0.266935  z = -1.943413 angstrom
           Maximum rank =  0   Radius =  0.650 angstrom
                   Q00  =  -0.136697

C          x =  1.104893  y = -0.953065  z = -0.591413 angstrom
           Maximum rank =  0   Radius =  0.650 angstrom
                   Q00  =  -0.114381

C          x =  0.276893  y = -0.866065  z = -1.714413 angstrom
           Maximum rank =  0   Radius =  0.650 angstrom
                   Q00  =   0.040551

O          x =  1.989893  y =  0.029935  z =  1.390587 angstrom
           Maximum rank =  0   Radius =  0.650 angstrom
                   Q00  =  -0.678537

H          x =  0.466893  y =  2.085935  z =  0.770587 angstrom
           Maximum rank =  0   Radius =  0.325 angstrom
                   Q00  =   0.071590

H          x = -0.984107  y =  2.233935  z = -1.207413 angstrom
           Maximum rank =  0   Radius =  0.325 angstrom
                   Q00  =   0.068480

H          x =  1.946893  y =  0.850935  z =  1.913587 angstrom
           Maximum rank =  0   Radius =  0.325 angstrom
                   Q00  =   0.412245

H          x =  1.697893  y = -1.839065  z = -0.418413 angstrom
           Maximum rank =  0   Radius =  0.325 angstrom
                   Q00  =   0.080919

H          x = -1.380107  y = -0.594065  z = -3.709413 angstrom
           Maximum rank =  0   Radius =  0.325 angstrom
                   Q00  =   0.098127

H          x = -0.921107  y =  1.096935  z = -3.836413 angstrom
           Maximum rank =  0   Radius =  0.325 angstrom
                   Q00  =   0.097086

H          x =  0.233893  y = -1.695065  z = -2.407413 angstrom
           Maximum rank =  0   Radius =  0.325 angstrom
                   Q00  =   0.066057

H          x = -2.426901  y =  0.666007  z = -3.003383 angstrom
           Maximum rank =  0   Radius =  0.325 angstrom
                   Q00  =   0.100889

Total multipoles referred to origin at
           x =   0.000000,  y =    0.000000,  z =    0.000000 angstrom
                   Q00  =  -0.000000

Finished at 21:37:56 on 28 Apr 2020

  DMA results are available in the Python driver through the
	  variable('DMA DISTRIBUTED MULTIPOLES')
  and
	  variable('DMA TOTAL MULTIPOLES')
  commands.

    Psi4 stopped on: Tuesday, 28 April 2020 09:37PM
    Psi4 wall time for execution: 0:02:11.51

*** Psi4 exiting successfully. Buy a developer a beer!
