                               Psi4 1.3.2 release

  ==> Input File <==

--------------------------------------------------------------------------
import numpy as np
set {scf_type pk
basis cc-pvdz
d_convergence 10
gdma_switch   0
gdma_limit    0
gdma_origin   [ 0.0,  0.0,  0.0 ]
}
molecule test {
    units Angstrom
    0 1
    --
    0 1
    C               -0.565031864591064    -0.808891562170449    -1.482553728497754
    C               -1.543031864591064    -0.085891562170449    -2.425553728497755
    H               -1.061031864591064    -1.646891562170449    -0.992553728497754
    H                0.278968135408936    -1.187891562170449    -2.060553728497754
    H               -0.177031864591064    -0.125891562170449    -0.730553728497754
    H               -1.035031864591064     0.757108437829551    -2.895553728497755
    H               -2.398251864591063     0.281348437829551    -1.839263728497754
    H               -1.908851864591063    -0.754271562170449    -3.218925728497755
    C                1.560968135408936     0.586108437829551     1.394446271502246
    C                0.546968135408936     0.314108437829551     2.516446271502246
    H                2.516968135408936     0.898108437829551     1.810446271502246
    H                1.716968135408936    -0.325891562170449     0.817446271502246
    H                1.175968135408936     1.366108437829551     0.738446271502246
    H                0.959968135408936    -0.425891562170449     3.198446271502245
    H               -0.342031864591064    -0.116891562170449     2.055446271502245
    H                0.274908135408936     1.216248437829551     3.084011471502246

}
e, wfn = energy('scf', return_wfn=True)
gdma(wfn)
dmavals = variable('DMA DISTRIBUTED MULTIPOLES')
charges = np.array(dmavals)
print(charges)
np.save('SSI-065THR-069ILE-1-dimer.npy', np.array(charges))--------------------------------------------------------------------------

*** tstart() called on ds3
*** at Tue Apr 28 14:33:56 2020

   => Loading Basis Set <=

    Name: CC-PVDZ
    Role: ORBITAL
    Keyword: BASIS
    atoms 1-2, 9-10  entry C          line   138 file /theoryfs2/ds/metcalf/miniconda2/envs/tf2gpu/share/psi4/basis/cc-pvdz.gbs
    atoms 3-8, 11-16 entry H          line    22 file /theoryfs2/ds/metcalf/miniconda2/envs/tf2gpu/share/psi4/basis/cc-pvdz.gbs

         ---------------------------------------------------------
                                   SCF
               by Justin Turney, Rob Parrish, Andy Simmonett
                          and Daniel G. A. Smith
                              RHF Reference
                        1 Threads,    500 MiB Core
         ---------------------------------------------------------

  ==> Geometry <==

    Molecular point group: c1
    Full point group: C1

    Geometry (in Angstrom), charge = 0, multiplicity = 1:

       Center              X                  Y                   Z               Mass
    ------------   -----------------  -----------------  -----------------  -----------------
         C           -0.565031864591    -0.808891562170    -1.482553728498    12.000000000000
         C           -1.543031864591    -0.085891562170    -2.425553728498    12.000000000000
         H           -1.061031864591    -1.646891562170    -0.992553728498     1.007825032230
         H            0.278968135409    -1.187891562170    -2.060553728498     1.007825032230
         H           -0.177031864591    -0.125891562170    -0.730553728498     1.007825032230
         H           -1.035031864591     0.757108437830    -2.895553728498     1.007825032230
         H           -2.398251864591     0.281348437830    -1.839263728498     1.007825032230
         H           -1.908851864591    -0.754271562170    -3.218925728498     1.007825032230
         C            1.560968135409     0.586108437830     1.394446271502    12.000000000000
         C            0.546968135409     0.314108437830     2.516446271502    12.000000000000
         H            2.516968135409     0.898108437830     1.810446271502     1.007825032230
         H            1.716968135409    -0.325891562170     0.817446271502     1.007825032230
         H            1.175968135409     1.366108437830     0.738446271502     1.007825032230
         H            0.959968135409    -0.425891562170     3.198446271502     1.007825032230
         H           -0.342031864591    -0.116891562170     2.055446271502     1.007825032230
         H            0.274908135409     1.216248437830     3.084011471502     1.007825032230

  Running in c1 symmetry.

  Rotational constants: A =      0.43806  B =      0.04942  C =      0.04807 [cm^-1]
  Rotational constants: A =  13132.76698  B =   1481.67222  C =   1441.13485 [MHz]
  Nuclear repulsion =  122.130965679919044

  Charge       = 0
  Multiplicity = 1
  Electrons    = 36
  Nalpha       = 18
  Nbeta        = 18

  ==> Algorithm <==

  SCF Algorithm Type is PK.
  DIIS enabled.
  MOM disabled.
  Fractional occupation disabled.
  Guess Type is SAD.
  Energy threshold   = 1.00e-06
  Density threshold  = 1.00e-10
  Integral threshold = 0.00e+00

  ==> Primary Basis <==

  Basis Set: CC-PVDZ
    Blend: CC-PVDZ
    Number of shells: 60
    Number of basis function: 116
    Number of Cartesian functions: 120
    Spherical Harmonics?: true
    Max angular momentum: 2

  ==> Pre-Iterations <==

   -------------------------------------------------------
    Irrep   Nso     Nmo     Nalpha   Nbeta   Ndocc  Nsocc
   -------------------------------------------------------
     A        116     116       0       0       0       0
   -------------------------------------------------------
    Total     116     116      18      18      18       0
   -------------------------------------------------------

  ==> Integral Setup <==

  Using integral reordering PK algorithm.
  Sizing the integral batches needed.
  Building batch lookup table.
   Calculation information:
      Number of atoms:                  16
      Number of AO shells:              60
      Number of primitives:            148
      Number of atomic orbitals:       120
      Number of basis functions:       116

      Integral cutoff                 1.00e-12
      Number of threads:                 1

	Batch   1 pq = [       0,    6786] index = [             0,23028291] size =     23028291
  Task number: 3
  Buffer size: 11059200
  Buffer per thread: 2
  We computed 1444574 shell quartets total.
  Whereas there are 1675365 unique shell quartets.

  ==> DiskJK: Disk-Based J/K Matrices <==

    J tasked:                  Yes
    K tasked:                  Yes
    wK tasked:                  No
    Memory [MiB]:              375
    Schwarz Cutoff:          1E-12

    OpenMP threads:              1

  Minimum eigenvalue in the overlap matrix is 7.2761812533E-03.
  Using Symmetric Orthogonalization.

  SCF Guess: Superposition of Atomic Densities via on-the-fly atomic UHF.

  ==> Iterations <==

                        Total Energy        Delta E     RMS |[F,P]|

   @RHF iter SAD:  -157.32825559522800   -1.57328e+02   0.00000e+00
   @RHF iter   1:  -158.30986485648424   -9.81609e-01   4.18023e-03 DIIS
   @RHF iter   2:  -158.44183879431520   -1.31974e-01   1.77012e-03 DIIS
   @RHF iter   3:  -158.46464294203952   -2.28041e-02   3.48176e-04 DIIS
   @RHF iter   4:  -158.46646467871929   -1.82174e-03   3.88489e-05 DIIS
   @RHF iter   5:  -158.46648852825197   -2.38495e-05   6.44631e-06 DIIS
   @RHF iter   6:  -158.46648915226160   -6.24010e-07   1.00284e-06 DIIS
   @RHF iter   7:  -158.46648916260398   -1.03424e-08   3.08179e-07 DIIS
   @RHF iter   8:  -158.46648916341204   -8.08058e-10   3.90516e-08 DIIS
   @RHF iter   9:  -158.46648916343585   -2.38174e-11   7.47913e-09 DIIS
   @RHF iter  10:  -158.46648916343707   -1.22213e-12   1.90862e-09 DIIS
   @RHF iter  11:  -158.46648916343665    4.26326e-13   4.62440e-10 DIIS
   @RHF iter  12:  -158.46648916343682   -1.70530e-13   1.43743e-10 DIIS
   @RHF iter  13:  -158.46648916343679    2.84217e-14   2.36550e-11 DIIS
  Energy and wave function converged.

  ==> Post-Iterations <==

    Orbital Energies [Eh]
    ---------------------

    Doubly Occupied:

       1A    -11.220244     2A    -11.218712     3A    -11.217690
       4A    -11.217021     5A     -1.018176     6A     -1.014750
       7A     -0.840093     8A     -0.836601     9A     -0.604105
      10A     -0.597967    11A     -0.597335    12A     -0.590471
      13A     -0.503273    14A     -0.496497    15A     -0.489811
      16A     -0.487714    17A     -0.485001    18A     -0.482519

    Virtual:

      19A      0.171290    20A      0.199301    21A      0.226767
      22A      0.231300    23A      0.248995    24A      0.257924
      25A      0.264074    26A      0.278927    27A      0.280478
      28A      0.283988    29A      0.296997    30A      0.344432
      31A      0.389870    32A      0.406799    33A      0.587395
      34A      0.591620    35A      0.596839    36A      0.604841
      37A      0.611349    38A      0.631613    39A      0.672804
      40A      0.687446    41A      0.704715    42A      0.790306
      43A      0.836911    44A      0.845864    45A      0.878320
      46A      0.888205    47A      0.891401    48A      0.894528
      49A      0.899022    50A      0.904255    51A      0.914983
      52A      0.927312    53A      0.948123    54A      0.953745
      55A      0.976520    56A      1.037676    57A      1.124619
      58A      1.126365    59A      1.130500    60A      1.142397
      61A      1.233415    62A      1.282259    63A      1.460954
      64A      1.463963    65A      1.476907    66A      1.487798
      67A      1.558546    68A      1.619762    69A      1.681875
      70A      1.683771    71A      1.694157    72A      1.695133
      73A      1.859605    74A      1.861237    75A      1.868290
      76A      1.878029    77A      1.888962    78A      1.902552
      79A      1.919330    80A      1.940378    81A      1.944848
      82A      1.946391    83A      1.951916    84A      1.957417
      85A      1.960013    86A      1.975111    87A      1.979087
      88A      2.019685    89A      2.086484    90A      2.093829
      91A      2.120505    92A      2.147696    93A      2.295237
      94A      2.302077    95A      2.312933    96A      2.316621
      97A      2.446629    98A      2.451705    99A      2.462760
     100A      2.474967   101A      2.556840   102A      2.564748
     103A      2.570257   104A      2.585876   105A      2.758715
     106A      2.769444   107A      2.790907   108A      2.796596
     109A      2.842829   110A      2.852093   111A      2.861472
     112A      2.868161   113A      2.944185   114A      2.951024
     115A      2.971014   116A      2.986113

    Final Occupation by Irrep:
              A
    DOCC [    18 ]

  @RHF Final Energy:  -158.46648916343679

   => Energetics <=

    Nuclear Repulsion Energy =            122.1309656799190435
    One-Electron Energy =                -453.3589495597558425
    Two-Electron Energy =                 172.7614947164000228
    Total Energy =                       -158.4664891634367905

Computation Completed

Properties will be evaluated at   0.000000,   0.000000,   0.000000 [a0]

Properties computed using the SCF density matrix

  Nuclear Dipole Moment: [e a0]
     X:     0.0014      Y:    -0.0607      Z:    -0.0311

  Electronic Dipole Moment: [e a0]
     X:     0.0208      Y:     0.0552      Z:     0.0381

  Dipole Moment: [e a0]
     X:     0.0222      Y:    -0.0055      Z:     0.0070     Total:     0.0239

  Dipole Moment: [D]
     X:     0.0565      Y:    -0.0139      Z:     0.0178     Total:     0.0609

*** tstop() called on ds3 at Tue Apr 28 14:34:14 2020
Module time:
	user time   =       7.70 seconds =       0.13 minutes
	system time =       2.80 seconds =       0.05 minutes
	total time  =         18 seconds =       0.30 minutes
Total time:
	user time   =       7.70 seconds =       0.13 minutes
	system time =       2.80 seconds =       0.05 minutes
	total time  =         18 seconds =       0.30 minutes
                                     G D M A

                                 by Anthony Stone

                           version 2.2.06, 22 June 2011

               Distributed Multipoles from Gaussian wavefunctions

Starting at 14:34:14 on 28 Apr 2020

Using SCF density matrix from file ./SSI/SSI-065THR-069ILE-1-dimer.test.29986.fchk

                         Distributed Multipole Analysis

Standard DMA

Positions and radii in angstrom
Multipole moments in atomic units, ea_0^k for rank k

C          x = -0.565032  y = -0.808892  z = -1.482554 angstrom
           Maximum rank =  0   Radius =  0.650 angstrom
                   Q00  =  -0.248548

C          x = -1.543032  y = -0.085892  z = -2.425554 angstrom
           Maximum rank =  0   Radius =  0.650 angstrom
                   Q00  =  -0.235892

H          x = -1.061032  y = -1.646892  z = -0.992554 angstrom
           Maximum rank =  0   Radius =  0.325 angstrom
                   Q00  =   0.079663

H          x =  0.278968  y = -1.187892  z = -2.060554 angstrom
           Maximum rank =  0   Radius =  0.325 angstrom
                   Q00  =   0.077703

H          x = -0.177032  y = -0.125892  z = -0.730554 angstrom
           Maximum rank =  0   Radius =  0.325 angstrom
                   Q00  =   0.087710

H          x = -1.035032  y =  0.757108  z = -2.895554 angstrom
           Maximum rank =  0   Radius =  0.325 angstrom
                   Q00  =   0.080035

H          x = -2.398252  y =  0.281348  z = -1.839264 angstrom
           Maximum rank =  0   Radius =  0.325 angstrom
                   Q00  =   0.077790

H          x = -1.908852  y = -0.754272  z = -3.218926 angstrom
           Maximum rank =  0   Radius =  0.325 angstrom
                   Q00  =   0.081164

C          x =  1.560968  y =  0.586108  z =  1.394446 angstrom
           Maximum rank =  0   Radius =  0.650 angstrom
                   Q00  =  -0.238107

C          x =  0.546968  y =  0.314108  z =  2.516446 angstrom
           Maximum rank =  0   Radius =  0.650 angstrom
                   Q00  =  -0.240900

H          x =  2.516968  y =  0.898108  z =  1.810446 angstrom
           Maximum rank =  0   Radius =  0.325 angstrom
                   Q00  =   0.080342

H          x =  1.716968  y = -0.325892  z =  0.817446 angstrom
           Maximum rank =  0   Radius =  0.325 angstrom
                   Q00  =   0.081747

H          x =  1.175968  y =  1.366108  z =  0.738446 angstrom
           Maximum rank =  0   Radius =  0.325 angstrom
                   Q00  =   0.078307

H          x =  0.959968  y = -0.425892  z =  3.198446 angstrom
           Maximum rank =  0   Radius =  0.325 angstrom
                   Q00  =   0.079550

H          x = -0.342032  y = -0.116892  z =  2.055446 angstrom
           Maximum rank =  0   Radius =  0.325 angstrom
                   Q00  =   0.077414

H          x =  0.274908  y =  1.216248  z =  3.084011 angstrom
           Maximum rank =  0   Radius =  0.325 angstrom
                   Q00  =   0.082023

Total multipoles referred to origin at
           x =   0.000000,  y =    0.000000,  z =    0.000000 angstrom
                   Q00  =  -0.000000

Finished at 14:34:14 on 28 Apr 2020

  DMA results are available in the Python driver through the
	  variable('DMA DISTRIBUTED MULTIPOLES')
  and
	  variable('DMA TOTAL MULTIPOLES')
  commands.

    Psi4 stopped on: Tuesday, 28 April 2020 02:34PM
    Psi4 wall time for execution: 0:00:17.76

*** Psi4 exiting successfully. Buy a developer a beer!
