                               Psi4 1.3.2 release

  ==> Input File <==

--------------------------------------------------------------------------
import numpy as np
set {scf_type pk
basis cc-pvdz
d_convergence 10
gdma_switch   0
gdma_limit    0
gdma_origin   [ 0.0,  0.0,  0.0 ]
}
molecule test {
    units Angstrom
    1 1
    --
    1 1
    C                0.064031803090414     1.231158398827022     1.856536157856190
    C               -0.201968196909586     2.561158398827022     2.548536157856189
    H                0.842031803090414     0.693158398827022     2.395536157856189
    H               -0.835968196909586     0.622158398827022     1.867536157856190
    H                0.389031803090414     1.410158398827022     0.831536157856190
    H               -0.564968196909586     2.347158398827022     3.552536157856189
    H                0.736379803090414     3.131358398827021     2.614686157856190
    H               -0.978504196909586     3.126628398827021     2.012596157856190
    C                0.075031803090414    -1.258841601172978    -0.847463842143810
    C                1.340031803090414    -1.343841601172978    -1.682463842143811
    N               -1.124968196909586    -1.112841601172978    -1.711463842143810
    H                0.002031803090414    -2.190841601172978    -0.275463842143810
    H                0.160031803090414    -0.438841601172978    -0.129463842143810
    H                1.226031803090414    -2.128841601172978    -2.433463842143810
    H                2.174031803090414    -1.629841601172978    -1.058463842143810
    H               -1.073968196909586    -1.721841601172978    -2.523463842143810
    H               -1.965968196909586    -1.382841601172978    -1.212463842143811
    H               -1.244968196909586    -0.152841601172978    -2.009463842143810
    H                1.558941803090414    -0.387281601172978    -2.179527842143810

}
e, wfn = energy('scf', return_wfn=True)
gdma(wfn)
dmavals = variable('DMA DISTRIBUTED MULTIPOLES')
charges = np.array(dmavals)
print(charges)
np.save('SSI-028LEU-055LYS-1-dimer.npy', np.array(charges))--------------------------------------------------------------------------

*** tstart() called on ds3
*** at Tue Apr 28 12:41:08 2020

   => Loading Basis Set <=

    Name: CC-PVDZ
    Role: ORBITAL
    Keyword: BASIS
    atoms 1-2, 9-10  entry C          line   138 file /theoryfs2/ds/metcalf/miniconda2/envs/tf2gpu/share/psi4/basis/cc-pvdz.gbs
    atoms 3-8, 12-19 entry H          line    22 file /theoryfs2/ds/metcalf/miniconda2/envs/tf2gpu/share/psi4/basis/cc-pvdz.gbs
    atoms 11         entry N          line   168 file /theoryfs2/ds/metcalf/miniconda2/envs/tf2gpu/share/psi4/basis/cc-pvdz.gbs

         ---------------------------------------------------------
                                   SCF
               by Justin Turney, Rob Parrish, Andy Simmonett
                          and Daniel G. A. Smith
                              RHF Reference
                        1 Threads,    500 MiB Core
         ---------------------------------------------------------

  ==> Geometry <==

    Molecular point group: c1
    Full point group: C1

    Geometry (in Angstrom), charge = 1, multiplicity = 1:

       Center              X                  Y                   Z               Mass
    ------------   -----------------  -----------------  -----------------  -----------------
         C            0.064031803090     1.231158398827     1.856536157856    12.000000000000
         C           -0.201968196910     2.561158398827     2.548536157856    12.000000000000
         H            0.842031803090     0.693158398827     2.395536157856     1.007825032230
         H           -0.835968196910     0.622158398827     1.867536157856     1.007825032230
         H            0.389031803090     1.410158398827     0.831536157856     1.007825032230
         H           -0.564968196910     2.347158398827     3.552536157856     1.007825032230
         H            0.736379803090     3.131358398827     2.614686157856     1.007825032230
         H           -0.978504196910     3.126628398827     2.012596157856     1.007825032230
         C            0.075031803090    -1.258841601173    -0.847463842144    12.000000000000
         C            1.340031803090    -1.343841601173    -1.682463842144    12.000000000000
         N           -1.124968196910    -1.112841601173    -1.711463842144    14.003074004430
         H            0.002031803090    -2.190841601173    -0.275463842144     1.007825032230
         H            0.160031803090    -0.438841601173    -0.129463842144     1.007825032230
         H            1.226031803090    -2.128841601173    -2.433463842144     1.007825032230
         H            2.174031803090    -1.629841601173    -1.058463842144     1.007825032230
         H           -1.073968196910    -1.721841601173    -2.523463842144     1.007825032230
         H           -1.965968196910    -1.382841601173    -1.212463842144     1.007825032230
         H           -1.244968196910    -0.152841601173    -2.009463842144     1.007825032230
         H            1.558941803090    -0.387281601173    -2.179527842144     1.007825032230

  Running in c1 symmetry.

  Rotational constants: A =      0.23341  B =      0.03657  C =      0.03331 [cm^-1]
  Rotational constants: A =   6997.32508  B =   1096.36291  C =    998.52399 [MHz]
  Nuclear repulsion =  186.527008998247993

  Charge       = 1
  Multiplicity = 1
  Electrons    = 44
  Nalpha       = 22
  Nbeta        = 22

  ==> Algorithm <==

  SCF Algorithm Type is PK.
  DIIS enabled.
  MOM disabled.
  Fractional occupation disabled.
  Guess Type is SAD.
  Energy threshold   = 1.00e-06
  Density threshold  = 1.00e-10
  Integral threshold = 0.00e+00

  ==> Primary Basis <==

  Basis Set: CC-PVDZ
    Blend: CC-PVDZ
    Number of shells: 72
    Number of basis function: 140
    Number of Cartesian functions: 145
    Spherical Harmonics?: true
    Max angular momentum: 2

  ==> Pre-Iterations <==

   -------------------------------------------------------
    Irrep   Nso     Nmo     Nalpha   Nbeta   Ndocc  Nsocc
   -------------------------------------------------------
     A        140     140       0       0       0       0
   -------------------------------------------------------
    Total     140     140      22      22      22       0
   -------------------------------------------------------

  ==> Integral Setup <==

  Using integral reordering PK algorithm.
  Sizing the integral batches needed.
  Building batch lookup table.
   Calculation information:
      Number of atoms:                  19
      Number of AO shells:              72
      Number of primitives:            180
      Number of atomic orbitals:       145
      Number of basis functions:       140

      Integral cutoff                 1.00e-12
      Number of threads:                 1

	Batch   1 pq = [       0,    9405] index = [             0,44231715] size =     44231715
	Batch   2 pq = [    9405,    9870] index = [      44231715,48713385] size =      4481670
  Task number: 5
  Buffer size: 11059200
  Buffer per thread: 2
  We computed 2759646 shell quartets total.
  Whereas there are 3454506 unique shell quartets.

  ==> DiskJK: Disk-Based J/K Matrices <==

    J tasked:                  Yes
    K tasked:                  Yes
    wK tasked:                  No
    Memory [MiB]:              375
    Schwarz Cutoff:          1E-12

    OpenMP threads:              1

  Minimum eigenvalue in the overlap matrix is 4.8031302243E-03.
  Using Symmetric Orthogonalization.

  SCF Guess: Superposition of Atomic Densities via on-the-fly atomic UHF.

  ==> Iterations <==

                        Total Energy        Delta E     RMS |[F,P]|

   @RHF iter SAD:  -213.23647540784640   -2.13236e+02   0.00000e+00
   @RHF iter   1:  -213.68861267540876   -4.52137e-01   3.57977e-03 DIIS
   @RHF iter   2:  -213.83995832010018   -1.51346e-01   1.35491e-03 DIIS
   @RHF iter   3:  -213.86015793178873   -2.01996e-02   3.43783e-04 DIIS
   @RHF iter   4:  -213.86230656234468   -2.14863e-03   4.68751e-05 DIIS
   @RHF iter   5:  -213.86235177046788   -4.52081e-05   1.24204e-05 DIIS
   @RHF iter   6:  -213.86235446685060   -2.69638e-06   3.45509e-06 DIIS
   @RHF iter   7:  -213.86235465306240   -1.86212e-07   8.87395e-07 DIIS
   @RHF iter   8:  -213.86235467021976   -1.71574e-08   2.39695e-07 DIIS
   @RHF iter   9:  -213.86235467129316   -1.07340e-09   6.79377e-08 DIIS
   @RHF iter  10:  -213.86235467136572   -7.25606e-11   1.35388e-08 DIIS
   @RHF iter  11:  -213.86235467136777   -2.04636e-12   2.48156e-09 DIIS
   @RHF iter  12:  -213.86235467136868   -9.09495e-13   5.53360e-10 DIIS
   @RHF iter  13:  -213.86235467136814    5.40012e-13   1.67094e-10 DIIS
   @RHF iter  14:  -213.86235467136916   -1.02318e-12   3.99526e-11 DIIS
  Energy and wave function converged.

  ==> Post-Iterations <==

    Orbital Energies [Eh]
    ---------------------

    Doubly Occupied:

       1A    -15.906802     2A    -11.478532     3A    -11.404527
       4A    -11.334652     5A    -11.317973     6A     -1.527252
       7A     -1.222966     8A     -1.130756     9A     -1.057505
      10A     -0.987475    11A     -0.967512    12A     -0.945574
      13A     -0.863831    14A     -0.799118    15A     -0.724363
      16A     -0.712699    17A     -0.709998    18A     -0.701622
      19A     -0.685862    20A     -0.607313    21A     -0.595052
      22A     -0.592330

    Virtual:

      23A     -0.051218    24A      0.011105    25A      0.016951
      26A      0.032813    27A      0.082533    28A      0.089554
      29A      0.110454    30A      0.111951    31A      0.120978
      32A      0.138601    33A      0.149439    34A      0.164526
      35A      0.184515    36A      0.186285    37A      0.196864
      38A      0.212686    39A      0.306721    40A      0.375048
      41A      0.403815    42A      0.427795    43A      0.436376
      44A      0.449045    45A      0.492350    46A      0.496506
      47A      0.556180    48A      0.569522    49A      0.584870
      50A      0.596244    51A      0.636790    52A      0.648299
      53A      0.665107    54A      0.683266    55A      0.707695
      56A      0.715006    57A      0.746887    58A      0.774617
      59A      0.778483    60A      0.790573    61A      0.792623
      62A      0.796539    63A      0.799431    64A      0.804417
      65A      0.815677    66A      0.836250    67A      0.854535
      68A      0.876450    69A      0.916998    70A      0.927469
      71A      1.010395    72A      1.018741    73A      1.114758
      74A      1.182613    75A      1.213307    76A      1.262835
      77A      1.294578    78A      1.366352    79A      1.381830
      80A      1.394951    81A      1.461700    82A      1.467309
      83A      1.472896    84A      1.514289    85A      1.563029
      86A      1.583662    87A      1.587243    88A      1.643536
      89A      1.672552    90A      1.720638    91A      1.722586
      92A      1.747496    93A      1.756583    94A      1.763144
      95A      1.785152    96A      1.792820    97A      1.811107
      98A      1.819631    99A      1.837627   100A      1.840757
     101A      1.853091   102A      1.866105   103A      1.882007
     104A      1.901409   105A      1.911414   106A      1.965386
     107A      1.968062   108A      1.993555   109A      2.002881
     110A      2.011993   111A      2.037030   112A      2.119603
     113A      2.160400   114A      2.181127   115A      2.187101
     116A      2.234117   117A      2.280680   118A      2.317793
     119A      2.352797   120A      2.366726   121A      2.380413
     122A      2.425416   123A      2.458711   124A      2.473154
     125A      2.519951   126A      2.554967   127A      2.597562
     128A      2.628076   129A      2.660450   130A      2.681758
     131A      2.697227   132A      2.734035   133A      2.736955
     134A      2.744332   135A      2.795527   136A      2.841351
     137A      2.841592   138A      2.879915   139A      3.084947
     140A      3.128409

    Final Occupation by Irrep:
              A
    DOCC [    22 ]

  @RHF Final Energy:  -213.86235467136916

   => Energetics <=

    Nuclear Repulsion Energy =            186.5270089982479931
    One-Electron Energy =                -648.2312999198883290
    Two-Electron Energy =                 247.8419362502711749
    Total Energy =                       -213.8623546713691610

Computation Completed

Properties will be evaluated at   0.000000,   0.000000,   0.000000 [a0]

Properties computed using the SCF density matrix

  Nuclear Dipole Moment: [e a0]
     X:     0.4009      Y:     1.2195      Z:     1.3668

  Electronic Dipole Moment: [e a0]
     X:    -1.8494      Y:    -3.2016      Z:    -4.0934

  Dipole Moment: [e a0]
     X:    -1.4485      Y:    -1.9820      Z:    -2.7266     Total:     3.6689

  Dipole Moment: [D]
     X:    -3.6817      Y:    -5.0378      Z:    -6.9304     Total:     9.3255

*** tstop() called on ds3 at Tue Apr 28 12:41:33 2020
Module time:
	user time   =      17.91 seconds =       0.30 minutes
	system time =       7.93 seconds =       0.13 minutes
	total time  =         25 seconds =       0.42 minutes
Total time:
	user time   =      17.91 seconds =       0.30 minutes
	system time =       7.93 seconds =       0.13 minutes
	total time  =         25 seconds =       0.42 minutes
                                     G D M A

                                 by Anthony Stone

                           version 2.2.06, 22 June 2011

               Distributed Multipoles from Gaussian wavefunctions

Starting at 12:41:33 on 28 Apr 2020

Using SCF density matrix from file ./SSI/SSI-028LEU-055LYS-1-dimer.test.15287.fchk

                         Distributed Multipole Analysis

Standard DMA

Positions and radii in angstrom
Multipole moments in atomic units, ea_0^k for rank k

C          x =  0.064032  y =  1.231158  z =  1.856536 angstrom
           Maximum rank =  0   Radius =  0.650 angstrom
                   Q00  =  -0.283689

C          x = -0.201968  y =  2.561158  z =  2.548536 angstrom
           Maximum rank =  0   Radius =  0.650 angstrom
                   Q00  =  -0.205616

H          x =  0.842032  y =  0.693158  z =  2.395536 angstrom
           Maximum rank =  0   Radius =  0.325 angstrom
                   Q00  =   0.101454

H          x = -0.835968  y =  0.622158  z =  1.867536 angstrom
           Maximum rank =  0   Radius =  0.325 angstrom
                   Q00  =   0.059712

H          x =  0.389032  y =  1.410158  z =  0.831536 angstrom
           Maximum rank =  0   Radius =  0.325 angstrom
                   Q00  =   0.043926

H          x = -0.564968  y =  2.347158  z =  3.552536 angstrom
           Maximum rank =  0   Radius =  0.325 angstrom
                   Q00  =   0.099927

H          x =  0.736380  y =  3.131358  z =  2.614686 angstrom
           Maximum rank =  0   Radius =  0.325 angstrom
                   Q00  =   0.098883

H          x = -0.978504  y =  3.126628  z =  2.012596 angstrom
           Maximum rank =  0   Radius =  0.325 angstrom
                   Q00  =   0.082183

C          x =  0.075032  y = -1.258842  z = -0.847464 angstrom
           Maximum rank =  0   Radius =  0.650 angstrom
                   Q00  =  -0.038909

C          x =  1.340032  y = -1.343842  z = -1.682464 angstrom
           Maximum rank =  0   Radius =  0.650 angstrom
                   Q00  =  -0.236324

N          x = -1.124968  y = -1.112842  z = -1.711464 angstrom
           Maximum rank =  0   Radius =  0.650 angstrom
                   Q00  =  -0.139133

H          x =  0.002032  y = -2.190842  z = -0.275464 angstrom
           Maximum rank =  0   Radius =  0.325 angstrom
                   Q00  =   0.124729

H          x =  0.160032  y = -0.438842  z = -0.129464 angstrom
           Maximum rank =  0   Radius =  0.325 angstrom
                   Q00  =   0.151467

H          x =  1.226032  y = -2.128842  z = -2.433464 angstrom
           Maximum rank =  0   Radius =  0.325 angstrom
                   Q00  =   0.099790

H          x =  2.174032  y = -1.629842  z = -1.058464 angstrom
           Maximum rank =  0   Radius =  0.325 angstrom
                   Q00  =   0.154399

H          x = -1.073968  y = -1.721842  z = -2.523464 angstrom
           Maximum rank =  0   Radius =  0.325 angstrom
                   Q00  =   0.259955

H          x = -1.965968  y = -1.382842  z = -1.212464 angstrom
           Maximum rank =  0   Radius =  0.325 angstrom
                   Q00  =   0.256051

H          x = -1.244968  y = -0.152842  z = -2.009464 angstrom
           Maximum rank =  0   Radius =  0.325 angstrom
                   Q00  =   0.261693

H          x =  1.558942  y = -0.387282  z = -2.179528 angstrom
           Maximum rank =  0   Radius =  0.325 angstrom
                   Q00  =   0.109502

Total multipoles referred to origin at
           x =   0.000000,  y =    0.000000,  z =    0.000000 angstrom
                   Q00  =   1.000000

Finished at 12:41:33 on 28 Apr 2020

  DMA results are available in the Python driver through the
	  variable('DMA DISTRIBUTED MULTIPOLES')
  and
	  variable('DMA TOTAL MULTIPOLES')
  commands.

    Psi4 stopped on: Tuesday, 28 April 2020 12:41PM
    Psi4 wall time for execution: 0:00:25.01

*** Psi4 exiting successfully. Buy a developer a beer!
