                               Psi4 1.3.2 release

  ==> Input File <==

--------------------------------------------------------------------------
import numpy as np
set {scf_type pk
basis cc-pvdz
d_convergence 10
gdma_switch   0
gdma_limit    0
gdma_origin   [ 0.0,  0.0,  0.0 ]
}
molecule test {
    units Angstrom
    0 1
    --
    0 1
    C                0.643471427590488    -0.271357023623949    -1.296039196041261
    C                0.530471427590487    -0.271357023623949    -2.746039196041260
    C                2.096471427590487    -0.086357023623949    -0.853039196041261
    H                0.033471427590488     0.536642976376052    -0.890039196041261
    H                0.277471427590488    -1.221357023623949    -0.903039196041261
    H                1.274471427590487    -0.937357023623948    -3.187039196041261
    H                0.729471427590488     0.745642976376052    -3.094039196041261
    H                2.716471427590488    -0.826357023623948    -1.364039196041261
    H                2.448471427590488     0.914642976376052    -1.116039196041261
    H               -0.476778572409512    -0.594597023623949    -3.047639196041261
    H                2.176814427590487    -0.241307023623949     0.233020803958739
    C               -1.334528572409513     0.714642976376052     1.816960803958739
    C               -1.892528572409512    -0.107357023623949     2.988960803958739
    H               -2.131528572409513     0.989642976376052     1.124960803958739
    H               -0.851528572409512     1.618642976376051     2.191960803958739
    H               -0.597528572409512     0.113642976376051     1.289960803958739
    H               -1.098528572409513    -0.291357023623948     3.713960803958740
    H               -2.336386572409512    -1.063087023623948     2.673420803958740
    H               -2.680609572409512     0.515952976376051     3.436630803958739

}
e, wfn = energy('scf', return_wfn=True)
gdma(wfn)
dmavals = variable('DMA DISTRIBUTED MULTIPOLES')
charges = np.array(dmavals)
print(charges)
np.save('SSI-187LYS-193THR-1-dimer.npy', np.array(charges))--------------------------------------------------------------------------

*** tstart() called on ds3
*** at Tue Apr 28 09:14:16 2020

   => Loading Basis Set <=

    Name: CC-PVDZ
    Role: ORBITAL
    Keyword: BASIS
    atoms 1-3, 12-13  entry C          line   138 file /theoryfs2/ds/metcalf/miniconda2/envs/tf2gpu/share/psi4/basis/cc-pvdz.gbs
    atoms 4-11, 14-19 entry H          line    22 file /theoryfs2/ds/metcalf/miniconda2/envs/tf2gpu/share/psi4/basis/cc-pvdz.gbs

         ---------------------------------------------------------
                                   SCF
               by Justin Turney, Rob Parrish, Andy Simmonett
                          and Daniel G. A. Smith
                              RHF Reference
                        1 Threads,    500 MiB Core
         ---------------------------------------------------------

  ==> Geometry <==

    Molecular point group: c1
    Full point group: C1

    Geometry (in Angstrom), charge = 0, multiplicity = 1:

       Center              X                  Y                   Z               Mass
    ------------   -----------------  -----------------  -----------------  -----------------
         C            0.643471427590    -0.271357023624    -1.296039196041    12.000000000000
         C            0.530471427590    -0.271357023624    -2.746039196041    12.000000000000
         C            2.096471427590    -0.086357023624    -0.853039196041    12.000000000000
         H            0.033471427590     0.536642976376    -0.890039196041     1.007825032230
         H            0.277471427590    -1.221357023624    -0.903039196041     1.007825032230
         H            1.274471427590    -0.937357023624    -3.187039196041     1.007825032230
         H            0.729471427590     0.745642976376    -3.094039196041     1.007825032230
         H            2.716471427590    -0.826357023624    -1.364039196041     1.007825032230
         H            2.448471427590     0.914642976376    -1.116039196041     1.007825032230
         H           -0.476778572410    -0.594597023624    -3.047639196041     1.007825032230
         H            2.176814427590    -0.241307023624     0.233020803959     1.007825032230
         C           -1.334528572410     0.714642976376     1.816960803959    12.000000000000
         C           -1.892528572410    -0.107357023624     2.988960803959    12.000000000000
         H           -2.131528572410     0.989642976376     1.124960803959     1.007825032230
         H           -0.851528572410     1.618642976376     2.191960803959     1.007825032230
         H           -0.597528572410     0.113642976376     1.289960803959     1.007825032230
         H           -1.098528572410    -0.291357023624     3.713960803959     1.007825032230
         H           -2.336386572410    -1.063087023624     2.673420803959     1.007825032230
         H           -2.680609572410     0.515952976376     3.436630803959     1.007825032230

  Running in c1 symmetry.

  Rotational constants: A =      0.25174  B =      0.03559  C =      0.03306 [cm^-1]
  Rotational constants: A =   7546.89363  B =   1066.89302  C =    991.05029 [MHz]
  Nuclear repulsion =  176.753889433362104

  Charge       = 0
  Multiplicity = 1
  Electrons    = 44
  Nalpha       = 22
  Nbeta        = 22

  ==> Algorithm <==

  SCF Algorithm Type is PK.
  DIIS enabled.
  MOM disabled.
  Fractional occupation disabled.
  Guess Type is SAD.
  Energy threshold   = 1.00e-06
  Density threshold  = 1.00e-10
  Integral threshold = 0.00e+00

  ==> Primary Basis <==

  Basis Set: CC-PVDZ
    Blend: CC-PVDZ
    Number of shells: 72
    Number of basis function: 140
    Number of Cartesian functions: 145
    Spherical Harmonics?: true
    Max angular momentum: 2

  ==> Pre-Iterations <==

   -------------------------------------------------------
    Irrep   Nso     Nmo     Nalpha   Nbeta   Ndocc  Nsocc
   -------------------------------------------------------
     A        140     140       0       0       0       0
   -------------------------------------------------------
    Total     140     140      22      22      22       0
   -------------------------------------------------------

  ==> Integral Setup <==

  Using integral reordering PK algorithm.
  Sizing the integral batches needed.
  Building batch lookup table.
   Calculation information:
      Number of atoms:                  19
      Number of AO shells:              72
      Number of primitives:            180
      Number of atomic orbitals:       145
      Number of basis functions:       140

      Integral cutoff                 1.00e-12
      Number of threads:                 1

	Batch   1 pq = [       0,    9405] index = [             0,44231715] size =     44231715
	Batch   2 pq = [    9405,    9870] index = [      44231715,48713385] size =      4481670
  Task number: 5
  Buffer size: 11059200
  Buffer per thread: 2
  We computed 2717530 shell quartets total.
  Whereas there are 3454506 unique shell quartets.

  ==> DiskJK: Disk-Based J/K Matrices <==

    J tasked:                  Yes
    K tasked:                  Yes
    wK tasked:                  No
    Memory [MiB]:              375
    Schwarz Cutoff:          1E-12

    OpenMP threads:              1

  Minimum eigenvalue in the overlap matrix is 4.5342980537E-03.
  Using Symmetric Orthogonalization.

  SCF Guess: Superposition of Atomic Densities via on-the-fly atomic UHF.

  ==> Iterations <==

                        Total Energy        Delta E     RMS |[F,P]|

   @RHF iter SAD:  -196.49251250811346   -1.96493e+02   0.00000e+00
   @RHF iter   1:  -197.29967050511726   -8.07158e-01   3.89206e-03 DIIS
   @RHF iter   2:  -197.46453854321891   -1.64868e-01   1.70753e-03 DIIS
   @RHF iter   3:  -197.49508624358864   -3.05477e-02   3.32543e-04 DIIS
   @RHF iter   4:  -197.49738271434654   -2.29647e-03   5.25005e-05 DIIS
   @RHF iter   5:  -197.49742683192838   -4.41176e-05   1.57655e-05 DIIS
   @RHF iter   6:  -197.49743074915133   -3.91722e-06   2.58845e-06 DIIS
   @RHF iter   7:  -197.49743087321974   -1.24068e-07   4.96675e-07 DIIS
   @RHF iter   8:  -197.49743087812183   -4.90209e-09   1.22960e-07 DIIS
   @RHF iter   9:  -197.49743087841219   -2.90356e-10   3.67430e-08 DIIS
   @RHF iter  10:  -197.49743087844206   -2.98712e-11   7.76539e-09 DIIS
   @RHF iter  11:  -197.49743087844357   -1.50635e-12   1.53801e-09 DIIS
   @RHF iter  12:  -197.49743087844399   -4.26326e-13   3.07499e-10 DIIS
   @RHF iter  13:  -197.49743087844405   -5.68434e-14   6.55714e-11 DIIS
  Energy and wave function converged.

  ==> Post-Iterations <==

    Orbital Energies [Eh]
    ---------------------

    Doubly Occupied:

       1A    -11.219601     2A    -11.216340     3A    -11.215817
       4A    -11.212273     5A    -11.210162     6A     -1.069213
       7A     -1.016403     8A     -0.924558     9A     -0.836271
      10A     -0.792448    11A     -0.635155    12A     -0.604567
      13A     -0.598598    14A     -0.594744    15A     -0.551687
      16A     -0.529933    17A     -0.500489    18A     -0.488889
      19A     -0.486884    20A     -0.474848    21A     -0.463226
      22A     -0.460852

    Virtual:

      23A      0.173442    24A      0.192675    25A      0.218083
      26A      0.225638    27A      0.229199    28A      0.248854
      29A      0.254100    30A      0.266492    31A      0.274589
      32A      0.287342    33A      0.290203    34A      0.306855
      35A      0.312689    36A      0.327526    37A      0.381506
      38A      0.408800    39A      0.444374    40A      0.572890
      41A      0.591058    42A      0.600127    43A      0.605899
      44A      0.616073    45A      0.621680    46A      0.626097
      47A      0.653418    48A      0.697811    49A      0.760083
      50A      0.797822    51A      0.803019    52A      0.853038
      53A      0.866810    54A      0.882641    55A      0.888013
      56A      0.892796    57A      0.895947    58A      0.896516
      59A      0.900420    60A      0.904608    61A      0.914471
      62A      0.915477    63A      0.926696    64A      0.943990
      65A      0.956586    66A      0.962749    67A      1.002616
      68A      1.033391    69A      1.118060    70A      1.131297
      71A      1.134404    72A      1.152683    73A      1.203397
      74A      1.269383    75A      1.402456    76A      1.462125
      77A      1.475913    78A      1.490480    79A      1.506634
      80A      1.555166    81A      1.593846    82A      1.624233
      83A      1.669033    84A      1.678936    85A      1.690746
      86A      1.694365    87A      1.710673    88A      1.835119
      89A      1.861021    90A      1.867510    91A      1.877734
      92A      1.886427    93A      1.904996    94A      1.909093
      95A      1.930828    96A      1.933552    97A      1.942642
      98A      1.950277    99A      1.957575   100A      1.965439
     101A      1.966862   102A      1.979269   103A      1.993363
     104A      2.019854   105A      2.043463   106A      2.057517
     107A      2.066453   108A      2.100468   109A      2.138348
     110A      2.155905   111A      2.178601   112A      2.291796
     113A      2.297019   114A      2.310455   115A      2.312320
     116A      2.342039   117A      2.362534   118A      2.452877
     119A      2.470821   120A      2.502621   121A      2.539680
     122A      2.549760   123A      2.576247   124A      2.597152
     125A      2.630839   126A      2.648012   127A      2.757433
     128A      2.764884   129A      2.768084   130A      2.787280
     131A      2.796298   132A      2.828683   133A      2.836270
     134A      2.855682   135A      2.919863   136A      2.941357
     137A      2.958004   138A      2.974980   139A      2.980017
     140A      3.093287

    Final Occupation by Irrep:
              A
    DOCC [    22 ]

  @RHF Final Energy:  -197.49743087844405

   => Energetics <=

    Nuclear Repulsion Energy =            176.7538894333621045
    One-Electron Energy =                -614.2967226104376550
    Two-Electron Energy =                 240.0454022986314726
    Total Energy =                       -197.4974308784440495

Computation Completed

Properties will be evaluated at   0.000000,   0.000000,   0.000000 [a0]

Properties computed using the SCF density matrix

  Nuclear Dipole Moment: [e a0]
     X:    -0.4840      Y:     0.2432      Z:     0.9956

  Electronic Dipole Moment: [e a0]
     X:     0.4643      Y:    -0.2416      Z:    -0.9881

  Dipole Moment: [e a0]
     X:    -0.0197      Y:     0.0016      Z:     0.0075     Total:     0.0211

  Dipole Moment: [D]
     X:    -0.0500      Y:     0.0041      Z:     0.0190     Total:     0.0537

*** tstop() called on ds3 at Tue Apr 28 09:14:39 2020
Module time:
	user time   =      17.04 seconds =       0.28 minutes
	system time =       6.98 seconds =       0.12 minutes
	total time  =         23 seconds =       0.38 minutes
Total time:
	user time   =      17.04 seconds =       0.28 minutes
	system time =       6.98 seconds =       0.12 minutes
	total time  =         23 seconds =       0.38 minutes
                                     G D M A

                                 by Anthony Stone

                           version 2.2.06, 22 June 2011

               Distributed Multipoles from Gaussian wavefunctions

Starting at 9:14:39 on 28 Apr 2020

Using SCF density matrix from file ./SSI/SSI-187LYS-193THR-1-dimer.test.9778.fchk

                         Distributed Multipole Analysis

Standard DMA

Positions and radii in angstrom
Multipole moments in atomic units, ea_0^k for rank k

C          x =  0.643471  y = -0.271357  z = -1.296039 angstrom
           Maximum rank =  0   Radius =  0.650 angstrom
                   Q00  =  -0.087022

C          x =  0.530471  y = -0.271357  z = -2.746039 angstrom
           Maximum rank =  0   Radius =  0.650 angstrom
                   Q00  =  -0.198992

C          x =  2.096471  y = -0.086357  z = -0.853039 angstrom
           Maximum rank =  0   Radius =  0.650 angstrom
                   Q00  =  -0.239909

H          x =  0.033471  y =  0.536643  z = -0.890039 angstrom
           Maximum rank =  0   Radius =  0.325 angstrom
                   Q00  =   0.046046

H          x =  0.277471  y = -1.221357  z = -0.903039 angstrom
           Maximum rank =  0   Radius =  0.325 angstrom
                   Q00  =   0.036273

H          x =  1.274471  y = -0.937357  z = -3.187039 angstrom
           Maximum rank =  0   Radius =  0.325 angstrom
                   Q00  =   0.068113

H          x =  0.729471  y =  0.745643  z = -3.094039 angstrom
           Maximum rank =  0   Radius =  0.325 angstrom
                   Q00  =   0.067335

H          x =  2.716471  y = -0.826357  z = -1.364039 angstrom
           Maximum rank =  0   Radius =  0.325 angstrom
                   Q00  =   0.074183

H          x =  2.448471  y =  0.914643  z = -1.116039 angstrom
           Maximum rank =  0   Radius =  0.325 angstrom
                   Q00  =   0.076798

H          x = -0.476779  y = -0.594597  z = -3.047639 angstrom
           Maximum rank =  0   Radius =  0.325 angstrom
                   Q00  =   0.076486

H          x =  2.176814  y = -0.241307  z =  0.233021 angstrom
           Maximum rank =  0   Radius =  0.325 angstrom
                   Q00  =   0.082122

C          x = -1.334529  y =  0.714643  z =  1.816961 angstrom
           Maximum rank =  0   Radius =  0.650 angstrom
                   Q00  =  -0.247032

C          x = -1.892529  y = -0.107357  z =  2.988961 angstrom
           Maximum rank =  0   Radius =  0.650 angstrom
                   Q00  =  -0.232378

H          x = -2.131529  y =  0.989643  z =  1.124961 angstrom
           Maximum rank =  0   Radius =  0.325 angstrom
                   Q00  =   0.078875

H          x = -0.851529  y =  1.618643  z =  2.191961 angstrom
           Maximum rank =  0   Radius =  0.325 angstrom
                   Q00  =   0.080600

H          x = -0.597529  y =  0.113643  z =  1.289961 angstrom
           Maximum rank =  0   Radius =  0.325 angstrom
                   Q00  =   0.081470

H          x = -1.098529  y = -0.291357  z =  3.713961 angstrom
           Maximum rank =  0   Radius =  0.325 angstrom
                   Q00  =   0.081748

H          x = -2.336387  y = -1.063087  z =  2.673421 angstrom
           Maximum rank =  0   Radius =  0.325 angstrom
                   Q00  =   0.081975

H          x = -2.680610  y =  0.515953  z =  3.436631 angstrom
           Maximum rank =  0   Radius =  0.325 angstrom
                   Q00  =   0.073309

Total multipoles referred to origin at
           x =   0.000000,  y =    0.000000,  z =    0.000000 angstrom
                   Q00  =  -0.000000

Finished at 9:14:39 on 28 Apr 2020

  DMA results are available in the Python driver through the
	  variable('DMA DISTRIBUTED MULTIPOLES')
  and
	  variable('DMA TOTAL MULTIPOLES')
  commands.

    Psi4 stopped on: Tuesday, 28 April 2020 09:14AM
    Psi4 wall time for execution: 0:00:22.80

*** Psi4 exiting successfully. Buy a developer a beer!
