                               Psi4 1.3.2 release

  ==> Input File <==

--------------------------------------------------------------------------
import numpy as np
set {scf_type pk
basis cc-pvdz
d_convergence 10
gdma_switch   0
gdma_limit    0
gdma_origin   [ 0.0,  0.0,  0.0 ]
}
molecule test {
    units Angstrom
    0 1
    --
    0 1
    C               -0.012896945478538    -0.678594747542196    -2.238712089893328
    O                0.761103054521462    -1.005594747542196    -1.089712089893328
    H                1.287103054521462    -1.794594747542196    -1.307712089893328
    H                0.613103054521462    -0.785594747542196    -3.125712089893328
    H               -0.878796945478538    -1.353584747542196    -2.306642089893328
    H               -0.339096945478538     0.369145252457804    -2.162382089893328
    C                0.308103054521462     0.886405252457804     1.566287910106672
    C               -1.155896945478538     0.966405252457804     1.979287910106672
    H                0.953103054521462     1.111405252457804     2.416287910106671
    H                0.536103054521462    -0.120594747542196     1.227287910106672
    H                0.508103054521462     1.592405252457804     0.761287910106672
    H               -1.785896945478538     0.858405252457804     1.096287910106672
    H               -1.336586945478538     1.944705252457804     2.448637910106672
    H               -1.388296945478538     0.156635252457804     2.686577910106672

}
e, wfn = energy('scf', return_wfn=True)
gdma(wfn)
dmavals = variable('DMA DISTRIBUTED MULTIPOLES')
charges = np.array(dmavals)
print(charges)
np.save('SSI-079THR-089LEU-2-dimer.npy', np.array(charges))--------------------------------------------------------------------------

*** tstart() called on ds3
*** at Mon Apr 27 17:47:56 2020

   => Loading Basis Set <=

    Name: CC-PVDZ
    Role: ORBITAL
    Keyword: BASIS
    atoms 1, 7-8    entry C          line   138 file /theoryfs2/ds/metcalf/miniconda2/envs/tf2gpu/share/psi4/basis/cc-pvdz.gbs
    atoms 2         entry O          line   198 file /theoryfs2/ds/metcalf/miniconda2/envs/tf2gpu/share/psi4/basis/cc-pvdz.gbs
    atoms 3-6, 9-14 entry H          line    22 file /theoryfs2/ds/metcalf/miniconda2/envs/tf2gpu/share/psi4/basis/cc-pvdz.gbs

         ---------------------------------------------------------
                                   SCF
               by Justin Turney, Rob Parrish, Andy Simmonett
                          and Daniel G. A. Smith
                              RHF Reference
                        1 Threads,    500 MiB Core
         ---------------------------------------------------------

  ==> Geometry <==

    Molecular point group: c1
    Full point group: C1

    Geometry (in Angstrom), charge = 0, multiplicity = 1:

       Center              X                  Y                   Z               Mass
    ------------   -----------------  -----------------  -----------------  -----------------
         C           -0.012896945479    -0.678594747542    -2.238712089893    12.000000000000
         O            0.761103054521    -1.005594747542    -1.089712089893    15.994914619570
         H            1.287103054521    -1.794594747542    -1.307712089893     1.007825032230
         H            0.613103054521    -0.785594747542    -3.125712089893     1.007825032230
         H           -0.878796945479    -1.353584747542    -2.306642089893     1.007825032230
         H           -0.339096945479     0.369145252458    -2.162382089893     1.007825032230
         C            0.308103054521     0.886405252458     1.566287910107    12.000000000000
         C           -1.155896945479     0.966405252458     1.979287910107    12.000000000000
         H            0.953103054521     1.111405252458     2.416287910107     1.007825032230
         H            0.536103054521    -0.120594747542     1.227287910107     1.007825032230
         H            0.508103054521     1.592405252458     0.761287910107     1.007825032230
         H           -1.785896945479     0.858405252458     1.096287910107     1.007825032230
         H           -1.336586945479     1.944705252458     2.448637910107     1.007825032230
         H           -1.388296945479     0.156635252458     2.686577910107     1.007825032230

  Running in c1 symmetry.

  Rotational constants: A =      0.44160  B =      0.06353  C =      0.05920 [cm^-1]
  Rotational constants: A =  13238.85154  B =   1904.55601  C =   1774.90104 [MHz]
  Nuclear repulsion =  124.690660637524758

  Charge       = 0
  Multiplicity = 1
  Electrons    = 36
  Nalpha       = 18
  Nbeta        = 18

  ==> Algorithm <==

  SCF Algorithm Type is PK.
  DIIS enabled.
  MOM disabled.
  Fractional occupation disabled.
  Guess Type is SAD.
  Energy threshold   = 1.00e-06
  Density threshold  = 1.00e-10
  Integral threshold = 0.00e+00

  ==> Primary Basis <==

  Basis Set: CC-PVDZ
    Blend: CC-PVDZ
    Number of shells: 54
    Number of basis function: 106
    Number of Cartesian functions: 110
    Spherical Harmonics?: true
    Max angular momentum: 2

  ==> Pre-Iterations <==

   -------------------------------------------------------
    Irrep   Nso     Nmo     Nalpha   Nbeta   Ndocc  Nsocc
   -------------------------------------------------------
     A        106     106       0       0       0       0
   -------------------------------------------------------
    Total     106     106      18      18      18       0
   -------------------------------------------------------

  ==> Integral Setup <==

  Using in-core PK algorithm.
   Calculation information:
      Number of atoms:                  14
      Number of AO shells:              54
      Number of primitives:            138
      Number of atomic orbitals:       110
      Number of basis functions:       106

      Integral cutoff                 1.00e-12
      Number of threads:                 1

  Performing in-core PK
  Using 32165912 doubles for integral storage.
  We computed 928255 shell quartets total.
  Whereas there are 1103355 unique shell quartets.

  ==> DiskJK: Disk-Based J/K Matrices <==

    J tasked:                  Yes
    K tasked:                  Yes
    wK tasked:                  No
    Memory [MiB]:              375
    Schwarz Cutoff:          1E-12

    OpenMP threads:              1

  Minimum eigenvalue in the overlap matrix is 7.7640015176E-03.
  Using Symmetric Orthogonalization.

  SCF Guess: Superposition of Atomic Densities via on-the-fly atomic UHF.

  ==> Iterations <==

                        Total Energy        Delta E     RMS |[F,P]|

   @RHF iter SAD:  -193.06971684329767   -1.93070e+02   0.00000e+00
   @RHF iter   1:  -194.13462609335789   -1.06491e+00   4.71029e-03 DIIS
   @RHF iter   2:  -194.25392726650421   -1.19301e-01   2.27796e-03 DIIS
   @RHF iter   3:  -194.27893833700011   -2.50111e-02   4.32688e-04 DIIS
   @RHF iter   4:  -194.28063006936750   -1.69173e-03   1.37988e-04 DIIS
   @RHF iter   5:  -194.28075200563364   -1.21936e-04   2.78911e-05 DIIS
   @RHF iter   6:  -194.28075888962587   -6.88399e-06   5.14473e-06 DIIS
   @RHF iter   7:  -194.28075923636089   -3.46735e-07   1.12519e-06 DIIS
   @RHF iter   8:  -194.28075925337126   -1.70104e-08   3.92761e-07 DIIS
   @RHF iter   9:  -194.28075925522259   -1.85133e-09   9.52464e-08 DIIS
   @RHF iter  10:  -194.28075925536854   -1.45945e-10   1.84804e-08 DIIS
   @RHF iter  11:  -194.28075925537311   -4.57590e-12   4.63285e-09 DIIS
   @RHF iter  12:  -194.28075925537334   -2.27374e-13   1.12327e-09 DIIS
   @RHF iter  13:  -194.28075925537351   -1.70530e-13   2.48315e-10 DIIS
   @RHF iter  14:  -194.28075925537374   -2.27374e-13   8.74656e-11 DIIS
  Energy and wave function converged.

  ==> Post-Iterations <==

    Orbital Energies [Eh]
    ---------------------

    Doubly Occupied:

       1A    -20.553060     2A    -11.279450     3A    -11.206505
       4A    -11.195726     5A     -1.349561     6A     -1.004309
       7A     -0.920519     8A     -0.819652     9A     -0.681588
      10A     -0.619150    11A     -0.592915    12A     -0.584775
      13A     -0.579732    14A     -0.500076    15A     -0.483623
      16A     -0.471518    17A     -0.463771    18A     -0.444826

    Virtual:

      19A      0.169244    20A      0.202583    21A      0.218007
      22A      0.245729    23A      0.259198    24A      0.261755
      25A      0.274369    26A      0.297219    27A      0.302577
      28A      0.329212    29A      0.361819    30A      0.410883
      31A      0.595669    32A      0.615329    33A      0.619553
      34A      0.639698    35A      0.653291    36A      0.689795
      37A      0.696441    38A      0.748035    39A      0.802652
      40A      0.857142    41A      0.863023    42A      0.885271
      43A      0.891319    44A      0.905199    45A      0.907570
      46A      0.918766    47A      0.942077    48A      0.951341
      49A      0.989298    50A      1.120535    51A      1.136849
      52A      1.143160    53A      1.152274    54A      1.181913
      55A      1.241917    56A      1.315893    57A      1.351511
      58A      1.460477    59A      1.499983    60A      1.530748
      61A      1.586204    62A      1.604246    63A      1.660096
      64A      1.680673    65A      1.690810    66A      1.745067
      67A      1.846501    68A      1.868014    69A      1.892550
      70A      1.903162    71A      1.914669    72A      1.929591
      73A      1.951604    74A      1.960547    75A      1.966553
      76A      1.973507    77A      1.980794    78A      1.993071
      79A      2.044375    80A      2.126664    81A      2.135445
      82A      2.146198    83A      2.277843    84A      2.301561
      85A      2.330902    86A      2.368137    87A      2.384037
      88A      2.470046    89A      2.477816    90A      2.488546
      91A      2.585943    92A      2.594888    93A      2.745643
      94A      2.755947    95A      2.758790    96A      2.777456
      97A      2.814576    98A      2.860846    99A      2.865799
     100A      2.972162   101A      2.977043   102A      3.300078
     103A      3.374963   104A      3.451736   105A      3.580780
     106A      4.087041

    Final Occupation by Irrep:
              A
    DOCC [    18 ]

  @RHF Final Energy:  -194.28075925537374

   => Energetics <=

    Nuclear Repulsion Energy =            124.6906606375247577
    One-Electron Energy =                -510.4413253760480416
    Two-Electron Energy =                 191.4699054831495175
    Total Energy =                       -194.2807592553737379

Computation Completed

Properties will be evaluated at   0.000000,   0.000000,   0.000000 [a0]

Properties computed using the SCF density matrix

  Nuclear Dipole Moment: [e a0]
     X:    -1.7130      Y:     1.8498      Z:     1.6203

  Electronic Dipole Moment: [e a0]
     X:     1.7790      Y:    -2.2938      Z:    -2.3780

  Dipole Moment: [e a0]
     X:     0.0660      Y:    -0.4440      Z:    -0.7577     Total:     0.8807

  Dipole Moment: [D]
     X:     0.1678      Y:    -1.1286      Z:    -1.9259     Total:     2.2385

*** tstop() called on ds3 at Mon Apr 27 17:48:02 2020
Module time:
	user time   =       5.88 seconds =       0.10 minutes
	system time =       0.13 seconds =       0.00 minutes
	total time  =          6 seconds =       0.10 minutes
Total time:
	user time   =       5.88 seconds =       0.10 minutes
	system time =       0.13 seconds =       0.00 minutes
	total time  =          6 seconds =       0.10 minutes
                                     G D M A

                                 by Anthony Stone

                           version 2.2.06, 22 June 2011

               Distributed Multipoles from Gaussian wavefunctions

Starting at 17:48:2 on 27 Apr 2020

Using SCF density matrix from file ./SSI/SSI-079THR-089LEU-2-dimer.test.5640.fchk

                         Distributed Multipole Analysis

Standard DMA

Positions and radii in angstrom
Multipole moments in atomic units, ea_0^k for rank k

C          x = -0.012897  y = -0.678595  z = -2.238712 angstrom
           Maximum rank =  0   Radius =  0.650 angstrom
                   Q00  =  -0.047379

O          x =  0.761103  y = -1.005595  z = -1.089712 angstrom
           Maximum rank =  0   Radius =  0.650 angstrom
                   Q00  =  -0.583936

H          x =  1.287103  y = -1.794595  z = -1.307712 angstrom
           Maximum rank =  0   Radius =  0.325 angstrom
                   Q00  =   0.381580

H          x =  0.613103  y = -0.785595  z = -3.125712 angstrom
           Maximum rank =  0   Radius =  0.325 angstrom
                   Q00  =   0.071111

H          x = -0.878797  y = -1.353585  z = -2.306642 angstrom
           Maximum rank =  0   Radius =  0.325 angstrom
                   Q00  =   0.073465

H          x = -0.339097  y =  0.369145  z = -2.162382 angstrom
           Maximum rank =  0   Radius =  0.325 angstrom
                   Q00  =   0.113357

C          x =  0.308103  y =  0.886405  z =  1.566288 angstrom
           Maximum rank =  0   Radius =  0.650 angstrom
                   Q00  =  -0.233517

C          x = -1.155897  y =  0.966405  z =  1.979288 angstrom
           Maximum rank =  0   Radius =  0.650 angstrom
                   Q00  =  -0.227804

H          x =  0.953103  y =  1.111405  z =  2.416288 angstrom
           Maximum rank =  0   Radius =  0.325 angstrom
                   Q00  =   0.064384

H          x =  0.536103  y = -0.120595  z =  1.227288 angstrom
           Maximum rank =  0   Radius =  0.325 angstrom
                   Q00  =   0.098689

H          x =  0.508103  y =  1.592405  z =  0.761288 angstrom
           Maximum rank =  0   Radius =  0.325 angstrom
                   Q00  =   0.072651

H          x = -1.785897  y =  0.858405  z =  1.096288 angstrom
           Maximum rank =  0   Radius =  0.325 angstrom
                   Q00  =   0.074305

H          x = -1.336587  y =  1.944705  z =  2.448638 angstrom
           Maximum rank =  0   Radius =  0.325 angstrom
                   Q00  =   0.068779

H          x = -1.388297  y =  0.156635  z =  2.686578 angstrom
           Maximum rank =  0   Radius =  0.325 angstrom
                   Q00  =   0.074314

Total multipoles referred to origin at
           x =   0.000000,  y =    0.000000,  z =    0.000000 angstrom
                   Q00  =  -0.000000

Finished at 17:48:2 on 27 Apr 2020

  DMA results are available in the Python driver through the
	  variable('DMA DISTRIBUTED MULTIPOLES')
  and
	  variable('DMA TOTAL MULTIPOLES')
  commands.

    Psi4 stopped on: Monday, 27 April 2020 05:48PM
    Psi4 wall time for execution: 0:00:06.19

*** Psi4 exiting successfully. Buy a developer a beer!
