                               Psi4 1.3.2 release

  ==> Input File <==

--------------------------------------------------------------------------
import numpy as np
set {scf_type pk
basis cc-pvdz
d_convergence 10
gdma_switch   0
gdma_limit    0
gdma_origin   [ 0.0,  0.0,  0.0 ]
}
molecule test {
    units Angstrom
    0 1
    --
    0 1
    C                0.186641722739494    -0.422189855226363     3.068358322281656
    C                0.341641722739494     0.507810144773637     0.624358322281656
    C                0.902641722739494    -0.082189855226363     1.809358322281656
    C                1.377641722739494     0.535810144773637    -0.351641677718344
    C                2.200641722739495    -0.360189855226363     1.536358322281656
    C               -0.933358277260506     0.976810144773637     0.262358322281656
    C               -1.121358277260506     1.521810144773637    -1.025641677718344
    C               -0.057358277260506     1.530810144773637    -1.953641677718344
    C                1.199641722739494     1.070810144773637    -1.614641677718344
    N                2.489641722739494     0.021810144773637     0.251358322281656
    H               -1.750358277260506     0.935810144773637     0.938358322281656
    H               -2.094358277260506     1.890810144773637    -1.315641677718344
    H               -0.232358277260506     1.912810144773637    -2.949641677718344
    H               -0.403358277260506     0.425810144773637     3.405358322281657
    H                0.914641722739494    -0.660189855226363     3.845358322281656
    H                2.893641722739494    -0.841189855226363     2.220358322281657
    H                3.384641722739494    -0.127189855226363    -0.210641677718344
    H                2.012641722739494     1.082810144773637    -2.325641677718344
    H               -0.479508277260506    -1.283889855226363     2.914358322281656
    C               -3.204358277260505    -1.939189855226363    -0.625641677718344
    C               -2.673358277260506    -2.521189855226363    -1.931641677718344
    H               -3.962358277260506    -1.188189855226363    -0.847641677718344
    H               -3.641358277260506    -2.730189855226363    -0.015641677718344
    H               -2.390358277260506    -1.474189855226363    -0.071641677718344
    H               -1.964358277260506    -3.310189855226363    -1.691641677718344
    H               -2.160438277260506    -1.726019855226363    -2.492551677718344
    H               -3.513348277260506    -2.960489855226363    -2.489691677718344

}
e, wfn = energy('scf', return_wfn=True)
gdma(wfn)
dmavals = variable('DMA DISTRIBUTED MULTIPOLES')
charges = np.array(dmavals)
print(charges)
np.save('SSI-095TRP-099LEU-2-dimer.npy', np.array(charges))--------------------------------------------------------------------------

*** tstart() called on ds3
*** at Mon Apr 27 07:52:28 2020

   => Loading Basis Set <=

    Name: CC-PVDZ
    Role: ORBITAL
    Keyword: BASIS
    atoms 1-9, 20-21   entry C          line   138 file /theoryfs2/ds/metcalf/miniconda2/envs/tf2gpu/share/psi4/basis/cc-pvdz.gbs
    atoms 10           entry N          line   168 file /theoryfs2/ds/metcalf/miniconda2/envs/tf2gpu/share/psi4/basis/cc-pvdz.gbs
    atoms 11-19, 22-27 entry H          line    22 file /theoryfs2/ds/metcalf/miniconda2/envs/tf2gpu/share/psi4/basis/cc-pvdz.gbs

         ---------------------------------------------------------
                                   SCF
               by Justin Turney, Rob Parrish, Andy Simmonett
                          and Daniel G. A. Smith
                              RHF Reference
                        1 Threads,    500 MiB Core
         ---------------------------------------------------------

  ==> Geometry <==

    Molecular point group: c1
    Full point group: C1

    Geometry (in Angstrom), charge = 0, multiplicity = 1:

       Center              X                  Y                   Z               Mass
    ------------   -----------------  -----------------  -----------------  -----------------
         C            0.186641722739    -0.422189855226     3.068358322282    12.000000000000
         C            0.341641722739     0.507810144774     0.624358322282    12.000000000000
         C            0.902641722739    -0.082189855226     1.809358322282    12.000000000000
         C            1.377641722739     0.535810144774    -0.351641677718    12.000000000000
         C            2.200641722739    -0.360189855226     1.536358322282    12.000000000000
         C           -0.933358277261     0.976810144774     0.262358322282    12.000000000000
         C           -1.121358277261     1.521810144774    -1.025641677718    12.000000000000
         C           -0.057358277261     1.530810144774    -1.953641677718    12.000000000000
         C            1.199641722739     1.070810144774    -1.614641677718    12.000000000000
         N            2.489641722739     0.021810144774     0.251358322282    14.003074004430
         H           -1.750358277261     0.935810144774     0.938358322282     1.007825032230
         H           -2.094358277261     1.890810144774    -1.315641677718     1.007825032230
         H           -0.232358277261     1.912810144774    -2.949641677718     1.007825032230
         H           -0.403358277261     0.425810144774     3.405358322282     1.007825032230
         H            0.914641722739    -0.660189855226     3.845358322282     1.007825032230
         H            2.893641722739    -0.841189855226     2.220358322282     1.007825032230
         H            3.384641722739    -0.127189855226    -0.210641677718     1.007825032230
         H            2.012641722739     1.082810144774    -2.325641677718     1.007825032230
         H           -0.479508277261    -1.283889855226     2.914358322282     1.007825032230
         C           -3.204358277261    -1.939189855226    -0.625641677718    12.000000000000
         C           -2.673358277261    -2.521189855226    -1.931641677718    12.000000000000
         H           -3.962358277261    -1.188189855226    -0.847641677718     1.007825032230
         H           -3.641358277261    -2.730189855226    -0.015641677718     1.007825032230
         H           -2.390358277261    -1.474189855226    -0.071641677718     1.007825032230
         H           -1.964358277261    -3.310189855226    -1.691641677718     1.007825032230
         H           -2.160438277261    -1.726019855226    -2.492551677718     1.007825032230
         H           -3.513348277261    -2.960489855226    -2.489691677718     1.007825032230

  Running in c1 symmetry.

  Rotational constants: A =      0.03401  B =      0.02058  C =      0.01613 [cm^-1]
  Rotational constants: A =   1019.72380  B =    617.10856  C =    483.45390 [MHz]
  Nuclear repulsion =  656.566876693310633

  Charge       = 0
  Multiplicity = 1
  Electrons    = 88
  Nalpha       = 44
  Nbeta        = 44

  ==> Algorithm <==

  SCF Algorithm Type is PK.
  DIIS enabled.
  MOM disabled.
  Fractional occupation disabled.
  Guess Type is SAD.
  Energy threshold   = 1.00e-06
  Density threshold  = 1.00e-10
  Integral threshold = 0.00e+00

  ==> Primary Basis <==

  Basis Set: CC-PVDZ
    Blend: CC-PVDZ
    Number of shells: 117
    Number of basis function: 243
    Number of Cartesian functions: 255
    Spherical Harmonics?: true
    Max angular momentum: 2

  ==> Pre-Iterations <==

   -------------------------------------------------------
    Irrep   Nso     Nmo     Nalpha   Nbeta   Ndocc  Nsocc
   -------------------------------------------------------
     A        243     243       0       0       0       0
   -------------------------------------------------------
    Total     243     243      44      44      44       0
   -------------------------------------------------------

  ==> Integral Setup <==

  Using integral reordering PK algorithm.
  Sizing the integral batches needed.
  Building batch lookup table.
   Calculation information:
      Number of atoms:                  27
      Number of AO shells:             117
      Number of primitives:            339
      Number of atomic orbitals:       255
      Number of basis functions:       243

      Integral cutoff                 1.00e-12
      Number of threads:                 1

	Batch   1 pq = [       0,    9405] index = [             0,44231715] size =     44231715
	Batch   2 pq = [    9405,   13301] index = [      44231715,88464951] size =     44233236
	Batch   3 pq = [   13301,   16290] index = [      88464951,132690195] size =     44225244
	Batch   4 pq = [   16290,   18810] index = [     132690195,176917455] size =     44227260
	Batch   5 pq = [   18810,   21030] index = [     176917455,221140965] size =     44223510
	Batch   6 pq = [   21030,   23037] index = [     221140965,265363203] size =     44222238
	Batch   7 pq = [   23037,   24883] index = [     265363203,309594286] size =     44231083
	Batch   8 pq = [   24883,   26601] index = [     309594286,353819901] size =     44225615
	Batch   9 pq = [   26601,   28214] index = [     353819901,398029005] size =     44209104
	Batch  10 pq = [   28214,   29646] index = [     398029005,439457481] size =     41428476
  Task number: 40
  Buffer size: 11059200
  Buffer per thread: 2
  We computed 22724561 shell quartets total.
  Whereas there are 23829156 unique shell quartets.

  ==> DiskJK: Disk-Based J/K Matrices <==

    J tasked:                  Yes
    K tasked:                  Yes
    wK tasked:                  No
    Memory [MiB]:              375
    Schwarz Cutoff:          1E-12

    OpenMP threads:              1

  Minimum eigenvalue in the overlap matrix is 2.5143673587E-04.
  Using Symmetric Orthogonalization.

  SCF Guess: Superposition of Atomic Densities via on-the-fly atomic UHF.

  ==> Iterations <==

                        Total Energy        Delta E     RMS |[F,P]|

   @RHF iter SAD:  -479.03600918109771   -4.79036e+02   0.00000e+00
   @RHF iter   1:  -479.48851468120063   -4.52506e-01   2.60869e-03 DIIS
   @RHF iter   2:  -479.72123662338254   -2.32722e-01   1.15583e-03 DIIS
   @RHF iter   3:  -479.76291653170591   -4.16799e-02   2.98606e-04 DIIS
   @RHF iter   4:  -479.76664317824083   -3.72665e-03   1.37879e-04 DIIS
   @RHF iter   5:  -479.76727527376698   -6.32096e-04   2.01740e-05 DIIS
   @RHF iter   6:  -479.76730572250864   -3.04487e-05   9.40723e-06 DIIS
   @RHF iter   7:  -479.76731231011820   -6.58761e-06   4.08876e-06 DIIS
   @RHF iter   8:  -479.76731440565015   -2.09553e-06   1.67645e-06 DIIS
   @RHF iter   9:  -479.76731484982628   -4.44176e-07   7.39107e-07 DIIS
   @RHF iter  10:  -479.76731493738072   -8.75544e-08   3.34614e-07 DIIS
   @RHF iter  11:  -479.76731495645197   -1.90713e-08   1.19104e-07 DIIS
   @RHF iter  12:  -479.76731495869814   -2.24617e-09   3.62695e-08 DIIS
   @RHF iter  13:  -479.76731495883945   -1.41313e-10   9.69452e-09 DIIS
   @RHF iter  14:  -479.76731495884707   -7.61702e-12   3.76074e-09 DIIS
   @RHF iter  15:  -479.76731495884565    1.42109e-12   2.19526e-09 DIIS
   @RHF iter  16:  -479.76731495885195   -6.30962e-12   1.00963e-09 DIIS
   @RHF iter  17:  -479.76731495885048    1.47793e-12   3.60463e-10 DIIS
   @RHF iter  18:  -479.76731495885031    1.70530e-13   1.52858e-10 DIIS
   @RHF iter  19:  -479.76731495884633    3.97904e-12   5.11724e-11 DIIS
  Energy and wave function converged.

  ==> Post-Iterations <==

    Orbital Energies [Eh]
    ---------------------

    Doubly Occupied:

       1A    -15.601136     2A    -11.264100     3A    -11.263347
       4A    -11.232990     5A    -11.231484     6A    -11.229289
       7A    -11.225312     8A    -11.224903     9A    -11.222268
      10A    -11.216471    11A    -11.208848    12A    -11.205342
      13A     -1.297811    14A     -1.126206    15A     -1.075771
      16A     -1.010007    17A     -0.997358    18A     -0.988191
      19A     -0.931820    20A     -0.840976    21A     -0.824478
      22A     -0.803842    23A     -0.753056    24A     -0.720626
      25A     -0.665940    26A     -0.642266    27A     -0.603192
      28A     -0.595519    29A     -0.591186    30A     -0.589867
      31A     -0.589032    32A     -0.569108    33A     -0.552746
      34A     -0.538159    35A     -0.528693    36A     -0.498666
      37A     -0.486827    38A     -0.478394    39A     -0.475488
      40A     -0.470567    41A     -0.459119    42A     -0.372872
      43A     -0.294428    44A     -0.275965

    Virtual:

      45A      0.124148    46A      0.164916    47A      0.177287
      48A      0.180645    49A      0.195675    50A      0.208280
      51A      0.221087    52A      0.226046    53A      0.232107
      54A      0.252891    55A      0.260829    56A      0.266983
      57A      0.272242    58A      0.278400    59A      0.285697
      60A      0.290311    61A      0.295771    62A      0.337514
      63A      0.373623    64A      0.391838    65A      0.401997
      66A      0.409042    67A      0.420067    68A      0.441791
      69A      0.471874    70A      0.480356    71A      0.499535
      72A      0.508103    73A      0.589316    74A      0.602406
      75A      0.610457    76A      0.612733    77A      0.616411
      78A      0.631748    79A      0.638880    80A      0.663773
      81A      0.675310    82A      0.683657    83A      0.701766
      84A      0.705430    85A      0.717394    86A      0.730429
      87A      0.738924    88A      0.741845    89A      0.747249
      90A      0.757238    91A      0.769876    92A      0.782551
      93A      0.787138    94A      0.789642    95A      0.817069
      96A      0.835052    97A      0.852464    98A      0.872416
      99A      0.877622   100A      0.881737   101A      0.886305
     102A      0.895877   103A      0.897111   104A      0.902866
     105A      0.911509   106A      0.919267   107A      0.922739
     108A      0.943372   109A      0.948070   110A      0.953247
     111A      0.954991   112A      0.965883   113A      0.977871
     114A      0.981020   115A      1.016140   116A      1.032599
     117A      1.053664   118A      1.069447   119A      1.097047
     120A      1.121688   121A      1.126947   122A      1.134871
     123A      1.141485   124A      1.148917   125A      1.163769
     126A      1.177307   127A      1.205694   128A      1.223635
     129A      1.231489   130A      1.233535   131A      1.250752
     132A      1.269627   133A      1.290853   134A      1.293427
     135A      1.302866   136A      1.322168   137A      1.341719
     138A      1.361955   139A      1.369648   140A      1.394482
     141A      1.445500   142A      1.491844   143A      1.499745
     144A      1.523511   145A      1.562715   146A      1.571831
     147A      1.580644   148A      1.591872   149A      1.630153
     150A      1.640201   151A      1.646213   152A      1.674825
     153A      1.685563   154A      1.692910   155A      1.725602
     156A      1.743015   157A      1.760061   158A      1.775568
     159A      1.787272   160A      1.804655   161A      1.821854
     162A      1.832546   163A      1.855542   164A      1.868283
     165A      1.885630   166A      1.893269   167A      1.903474
     168A      1.913405   169A      1.916759   170A      1.920472
     171A      1.929354   172A      1.946522   173A      1.954883
     174A      1.958667   175A      1.960691   176A      1.969954
     177A      1.972877   178A      1.982297   179A      1.987518
     180A      1.999893   181A      2.008253   182A      2.023794
     183A      2.038521   184A      2.068782   185A      2.080546
     186A      2.092065   187A      2.097502   188A      2.112911
     189A      2.118303   190A      2.118872   191A      2.138685
     192A      2.149322   193A      2.152026   194A      2.164301
     195A      2.181850   196A      2.217707   197A      2.244047
     198A      2.288063   199A      2.292482   200A      2.297707
     201A      2.315680   202A      2.324953   203A      2.337157
     204A      2.344102   205A      2.393037   206A      2.427970
     207A      2.449105   208A      2.458555   209A      2.466988
     210A      2.485027   211A      2.529945   212A      2.580705
     213A      2.581614   214A      2.591526   215A      2.605430
     216A      2.647529   217A      2.661718   218A      2.680106
     219A      2.708241   220A      2.769590   221A      2.777453
     222A      2.780337   223A      2.784115   224A      2.796881
     225A      2.811659   226A      2.826606   227A      2.849089
     228A      2.852922   229A      2.876877   230A      2.882907
     231A      2.907768   232A      2.957795   233A      2.966171
     234A      2.987957   235A      3.035735   236A      3.049382
     237A      3.078157   238A      3.114227   239A      3.199425
     240A      3.312543   241A      3.390653   242A      3.738897
     243A      3.936598

    Final Occupation by Irrep:
              A
    DOCC [    44 ]

  @RHF Final Energy:  -479.76731495884633

   => Energetics <=

    Nuclear Repulsion Energy =            656.5668766933106326
    One-Electron Energy =               -1951.1210512110374111
    Two-Electron Energy =                 814.7868595588804510
    Total Energy =                       -479.7673149588463275

Computation Completed

Properties will be evaluated at   0.000000,   0.000000,   0.000000 [a0]

Properties computed using the SCF density matrix

  Nuclear Dipole Moment: [e a0]
     X:   -12.5568      Y:    -9.4251      Z:    -1.0194

  Electronic Dipole Moment: [e a0]
     X:    13.3766      Y:     9.1584      Z:     1.0939

  Dipole Moment: [e a0]
     X:     0.8198      Y:    -0.2667      Z:     0.0745     Total:     0.8653

  Dipole Moment: [D]
     X:     2.0837      Y:    -0.6778      Z:     0.1895     Total:     2.1993

*** tstop() called on ds3 at Mon Apr 27 08:00:22 2020
Module time:
	user time   =     180.90 seconds =       3.02 minutes
	system time =      69.72 seconds =       1.16 minutes
	total time  =        474 seconds =       7.90 minutes
Total time:
	user time   =     180.90 seconds =       3.02 minutes
	system time =      69.72 seconds =       1.16 minutes
	total time  =        474 seconds =       7.90 minutes
                                     G D M A

                                 by Anthony Stone

                           version 2.2.06, 22 June 2011

               Distributed Multipoles from Gaussian wavefunctions

Starting at 8:0:22 on 27 Apr 2020

Using SCF density matrix from file ./SSI/SSI-095TRP-099LEU-2-dimer.test.341.fchk

                         Distributed Multipole Analysis

Standard DMA

Positions and radii in angstrom
Multipole moments in atomic units, ea_0^k for rank k

C          x =  0.186642  y = -0.422190  z =  3.068358 angstrom
           Maximum rank =  0   Radius =  0.650 angstrom
                   Q00  =  -0.204301

C          x =  0.341642  y =  0.507810  z =  0.624358 angstrom
           Maximum rank =  0   Radius =  0.650 angstrom
                   Q00  =  -0.057825

C          x =  0.902642  y = -0.082190  z =  1.809358 angstrom
           Maximum rank =  0   Radius =  0.650 angstrom
                   Q00  =  -0.117008

C          x =  1.377642  y =  0.535810  z = -0.351642 angstrom
           Maximum rank =  0   Radius =  0.650 angstrom
                   Q00  =   0.279755

C          x =  2.200642  y = -0.360190  z =  1.536358 angstrom
           Maximum rank =  0   Radius =  0.650 angstrom
                   Q00  =   0.072166

C          x = -0.933358  y =  0.976810  z =  0.262358 angstrom
           Maximum rank =  0   Radius =  0.650 angstrom
                   Q00  =  -0.103530

C          x = -1.121358  y =  1.521810  z = -1.025642 angstrom
           Maximum rank =  0   Radius =  0.650 angstrom
                   Q00  =  -0.101734

C          x = -0.057358  y =  1.530810  z = -1.953642 angstrom
           Maximum rank =  0   Radius =  0.650 angstrom
                   Q00  =  -0.040888

C          x =  1.199642  y =  1.070810  z = -1.614642 angstrom
           Maximum rank =  0   Radius =  0.650 angstrom
                   Q00  =  -0.119359

N          x =  2.489642  y =  0.021810  z =  0.251358 angstrom
           Maximum rank =  0   Radius =  0.650 angstrom
                   Q00  =  -0.496610

H          x = -1.750358  y =  0.935810  z =  0.938358 angstrom
           Maximum rank =  0   Radius =  0.325 angstrom
                   Q00  =   0.073405

H          x = -2.094358  y =  1.890810  z = -1.315642 angstrom
           Maximum rank =  0   Radius =  0.325 angstrom
                   Q00  =   0.064704

H          x = -0.232358  y =  1.912810  z = -2.949642 angstrom
           Maximum rank =  0   Radius =  0.325 angstrom
                   Q00  =   0.065496

H          x = -0.403358  y =  0.425810  z =  3.405358 angstrom
           Maximum rank =  0   Radius =  0.325 angstrom
                   Q00  =   0.099571

H          x =  0.914642  y = -0.660190  z =  3.845358 angstrom
           Maximum rank =  0   Radius =  0.325 angstrom
                   Q00  =   0.102256

H          x =  2.893642  y = -0.841190  z =  2.220358 angstrom
           Maximum rank =  0   Radius =  0.325 angstrom
                   Q00  =   0.101385

H          x =  3.384642  y = -0.127190  z = -0.210642 angstrom
           Maximum rank =  0   Radius =  0.325 angstrom
                   Q00  =   0.213132

H          x =  2.012642  y =  1.082810  z = -2.325642 angstrom
           Maximum rank =  0   Radius =  0.325 angstrom
                   Q00  =   0.072828

H          x = -0.479508  y = -1.283890  z =  2.914358 angstrom
           Maximum rank =  0   Radius =  0.325 angstrom
                   Q00  =   0.096309

C          x = -3.204358  y = -1.939190  z = -0.625642 angstrom
           Maximum rank =  0   Radius =  0.650 angstrom
                   Q00  =  -0.233901

C          x = -2.673358  y = -2.521190  z = -1.931642 angstrom
           Maximum rank =  0   Radius =  0.650 angstrom
                   Q00  =  -0.231233

H          x = -3.962358  y = -1.188190  z = -0.847642 angstrom
           Maximum rank =  0   Radius =  0.325 angstrom
                   Q00  =   0.072616

H          x = -3.641358  y = -2.730190  z = -0.015642 angstrom
           Maximum rank =  0   Radius =  0.325 angstrom
                   Q00  =   0.070227

H          x = -2.390358  y = -1.474190  z = -0.071642 angstrom
           Maximum rank =  0   Radius =  0.325 angstrom
                   Q00  =   0.090138

H          x = -1.964358  y = -3.310190  z = -1.691642 angstrom
           Maximum rank =  0   Radius =  0.325 angstrom
                   Q00  =   0.076074

H          x = -2.160438  y = -1.726020  z = -2.492552 angstrom
           Maximum rank =  0   Radius =  0.325 angstrom
                   Q00  =   0.084834

H          x = -3.513348  y = -2.960490  z = -2.489692 angstrom
           Maximum rank =  0   Radius =  0.325 angstrom
                   Q00  =   0.071493

Total multipoles referred to origin at
           x =   0.000000,  y =    0.000000,  z =    0.000000 angstrom
                   Q00  =  -0.000000

Finished at 8:0:22 on 27 Apr 2020

  DMA results are available in the Python driver through the
	  variable('DMA DISTRIBUTED MULTIPOLES')
  and
	  variable('DMA TOTAL MULTIPOLES')
  commands.

    Psi4 stopped on: Monday, 27 April 2020 08:00AM
    Psi4 wall time for execution: 0:07:54.23

*** Psi4 exiting successfully. Buy a developer a beer!
