                               Psi4 1.3.2 release

  ==> Input File <==

--------------------------------------------------------------------------
import numpy as np
set {scf_type pk
basis cc-pvdz
d_convergence 10
gdma_switch   0
gdma_limit    0
gdma_origin   [ 0.0,  0.0,  0.0 ]
}
molecule test {
    units Angstrom
    0 1
    --
    0 1
    C                1.671152975521962     1.443953004567514     0.424882235355866
    C                3.015152975521962     1.680953004567513    -0.269117764644134
    C                1.270152975521962     2.611953004567513     1.339882235355866
    H                0.897152975521962     1.266953004567513    -0.322117764644134
    H                1.760152975521962     0.544953004567513     1.035882235355866
    H                2.971152975521962     2.523953004567513    -0.960117764644134
    H                2.087152975521962     2.898953004567513     1.998882235355866
    H                3.381402975521962     0.763444004567513    -0.752895764644134
    H                3.790392975521963     1.838321004567513     0.495240685355866
    H                0.985382975521962     3.477814004567513     0.724094935355866
    H                0.443402975521962     2.306336004567513     1.997969235355866
    C               -2.764847024478038     0.198953004567513     0.972882235355866
    C               -1.659847024478038    -0.492046995432487     0.224882235355866
    C               -0.685847024478038    -1.212046995432487     0.917882235355866
    C               -1.588847024478038    -0.414046995432487    -1.167117764644134
    C                0.357152975521962    -1.847046995432487     0.229882235355866
    C               -0.547847024478038    -1.049046995432487    -1.862117764644134
    C                0.428152975521962    -1.766046995432487    -1.161117764644134
    H               -2.987847024478038     1.143953004567513     0.472882235355866
    H               -2.417847024478038     0.432953004567513     1.980882235355866
    H               -0.726847024478038    -1.276046995432487     1.995882235355866
    H               -2.332847024478038     0.140953004567513    -1.717117764644134
    H                1.116152975521962    -2.386046995432487     0.776882235355866
    H               -0.501847024478038    -0.978046995432487    -2.936117764644134
    H                1.239152975521962    -2.247046995432487    -1.692117764644134
    H               -3.685717024478037    -0.396438995432487     1.059484735355866

}
e, wfn = energy('scf', return_wfn=True)
gdma(wfn)
dmavals = variable('DMA DISTRIBUTED MULTIPOLES')
charges = np.array(dmavals)
print(charges)
np.save('SSI-106LEU-149PHE-2-dimer.npy', np.array(charges))--------------------------------------------------------------------------

*** tstart() called on ds3
*** at Mon Apr 27 07:06:40 2020

   => Loading Basis Set <=

    Name: CC-PVDZ
    Role: ORBITAL
    Keyword: BASIS
    atoms 1-3, 12-18  entry C          line   138 file /theoryfs2/ds/metcalf/miniconda2/envs/tf2gpu/share/psi4/basis/cc-pvdz.gbs
    atoms 4-11, 19-26 entry H          line    22 file /theoryfs2/ds/metcalf/miniconda2/envs/tf2gpu/share/psi4/basis/cc-pvdz.gbs

         ---------------------------------------------------------
                                   SCF
               by Justin Turney, Rob Parrish, Andy Simmonett
                          and Daniel G. A. Smith
                              RHF Reference
                        1 Threads,    500 MiB Core
         ---------------------------------------------------------

  ==> Geometry <==

    Molecular point group: c1
    Full point group: C1

    Geometry (in Angstrom), charge = 0, multiplicity = 1:

       Center              X                  Y                   Z               Mass
    ------------   -----------------  -----------------  -----------------  -----------------
         C            1.671152975522     1.443953004568     0.424882235356    12.000000000000
         C            3.015152975522     1.680953004568    -0.269117764644    12.000000000000
         C            1.270152975522     2.611953004568     1.339882235356    12.000000000000
         H            0.897152975522     1.266953004568    -0.322117764644     1.007825032230
         H            1.760152975522     0.544953004568     1.035882235356     1.007825032230
         H            2.971152975522     2.523953004568    -0.960117764644     1.007825032230
         H            2.087152975522     2.898953004568     1.998882235356     1.007825032230
         H            3.381402975522     0.763444004568    -0.752895764644     1.007825032230
         H            3.790392975522     1.838321004568     0.495240685356     1.007825032230
         H            0.985382975522     3.477814004568     0.724094935356     1.007825032230
         H            0.443402975522     2.306336004568     1.997969235356     1.007825032230
         C           -2.764847024478     0.198953004568     0.972882235356    12.000000000000
         C           -1.659847024478    -0.492046995432     0.224882235356    12.000000000000
         C           -0.685847024478    -1.212046995432     0.917882235356    12.000000000000
         C           -1.588847024478    -0.414046995432    -1.167117764644    12.000000000000
         C            0.357152975522    -1.847046995432     0.229882235356    12.000000000000
         C           -0.547847024478    -1.049046995432    -1.862117764644    12.000000000000
         C            0.428152975522    -1.766046995432    -1.161117764644    12.000000000000
         H           -2.987847024478     1.143953004568     0.472882235356     1.007825032230
         H           -2.417847024478     0.432953004568     1.980882235356     1.007825032230
         H           -0.726847024478    -1.276046995432     1.995882235356     1.007825032230
         H           -2.332847024478     0.140953004568    -1.717117764644     1.007825032230
         H            1.116152975522    -2.386046995432     0.776882235356     1.007825032230
         H           -0.501847024478    -0.978046995432    -2.936117764644     1.007825032230
         H            1.239152975522    -2.247046995432    -1.692117764644     1.007825032230
         H           -3.685717024478    -0.396438995432     1.059484735356     1.007825032230

  Running in c1 symmetry.

  Rotational constants: A =      0.04984  B =      0.02668  C =      0.02143 [cm^-1]
  Rotational constants: A =   1494.28487  B =    799.87125  C =    642.35071 [MHz]
  Nuclear repulsion =  501.881202521615478

  Charge       = 0
  Multiplicity = 1
  Electrons    = 76
  Nalpha       = 38
  Nbeta        = 38

  ==> Algorithm <==

  SCF Algorithm Type is PK.
  DIIS enabled.
  MOM disabled.
  Fractional occupation disabled.
  Guess Type is SAD.
  Energy threshold   = 1.00e-06
  Density threshold  = 1.00e-10
  Integral threshold = 0.00e+00

  ==> Primary Basis <==

  Basis Set: CC-PVDZ
    Blend: CC-PVDZ
    Number of shells: 108
    Number of basis function: 220
    Number of Cartesian functions: 230
    Spherical Harmonics?: true
    Max angular momentum: 2

  ==> Pre-Iterations <==

   -------------------------------------------------------
    Irrep   Nso     Nmo     Nalpha   Nbeta   Ndocc  Nsocc
   -------------------------------------------------------
     A        220     220       0       0       0       0
   -------------------------------------------------------
    Total     220     220      38      38      38       0
   -------------------------------------------------------

  ==> Integral Setup <==

  Using integral reordering PK algorithm.
  Sizing the integral batches needed.
  Building batch lookup table.
   Calculation information:
      Number of atoms:                  26
      Number of AO shells:             108
      Number of primitives:            300
      Number of atomic orbitals:       230
      Number of basis functions:       220

      Integral cutoff                 1.00e-12
      Number of threads:                 1

	Batch   1 pq = [       0,    9405] index = [             0,44231715] size =     44231715
	Batch   2 pq = [    9405,   13301] index = [      44231715,88464951] size =     44233236
	Batch   3 pq = [   13301,   16290] index = [      88464951,132690195] size =     44225244
	Batch   4 pq = [   16290,   18810] index = [     132690195,176917455] size =     44227260
	Batch   5 pq = [   18810,   21030] index = [     176917455,221140965] size =     44223510
	Batch   6 pq = [   21030,   23037] index = [     221140965,265363203] size =     44222238
	Batch   7 pq = [   23037,   24310] index = [     265363203,295500205] size =     30137002
  Task number: 27
  Buffer size: 11059200
  Buffer per thread: 2
  We computed 17389939 shell quartets total.
  Whereas there are 17325441 unique shell quartets.
     0.37 percent of shell quartets recomputed by reordering.

  ==> DiskJK: Disk-Based J/K Matrices <==

    J tasked:                  Yes
    K tasked:                  Yes
    wK tasked:                  No
    Memory [MiB]:              375
    Schwarz Cutoff:          1E-12

    OpenMP threads:              1

  Minimum eigenvalue in the overlap matrix is 3.2205594493E-04.
  Using Symmetric Orthogonalization.

  SCF Guess: Superposition of Atomic Densities via on-the-fly atomic UHF.

  ==> Iterations <==

                        Total Energy        Delta E     RMS |[F,P]|

   @RHF iter SAD:  -386.80432073195055   -3.86804e+02   0.00000e+00
   @RHF iter   1:  -387.77144114256316   -9.67120e-01   2.73665e-03 DIIS
   @RHF iter   2:  -387.98855782366564   -2.17117e-01   1.15266e-03 DIIS
   @RHF iter   3:  -388.02354789683216   -3.49901e-02   2.49840e-04 DIIS
   @RHF iter   4:  -388.02641860149095   -2.87070e-03   5.53923e-05 DIIS
   @RHF iter   5:  -388.02651609303433   -9.74915e-05   1.75649e-05 DIIS
   @RHF iter   6:  -388.02652573292028   -9.63989e-06   5.10727e-06 DIIS
   @RHF iter   7:  -388.02652665512034   -9.22200e-07   1.16738e-06 DIIS
   @RHF iter   8:  -388.02652671584246   -6.07221e-08   2.92939e-07 DIIS
   @RHF iter   9:  -388.02652672298854   -7.14607e-09   1.17698e-07 DIIS
   @RHF iter  10:  -388.02652672454701   -1.55848e-09   5.92581e-08 DIIS
   @RHF iter  11:  -388.02652672507315   -5.26143e-10   2.24123e-08 DIIS
   @RHF iter  12:  -388.02652672516064   -8.74820e-11   8.61743e-09 DIIS
   @RHF iter  13:  -388.02652672516513   -4.49063e-12   3.77212e-09 DIIS
   @RHF iter  14:  -388.02652672517218   -7.04858e-12   1.05294e-09 DIIS
   @RHF iter  15:  -388.02652672517149    6.82121e-13   3.60758e-10 DIIS
   @RHF iter  16:  -388.02652672517183   -3.41061e-13   1.44133e-10 DIIS
   @RHF iter  17:  -388.02652672516808    3.75167e-12   6.59230e-11 DIIS
  Energy and wave function converged.

  ==> Post-Iterations <==

    Orbital Energies [Eh]
    ---------------------

    Doubly Occupied:

       1A    -11.242268     2A    -11.238991     3A    -11.237783
       4A    -11.234080     5A    -11.233266     6A    -11.232347
       7A    -11.230114     8A    -11.210345     9A    -11.209419
      10A    -11.207941    11A     -1.150647    12A     -1.044738
      13A     -1.041243    14A     -1.009879    15A     -0.931214
      16A     -0.915254    17A     -0.826132    18A     -0.795255
      19A     -0.787695    20A     -0.690575    21A     -0.633236
      22A     -0.630151    23A     -0.618028    24A     -0.583986
      25A     -0.582506    26A     -0.575473    27A     -0.563488
      28A     -0.539357    29A     -0.535105    30A     -0.525105
      31A     -0.489118    32A     -0.486423    33A     -0.482711
      34A     -0.461254    35A     -0.459168    36A     -0.452982
      37A     -0.330275    38A     -0.323209

    Virtual:

      39A      0.132067    40A      0.137890    41A      0.169283
      42A      0.192722    43A      0.200837    44A      0.210784
      45A      0.236003    46A      0.242161    47A      0.247939
      48A      0.252789    49A      0.257029    50A      0.264582
      51A      0.281391    52A      0.282559    53A      0.294112
      54A      0.307563    55A      0.310954    56A      0.324789
      57A      0.362191    58A      0.374825    59A      0.378628
      60A      0.430096    61A      0.448707    62A      0.459071
      63A      0.479004    64A      0.492833    65A      0.561256
      66A      0.578390    67A      0.584591    68A      0.595438
      69A      0.607757    70A      0.616213    71A      0.628570
      72A      0.661718    73A      0.681415    74A      0.688840
      75A      0.700749    76A      0.736881    77A      0.738007
      78A      0.742155    79A      0.756178    80A      0.761724
      81A      0.770886    82A      0.778606    83A      0.811030
      84A      0.819625    85A      0.836729    86A      0.841661
      87A      0.857234    88A      0.857916    89A      0.867141
      90A      0.877449    91A      0.891901    92A      0.895013
      93A      0.899973    94A      0.903451    95A      0.906471
      96A      0.915987    97A      0.922290    98A      0.927451
      99A      0.928705   100A      0.936584   101A      0.944237
     102A      0.959885   103A      0.979597   104A      0.986372
     105A      0.990815   106A      0.997341   107A      1.039219
     108A      1.088798   109A      1.123200   110A      1.125680
     111A      1.139764   112A      1.144656   113A      1.151471
     114A      1.174102   115A      1.188145   116A      1.209916
     117A      1.236852   118A      1.243928   119A      1.255771
     120A      1.281384   121A      1.300314   122A      1.306401
     123A      1.314608   124A      1.321329   125A      1.406560
     126A      1.413938   127A      1.476502   128A      1.491881
     129A      1.505191   130A      1.515737   131A      1.549812
     132A      1.567174   133A      1.598192   134A      1.643225
     135A      1.675734   136A      1.679938   137A      1.697831
     138A      1.698839   139A      1.714437   140A      1.728989
     141A      1.750533   142A      1.756053   143A      1.787626
     144A      1.817811   145A      1.852424   146A      1.869317
     147A      1.877958   148A      1.880706   149A      1.896540
     150A      1.905221   151A      1.908634   152A      1.916068
     153A      1.921938   154A      1.936131   155A      1.947137
     156A      1.950448   157A      1.952778   158A      1.967960
     159A      1.969171   160A      1.980437   161A      1.987862
     162A      1.989775   163A      1.999187   164A      2.005792
     165A      2.010777   166A      2.020493   167A      2.042170
     168A      2.063314   169A      2.069484   170A      2.086157
     171A      2.108345   172A      2.125246   173A      2.143285
     174A      2.152878   175A      2.155560   176A      2.166551
     177A      2.173353   178A      2.184414   179A      2.255981
     180A      2.274160   181A      2.291942   182A      2.292899
     183A      2.297664   184A      2.311587   185A      2.320173
     186A      2.323212   187A      2.331305   188A      2.382183
     189A      2.466174   190A      2.471840   191A      2.490002
     192A      2.492552   193A      2.539756   194A      2.558412
     195A      2.566957   196A      2.615076   197A      2.620913
     198A      2.635507   199A      2.742613   200A      2.752884
     201A      2.756750   202A      2.767618   203A      2.774415
     204A      2.783597   205A      2.791374   206A      2.806252
     207A      2.825587   208A      2.850836   209A      2.865267
     210A      2.910773   211A      2.963063   212A      2.976656
     213A      2.993419   214A      3.005866   215A      3.021912
     216A      3.107405   217A      3.147533   218A      3.190504
     219A      3.286368   220A      3.949670

    Final Occupation by Irrep:
              A
    DOCC [    38 ]

  @RHF Final Energy:  -388.02652672516808

   => Energetics <=

    Nuclear Repulsion Energy =            501.8812025216154780
    One-Electron Energy =               -1518.3339353087051222
    Two-Electron Energy =                 628.4262060619215617
    Total Energy =                       -388.0265267251680825

Computation Completed

Properties will be evaluated at   0.000000,   0.000000,   0.000000 [a0]

Properties computed using the SCF density matrix

  Nuclear Dipole Moment: [e a0]
     X:     5.6422      Y:     9.4262      Z:     3.8976

  Electronic Dipole Moment: [e a0]
     X:    -5.8048      Y:    -9.4841      Z:    -3.8611

  Dipole Moment: [e a0]
     X:    -0.1626      Y:    -0.0579      Z:     0.0365     Total:     0.1764

  Dipole Moment: [D]
     X:    -0.4133      Y:    -0.1471      Z:     0.0928     Total:     0.4484

*** tstop() called on ds3 at Mon Apr 27 07:10:54 2020
Module time:
	user time   =     124.34 seconds =       2.07 minutes
	system time =      46.02 seconds =       0.77 minutes
	total time  =        254 seconds =       4.23 minutes
Total time:
	user time   =     124.34 seconds =       2.07 minutes
	system time =      46.02 seconds =       0.77 minutes
	total time  =        254 seconds =       4.23 minutes
                                     G D M A

                                 by Anthony Stone

                           version 2.2.06, 22 June 2011

               Distributed Multipoles from Gaussian wavefunctions

Starting at 7:10:54 on 27 Apr 2020

Using SCF density matrix from file ./SSI/SSI-106LEU-149PHE-2-dimer.test.20959.fchk

                         Distributed Multipole Analysis

Standard DMA

Positions and radii in angstrom
Multipole moments in atomic units, ea_0^k for rank k

C          x =  1.671153  y =  1.443953  z =  0.424882 angstrom
           Maximum rank =  0   Radius =  0.650 angstrom
                   Q00  =  -0.065105

C          x =  3.015153  y =  1.680953  z = -0.269118 angstrom
           Maximum rank =  0   Radius =  0.650 angstrom
                   Q00  =  -0.237125

C          x =  1.270153  y =  2.611953  z =  1.339882 angstrom
           Maximum rank =  0   Radius =  0.650 angstrom
                   Q00  =  -0.260784

H          x =  0.897153  y =  1.266953  z = -0.322118 angstrom
           Maximum rank =  0   Radius =  0.325 angstrom
                   Q00  =   0.060324

H          x =  1.760153  y =  0.544953  z =  1.035882 angstrom
           Maximum rank =  0   Radius =  0.325 angstrom
                   Q00  =   0.044913

H          x =  2.971153  y =  2.523953  z = -0.960118 angstrom
           Maximum rank =  0   Radius =  0.325 angstrom
                   Q00  =   0.078686

H          x =  2.087153  y =  2.898953  z =  1.998882 angstrom
           Maximum rank =  0   Radius =  0.325 angstrom
                   Q00  =   0.075064

H          x =  3.381403  y =  0.763444  z = -0.752896 angstrom
           Maximum rank =  0   Radius =  0.325 angstrom
                   Q00  =   0.078137

H          x =  3.790393  y =  1.838321  z =  0.495241 angstrom
           Maximum rank =  0   Radius =  0.325 angstrom
                   Q00  =   0.067211

H          x =  0.985383  y =  3.477814  z =  0.724095 angstrom
           Maximum rank =  0   Radius =  0.325 angstrom
                   Q00  =   0.074904

H          x =  0.443403  y =  2.306336  z =  1.997969 angstrom
           Maximum rank =  0   Radius =  0.325 angstrom
                   Q00  =   0.077931

C          x = -2.764847  y =  0.198953  z =  0.972882 angstrom
           Maximum rank =  0   Radius =  0.650 angstrom
                   Q00  =  -0.198238

C          x = -1.659847  y = -0.492047  z =  0.224882 angstrom
           Maximum rank =  0   Radius =  0.650 angstrom
                   Q00  =  -0.097234

C          x = -0.685847  y = -1.212047  z =  0.917882 angstrom
           Maximum rank =  0   Radius =  0.650 angstrom
                   Q00  =  -0.013914

C          x = -1.588847  y = -0.414047  z = -1.167118 angstrom
           Maximum rank =  0   Radius =  0.650 angstrom
                   Q00  =  -0.064717

C          x =  0.357153  y = -1.847047  z =  0.229882 angstrom
           Maximum rank =  0   Radius =  0.650 angstrom
                   Q00  =  -0.074251

C          x = -0.547847  y = -1.049047  z = -1.862118 angstrom
           Maximum rank =  0   Radius =  0.650 angstrom
                   Q00  =  -0.081120

C          x =  0.428153  y = -1.766047  z = -1.161118 angstrom
           Maximum rank =  0   Radius =  0.650 angstrom
                   Q00  =  -0.078868

H          x = -2.987847  y =  1.143953  z =  0.472882 angstrom
           Maximum rank =  0   Radius =  0.325 angstrom
                   Q00  =   0.098411

H          x = -2.417847  y =  0.432953  z =  1.980882 angstrom
           Maximum rank =  0   Radius =  0.325 angstrom
                   Q00  =   0.096837

H          x = -0.726847  y = -1.276047  z =  1.995882 angstrom
           Maximum rank =  0   Radius =  0.325 angstrom
                   Q00  =   0.057909

H          x = -2.332847  y =  0.140953  z = -1.717118 angstrom
           Maximum rank =  0   Radius =  0.325 angstrom
                   Q00  =   0.058659

H          x =  1.116153  y = -2.386047  z =  0.776882 angstrom
           Maximum rank =  0   Radius =  0.325 angstrom
                   Q00  =   0.065844

H          x = -0.501847  y = -0.978047  z = -2.936118 angstrom
           Maximum rank =  0   Radius =  0.325 angstrom
                   Q00  =   0.067300

H          x =  1.239153  y = -2.247047  z = -1.692118 angstrom
           Maximum rank =  0   Radius =  0.325 angstrom
                   Q00  =   0.063814

H          x = -3.685717  y = -0.396439  z =  1.059485 angstrom
           Maximum rank =  0   Radius =  0.325 angstrom
                   Q00  =   0.105412

Total multipoles referred to origin at
           x =   0.000000,  y =    0.000000,  z =    0.000000 angstrom
                   Q00  =  -0.000000

Finished at 7:10:54 on 27 Apr 2020

  DMA results are available in the Python driver through the
	  variable('DMA DISTRIBUTED MULTIPOLES')
  and
	  variable('DMA TOTAL MULTIPOLES')
  commands.

    Psi4 stopped on: Monday, 27 April 2020 07:10AM
    Psi4 wall time for execution: 0:04:14.69

*** Psi4 exiting successfully. Buy a developer a beer!
