                               Psi4 1.3.2 release

  ==> Input File <==

--------------------------------------------------------------------------
import numpy as np
set {scf_type pk
basis cc-pvdz
d_convergence 10
gdma_switch   0
gdma_limit    0
gdma_origin   [ 0.0,  0.0,  0.0 ]
}
molecule test {
    units Angstrom
    0 1
    --
    0 1
    C               -0.096842007383971    -0.203087710339713     2.681100071623035
    C                1.133157992616029     0.107912289660287     0.494100071623035
    C                0.169157992616029     0.550912289660287     1.400100071623035
    C                1.362157992616029     0.800912289660287    -0.697899928376965
    C               -0.557842007383970     1.701912289660287     1.105100071623035
    C                0.629157992616029     1.948912289660287    -0.978899928376965
    C               -0.331842007383971     2.403912289660287    -0.076899928376965
    O                0.844157992616030     2.640912289660287    -2.132899928376965
    H                1.703157992616029    -0.786087710339713     0.707100071623035
    H                2.104157992616030     0.453912289660287    -1.400899928376965
    H                0.125157992616029    -1.259087710339713     2.530100071623035
    H               -1.159842007383971    -0.119087710339713     2.914100071623035
    H               -1.311842007383971     2.055912289660287     1.795100071623035
    H               -0.908842007383970     3.288912289660287    -0.289899928376965
    H                0.258157992616030     3.415912289660287    -2.162899928376965
    H                0.491111992616030     0.170606289660287     3.532370071623035
    C               -1.125842007383971    -2.604087710339713    -0.621899928376965
    C               -2.053842007383971    -3.563087710339713     0.145100071623035
    C                0.277157992616029    -3.157087710339713    -0.939899928376965
    H               -1.595842007383971    -2.304087710339713    -1.556899928376965
    H               -1.006842007383971    -1.700087710339713    -0.025899928376965
    H               -2.988842007383971    -3.039087710339713     0.344100071623035
    H                0.208157992616029    -4.027087710339713    -1.590899928376965
    H                0.846157992616030    -2.386087710339713    -1.457899928376965
    H                0.813157992616030    -3.415087710339713    -0.026899928376965
    H               -2.278409007383971    -4.455652710339713    -0.457309928376965
    H               -1.606592007383971    -3.840025010339713     1.111160071623035

}
e, wfn = energy('scf', return_wfn=True)
gdma(wfn)
dmavals = variable('DMA DISTRIBUTED MULTIPOLES')
charges = np.array(dmavals)
print(charges)
np.save('SSI-142TYR-170ILE-1-dimer.npy', np.array(charges))--------------------------------------------------------------------------

*** tstart() called on ds3
*** at Tue Apr 28 10:36:51 2020

   => Loading Basis Set <=

    Name: CC-PVDZ
    Role: ORBITAL
    Keyword: BASIS
    atoms 1-7, 17-19  entry C          line   138 file /theoryfs2/ds/metcalf/miniconda2/envs/tf2gpu/share/psi4/basis/cc-pvdz.gbs
    atoms 8           entry O          line   198 file /theoryfs2/ds/metcalf/miniconda2/envs/tf2gpu/share/psi4/basis/cc-pvdz.gbs
    atoms 9-16, 20-27 entry H          line    22 file /theoryfs2/ds/metcalf/miniconda2/envs/tf2gpu/share/psi4/basis/cc-pvdz.gbs

         ---------------------------------------------------------
                                   SCF
               by Justin Turney, Rob Parrish, Andy Simmonett
                          and Daniel G. A. Smith
                              RHF Reference
                        1 Threads,    500 MiB Core
         ---------------------------------------------------------

  ==> Geometry <==

    Molecular point group: c1
    Full point group: C1

    Geometry (in Angstrom), charge = 0, multiplicity = 1:

       Center              X                  Y                   Z               Mass
    ------------   -----------------  -----------------  -----------------  -----------------
         C           -0.096842007384    -0.203087710340     2.681100071623    12.000000000000
         C            1.133157992616     0.107912289660     0.494100071623    12.000000000000
         C            0.169157992616     0.550912289660     1.400100071623    12.000000000000
         C            1.362157992616     0.800912289660    -0.697899928377    12.000000000000
         C           -0.557842007384     1.701912289660     1.105100071623    12.000000000000
         C            0.629157992616     1.948912289660    -0.978899928377    12.000000000000
         C           -0.331842007384     2.403912289660    -0.076899928377    12.000000000000
         O            0.844157992616     2.640912289660    -2.132899928377    15.994914619570
         H            1.703157992616    -0.786087710340     0.707100071623     1.007825032230
         H            2.104157992616     0.453912289660    -1.400899928377     1.007825032230
         H            0.125157992616    -1.259087710340     2.530100071623     1.007825032230
         H           -1.159842007384    -0.119087710340     2.914100071623     1.007825032230
         H           -1.311842007384     2.055912289660     1.795100071623     1.007825032230
         H           -0.908842007384     3.288912289660    -0.289899928377     1.007825032230
         H            0.258157992616     3.415912289660    -2.162899928377     1.007825032230
         H            0.491111992616     0.170606289660     3.532370071623     1.007825032230
         C           -1.125842007384    -2.604087710340    -0.621899928377    12.000000000000
         C           -2.053842007384    -3.563087710340     0.145100071623    12.000000000000
         C            0.277157992616    -3.157087710340    -0.939899928377    12.000000000000
         H           -1.595842007384    -2.304087710340    -1.556899928377     1.007825032230
         H           -1.006842007384    -1.700087710340    -0.025899928377     1.007825032230
         H           -2.988842007384    -3.039087710340     0.344100071623     1.007825032230
         H            0.208157992616    -4.027087710340    -1.590899928377     1.007825032230
         H            0.846157992616    -2.386087710340    -1.457899928377     1.007825032230
         H            0.813157992616    -3.415087710340    -0.026899928377     1.007825032230
         H           -2.278409007384    -4.455652710340    -0.457309928377     1.007825032230
         H           -1.606592007384    -3.840025010340     1.111160071623     1.007825032230

  Running in c1 symmetry.

  Rotational constants: A =      0.04404  B =      0.01874  C =      0.01560 [cm^-1]
  Rotational constants: A =   1320.24479  B =    561.72253  C =    467.58766 [MHz]
  Nuclear repulsion =  586.356403234912364

  Charge       = 0
  Multiplicity = 1
  Electrons    = 84
  Nalpha       = 42
  Nbeta        = 42

  ==> Algorithm <==

  SCF Algorithm Type is PK.
  DIIS enabled.
  MOM disabled.
  Fractional occupation disabled.
  Guess Type is SAD.
  Energy threshold   = 1.00e-06
  Density threshold  = 1.00e-10
  Integral threshold = 0.00e+00

  ==> Primary Basis <==

  Basis Set: CC-PVDZ
    Blend: CC-PVDZ
    Number of shells: 114
    Number of basis function: 234
    Number of Cartesian functions: 245
    Spherical Harmonics?: true
    Max angular momentum: 2

  ==> Pre-Iterations <==

   -------------------------------------------------------
    Irrep   Nso     Nmo     Nalpha   Nbeta   Ndocc  Nsocc
   -------------------------------------------------------
     A        234     234       0       0       0       0
   -------------------------------------------------------
    Total     234     234      42      42      42       0
   -------------------------------------------------------

  ==> Integral Setup <==

  Using integral reordering PK algorithm.
  Sizing the integral batches needed.
  Building batch lookup table.
   Calculation information:
      Number of atoms:                  27
      Number of AO shells:             114
      Number of primitives:            322
      Number of atomic orbitals:       245
      Number of basis functions:       234

      Integral cutoff                 1.00e-12
      Number of threads:                 1

	Batch   1 pq = [       0,    9405] index = [             0,44231715] size =     44231715
	Batch   2 pq = [    9405,   13301] index = [      44231715,88464951] size =     44233236
	Batch   3 pq = [   13301,   16290] index = [      88464951,132690195] size =     44225244
	Batch   4 pq = [   16290,   18810] index = [     132690195,176917455] size =     44227260
	Batch   5 pq = [   18810,   21030] index = [     176917455,221140965] size =     44223510
	Batch   6 pq = [   21030,   23037] index = [     221140965,265363203] size =     44222238
	Batch   7 pq = [   23037,   24883] index = [     265363203,309594286] size =     44231083
	Batch   8 pq = [   24883,   26601] index = [     309594286,353819901] size =     44225615
	Batch   9 pq = [   26601,   27495] index = [     353819901,378001260] size =     24181359
  Task number: 35
  Buffer size: 11059200
  Buffer per thread: 2
  We computed 20980700 shell quartets total.
  Whereas there are 21487290 unique shell quartets.

  ==> DiskJK: Disk-Based J/K Matrices <==

    J tasked:                  Yes
    K tasked:                  Yes
    wK tasked:                  No
    Memory [MiB]:              375
    Schwarz Cutoff:          1E-12

    OpenMP threads:              1

  Minimum eigenvalue in the overlap matrix is 3.2400587792E-04.
  Using Symmetric Orthogonalization.

  SCF Guess: Superposition of Atomic Densities via on-the-fly atomic UHF.

  ==> Iterations <==

                        Total Energy        Delta E     RMS |[F,P]|

   @RHF iter SAD:  -461.65058673964603   -4.61651e+02   0.00000e+00
   @RHF iter   1:  -462.60835578113426   -9.57769e-01   2.80852e-03 DIIS
   @RHF iter   2:  -462.85000515246770   -2.41649e-01   1.19327e-03 DIIS
   @RHF iter   3:  -462.88936686904117   -3.93617e-02   2.72259e-04 DIIS
   @RHF iter   4:  -462.89264249690814   -3.27563e-03   1.10614e-04 DIIS
   @RHF iter   5:  -462.89303346660881   -3.90970e-04   2.01267e-05 DIIS
   @RHF iter   6:  -462.89305313198935   -1.96654e-05   6.41943e-06 DIIS
   @RHF iter   7:  -462.89305516529618   -2.03331e-06   1.96020e-06 DIIS
   @RHF iter   8:  -462.89305543273872   -2.67443e-07   7.53451e-07 DIIS
   @RHF iter   9:  -462.89305547838762   -4.56489e-08   3.29536e-07 DIIS
   @RHF iter  10:  -462.89305548819033   -9.80270e-09   1.40908e-07 DIIS
   @RHF iter  11:  -462.89305549139567   -3.20534e-09   5.95185e-08 DIIS
   @RHF iter  12:  -462.89305549194648   -5.50813e-10   2.70603e-08 DIIS
   @RHF iter  13:  -462.89305549202129   -7.48059e-11   8.37345e-09 DIIS
   @RHF iter  14:  -462.89305549202453   -3.24007e-12   1.98321e-09 DIIS
   @RHF iter  15:  -462.89305549202146    3.06954e-12   6.77420e-10 DIIS
   @RHF iter  16:  -462.89305549202385   -2.38742e-12   2.21063e-10 DIIS
   @RHF iter  17:  -462.89305549202504   -1.19371e-12   9.52200e-11 DIIS
  Energy and wave function converged.

  ==> Post-Iterations <==

    Orbital Energies [Eh]
    ---------------------

    Doubly Occupied:

       1A    -20.585156     2A    -11.300311     3A    -11.240020
       4A    -11.239833     5A    -11.234262     6A    -11.233855
       7A    -11.231539     8A    -11.229092     9A    -11.215007
      10A    -11.213650    11A    -11.211566    12A     -1.400157
      13A     -1.151124    14A     -1.043284    15A     -1.037314
      16A     -1.018611    17A     -0.926099    18A     -0.922170
      19A     -0.845830    20A     -0.801653    21A     -0.791313
      22A     -0.730062    23A     -0.670061    24A     -0.642534
      25A     -0.620040    26A     -0.606424    27A     -0.590065
      28A     -0.587907    29A     -0.584014    30A     -0.571596
      31A     -0.569142    32A     -0.544777    33A     -0.533134
      34A     -0.527463    35A     -0.497722    36A     -0.486590
      37A     -0.471229    38A     -0.465630    39A     -0.463934
      40A     -0.458642    41A     -0.339065    42A     -0.302433

    Virtual:

      43A      0.127639    44A      0.152354    45A      0.166571
      46A      0.178339    47A      0.201876    48A      0.203278
      49A      0.215907    50A      0.232639    51A      0.243199
      52A      0.258970    53A      0.259364    54A      0.271675
      55A      0.274889    56A      0.286082    57A      0.304964
      58A      0.309660    59A      0.316525    60A      0.325685
      61A      0.370541    62A      0.371909    63A      0.377480
      64A      0.426774    65A      0.428641    66A      0.456475
      67A      0.485325    68A      0.496442    69A      0.502874
      70A      0.574061    71A      0.603207    72A      0.610126
      73A      0.611571    74A      0.627333    75A      0.633572
      76A      0.648883    77A      0.660067    78A      0.680222
      79A      0.692757    80A      0.699039    81A      0.721139
      82A      0.727707    83A      0.736245    84A      0.759735
      85A      0.764474    86A      0.775204    87A      0.787479
      88A      0.789871    89A      0.809098    90A      0.820963
      91A      0.835769    92A      0.846836    93A      0.851545
      94A      0.867203    95A      0.880121    96A      0.883916
      97A      0.890974    98A      0.892114    99A      0.898616
     100A      0.905908   101A      0.909602   102A      0.910868
     103A      0.914801   104A      0.928502   105A      0.936108
     106A      0.939517   107A      0.961118   108A      0.984822
     109A      0.988625   110A      1.002387   111A      1.007030
     112A      1.027593   113A      1.047752   114A      1.088538
     115A      1.121021   116A      1.129060   117A      1.136781
     118A      1.142546   119A      1.152512   120A      1.183741
     121A      1.199326   122A      1.245009   123A      1.247813
     124A      1.252570   125A      1.283584   126A      1.291069
     127A      1.295976   128A      1.306936   129A      1.328810
     130A      1.357963   131A      1.364251   132A      1.380141
     133A      1.385255   134A      1.464086   135A      1.469262
     136A      1.488431   137A      1.499357   138A      1.507127
     139A      1.549433   140A      1.557744   141A      1.608994
     142A      1.614965   143A      1.655023   144A      1.680547
     145A      1.685174   146A      1.686878   147A      1.695792
     148A      1.706319   149A      1.736787   150A      1.753207
     151A      1.782615   152A      1.804079   153A      1.808316
     154A      1.865817   155A      1.869094   156A      1.869624
     157A      1.878591   158A      1.895813   159A      1.902655
     160A      1.905082   161A      1.911637   162A      1.920708
     163A      1.922805   164A      1.935042   165A      1.946624
     166A      1.955033   167A      1.966893   168A      1.971695
     169A      1.980164   170A      1.986214   171A      1.991008
     172A      1.998149   173A      2.001804   174A      2.023352
     175A      2.044855   176A      2.049654   177A      2.052637
     178A      2.064282   179A      2.075473   180A      2.088296
     181A      2.126547   182A      2.138125   183A      2.146526
     184A      2.157065   185A      2.164541   186A      2.202950
     187A      2.230997   188A      2.262384   189A      2.274281
     190A      2.293281   191A      2.297941   192A      2.307765
     193A      2.327473   194A      2.339142   195A      2.360133
     196A      2.371621   197A      2.425144   198A      2.442926
     199A      2.474890   200A      2.482395   201A      2.492597
     202A      2.531832   203A      2.539050   204A      2.546402
     205A      2.585076   206A      2.601895   207A      2.615551
     208A      2.622558   209A      2.643636   210A      2.754464
     211A      2.761977   212A      2.769360   213A      2.782166
     214A      2.794833   215A      2.798019   216A      2.808183
     217A      2.841823   218A      2.842662   219A      2.903154
     220A      2.930501   221A      2.968002   222A      2.979188
     223A      2.990603   224A      3.005104   225A      3.071251
     226A      3.089961   227A      3.109298   228A      3.257002
     229A      3.276997   230A      3.334027   231A      3.580378
     232A      3.679123   233A      3.956901   234A      4.177102

    Final Occupation by Irrep:
              A
    DOCC [    42 ]

  @RHF Final Energy:  -462.89305549202504

   => Energetics <=

    Nuclear Repulsion Energy =            586.3564032349123636
    One-Electron Energy =               -1790.2302953892642563
    Two-Electron Energy =                 740.9808366623267375
    Total Energy =                       -462.8930554920250415

Computation Completed

Properties will be evaluated at   0.000000,   0.000000,   0.000000 [a0]

Properties computed using the SCF density matrix

  Nuclear Dipole Moment: [e a0]
     X:    -5.9093      Y:   -16.8113      Z:     3.7064

  Electronic Dipole Moment: [e a0]
     X:     5.4883      Y:    17.1864      Z:    -3.4051

  Dipole Moment: [e a0]
     X:    -0.4211      Y:     0.3751      Z:     0.3013     Total:     0.6393

  Dipole Moment: [D]
     X:    -1.0702      Y:     0.9533      Z:     0.7657     Total:     1.6249

*** tstop() called on ds3 at Tue Apr 28 10:40:06 2020
Module time:
	user time   =     147.49 seconds =       2.46 minutes
	system time =      54.42 seconds =       0.91 minutes
	total time  =        195 seconds =       3.25 minutes
Total time:
	user time   =     147.49 seconds =       2.46 minutes
	system time =      54.42 seconds =       0.91 minutes
	total time  =        195 seconds =       3.25 minutes
                                     G D M A

                                 by Anthony Stone

                           version 2.2.06, 22 June 2011

               Distributed Multipoles from Gaussian wavefunctions

Starting at 10:40:6 on 28 Apr 2020

Using SCF density matrix from file ./SSI/SSI-142TYR-170ILE-1-dimer.test.4024.fchk

                         Distributed Multipole Analysis

Standard DMA

Positions and radii in angstrom
Multipole moments in atomic units, ea_0^k for rank k

C          x = -0.096842  y = -0.203088  z =  2.681100 angstrom
           Maximum rank =  0   Radius =  0.650 angstrom
                   Q00  =  -0.196118

C          x =  1.133158  y =  0.107912  z =  0.494100 angstrom
           Maximum rank =  0   Radius =  0.650 angstrom
                   Q00  =  -0.011065

C          x =  0.169158  y =  0.550912  z =  1.400100 angstrom
           Maximum rank =  0   Radius =  0.650 angstrom
                   Q00  =  -0.141377

C          x =  1.362158  y =  0.800912  z = -0.697900 angstrom
           Maximum rank =  0   Radius =  0.650 angstrom
                   Q00  =  -0.126417

C          x = -0.557842  y =  1.701912  z =  1.105100 angstrom
           Maximum rank =  0   Radius =  0.650 angstrom
                   Q00  =   0.030409

C          x =  0.629158  y =  1.948912  z = -0.978900 angstrom
           Maximum rank =  0   Radius =  0.650 angstrom
                   Q00  =   0.316443

C          x = -0.331842  y =  2.403912  z = -0.076900 angstrom
           Maximum rank =  0   Radius =  0.650 angstrom
                   Q00  =  -0.183392

O          x =  0.844158  y =  2.640912  z = -2.132900 angstrom
           Maximum rank =  0   Radius =  0.650 angstrom
                   Q00  =  -0.673591

H          x =  1.703158  y = -0.786088  z =  0.707100 angstrom
           Maximum rank =  0   Radius =  0.325 angstrom
                   Q00  =   0.066435

H          x =  2.104158  y =  0.453912  z = -1.400900 angstrom
           Maximum rank =  0   Radius =  0.325 angstrom
                   Q00  =   0.081080

H          x =  0.125158  y = -1.259088  z =  2.530100 angstrom
           Maximum rank =  0   Radius =  0.325 angstrom
                   Q00  =   0.095784

H          x = -1.159842  y = -0.119088  z =  2.914100 angstrom
           Maximum rank =  0   Radius =  0.325 angstrom
                   Q00  =   0.094798

H          x = -1.311842  y =  2.055912  z =  1.795100 angstrom
           Maximum rank =  0   Radius =  0.325 angstrom
                   Q00  =   0.068770

H          x = -0.908842  y =  3.288912  z = -0.289900 angstrom
           Maximum rank =  0   Radius =  0.325 angstrom
                   Q00  =   0.071171

H          x =  0.258158  y =  3.415912  z = -2.162900 angstrom
           Maximum rank =  0   Radius =  0.325 angstrom
                   Q00  =   0.407716

H          x =  0.491112  y =  0.170606  z =  3.532370 angstrom
           Maximum rank =  0   Radius =  0.325 angstrom
                   Q00  =   0.101955

C          x = -1.125842  y = -2.604088  z = -0.621900 angstrom
           Maximum rank =  0   Radius =  0.650 angstrom
                   Q00  =  -0.073570

C          x = -2.053842  y = -3.563088  z =  0.145100 angstrom
           Maximum rank =  0   Radius =  0.650 angstrom
                   Q00  =  -0.254923

C          x =  0.277158  y = -3.157088  z = -0.939900 angstrom
           Maximum rank =  0   Radius =  0.650 angstrom
                   Q00  =  -0.253806

H          x = -1.595842  y = -2.304088  z = -1.556900 angstrom
           Maximum rank =  0   Radius =  0.325 angstrom
                   Q00  =   0.049880

H          x = -1.006842  y = -1.700088  z = -0.025900 angstrom
           Maximum rank =  0   Radius =  0.325 angstrom
                   Q00  =   0.058562

H          x = -2.988842  y = -3.039088  z =  0.344100 angstrom
           Maximum rank =  0   Radius =  0.325 angstrom
                   Q00  =   0.082894

H          x =  0.208158  y = -4.027088  z = -1.590900 angstrom
           Maximum rank =  0   Radius =  0.325 angstrom
                   Q00  =   0.078350

H          x =  0.846158  y = -2.386088  z = -1.457900 angstrom
           Maximum rank =  0   Radius =  0.325 angstrom
                   Q00  =   0.086352

H          x =  0.813158  y = -3.415088  z = -0.026900 angstrom
           Maximum rank =  0   Radius =  0.325 angstrom
                   Q00  =   0.071480

H          x = -2.278409  y = -4.455653  z = -0.457310 angstrom
           Maximum rank =  0   Radius =  0.325 angstrom
                   Q00  =   0.077093

H          x = -1.606592  y = -3.840025  z =  1.111160 angstrom
           Maximum rank =  0   Radius =  0.325 angstrom
                   Q00  =   0.075085

Total multipoles referred to origin at
           x =   0.000000,  y =    0.000000,  z =    0.000000 angstrom
                   Q00  =  -0.000000

Finished at 10:40:6 on 28 Apr 2020

  DMA results are available in the Python driver through the
	  variable('DMA DISTRIBUTED MULTIPOLES')
  and
	  variable('DMA TOTAL MULTIPOLES')
  commands.

    Psi4 stopped on: Tuesday, 28 April 2020 10:40AM
    Psi4 wall time for execution: 0:03:14.87

*** Psi4 exiting successfully. Buy a developer a beer!
