                               Psi4 1.3.2 release

  ==> Input File <==

--------------------------------------------------------------------------
import numpy as np
set {scf_type pk
basis cc-pvdz
d_convergence 10
gdma_switch   0
gdma_limit    0
gdma_origin   [ 0.0,  0.0,  0.0 ]
}
molecule test {
    units Angstrom
    0 1
    --
    0 1
    C               -1.801398430062395     0.493272358399406     0.174164359003760
    C               -3.211398430062395     0.514272358399406    -0.441835640996240
    H               -1.131398430062395    -0.081727641600594    -0.464835640996240
    H               -1.410398430062395     1.505272358399406     0.278164359003760
    H               -1.816398430062395     0.053272358399406     1.172164359003760
    H               -3.866398430062395     1.040272358399406     0.254164359003759
    H               -3.610228430062395    -0.499907641600594    -0.591398740996240
    H               -3.210688430062395     1.054882358399406    -1.399825740996240
    C                1.933601569937605    -0.123727641600594    -0.198835640996240
    C                3.081601569937605    -0.882727641600594     0.464164359003760
    H                2.178601569937605     0.932272358399406    -0.303835640996240
    H                1.739601569937605    -0.541727641600594    -1.187835640996241
    H                1.035601569937605    -0.219727641600594     0.409164359003760
    H                2.826601569937605    -1.941727641600594     0.479164359003760
    H                3.224121569937605    -0.530577641600594     1.496481359003760
    H                4.012331569937606    -0.783547641600594    -0.113679240996240

}
e, wfn = energy('scf', return_wfn=True)
gdma(wfn)
dmavals = variable('DMA DISTRIBUTED MULTIPOLES')
charges = np.array(dmavals)
print(charges)
np.save('SSI-026ILE-078ALA-1-dimer.npy', np.array(charges))--------------------------------------------------------------------------

*** tstart() called on ds3
*** at Mon Apr 27 06:34:08 2020

   => Loading Basis Set <=

    Name: CC-PVDZ
    Role: ORBITAL
    Keyword: BASIS
    atoms 1-2, 9-10  entry C          line   138 file /theoryfs2/ds/metcalf/miniconda2/envs/tf2gpu/share/psi4/basis/cc-pvdz.gbs
    atoms 3-8, 11-16 entry H          line    22 file /theoryfs2/ds/metcalf/miniconda2/envs/tf2gpu/share/psi4/basis/cc-pvdz.gbs

         ---------------------------------------------------------
                                   SCF
               by Justin Turney, Rob Parrish, Andy Simmonett
                          and Daniel G. A. Smith
                              RHF Reference
                        1 Threads,    500 MiB Core
         ---------------------------------------------------------

  ==> Geometry <==

    Molecular point group: c1
    Full point group: C1

    Geometry (in Angstrom), charge = 0, multiplicity = 1:

       Center              X                  Y                   Z               Mass
    ------------   -----------------  -----------------  -----------------  -----------------
         C           -1.801398430062     0.493272358399     0.174164359004    12.000000000000
         C           -3.211398430062     0.514272358399    -0.441835640996    12.000000000000
         H           -1.131398430062    -0.081727641601    -0.464835640996     1.007825032230
         H           -1.410398430062     1.505272358399     0.278164359004     1.007825032230
         H           -1.816398430062     0.053272358399     1.172164359004     1.007825032230
         H           -3.866398430062     1.040272358399     0.254164359004     1.007825032230
         H           -3.610228430062    -0.499907641601    -0.591398740996     1.007825032230
         H           -3.210688430062     1.054882358399    -1.399825740996     1.007825032230
         C            1.933601569938    -0.123727641601    -0.198835640996    12.000000000000
         C            3.081601569938    -0.882727641601     0.464164359004    12.000000000000
         H            2.178601569938     0.932272358399    -0.303835640996     1.007825032230
         H            1.739601569938    -0.541727641601    -1.187835640996     1.007825032230
         H            1.035601569938    -0.219727641601     0.409164359004     1.007825032230
         H            2.826601569938    -1.941727641601     0.479164359004     1.007825032230
         H            3.224121569938    -0.530577641601     1.496481359004     1.007825032230
         H            4.012331569938    -0.783547641601    -0.113679240996     1.007825032230

  Running in c1 symmetry.

  Rotational constants: A =      0.83173  B =      0.03841  C =      0.03812 [cm^-1]
  Rotational constants: A =  24934.50539  B =   1151.39489  C =   1142.71479 [MHz]
  Nuclear repulsion =  119.095685982476567

  Charge       = 0
  Multiplicity = 1
  Electrons    = 36
  Nalpha       = 18
  Nbeta        = 18

  ==> Algorithm <==

  SCF Algorithm Type is PK.
  DIIS enabled.
  MOM disabled.
  Fractional occupation disabled.
  Guess Type is SAD.
  Energy threshold   = 1.00e-06
  Density threshold  = 1.00e-10
  Integral threshold = 0.00e+00

  ==> Primary Basis <==

  Basis Set: CC-PVDZ
    Blend: CC-PVDZ
    Number of shells: 60
    Number of basis function: 116
    Number of Cartesian functions: 120
    Spherical Harmonics?: true
    Max angular momentum: 2

  ==> Pre-Iterations <==

   -------------------------------------------------------
    Irrep   Nso     Nmo     Nalpha   Nbeta   Ndocc  Nsocc
   -------------------------------------------------------
     A        116     116       0       0       0       0
   -------------------------------------------------------
    Total     116     116      18      18      18       0
   -------------------------------------------------------

  ==> Integral Setup <==

  Using integral reordering PK algorithm.
  Sizing the integral batches needed.
  Building batch lookup table.
   Calculation information:
      Number of atoms:                  16
      Number of AO shells:              60
      Number of primitives:            148
      Number of atomic orbitals:       120
      Number of basis functions:       116

      Integral cutoff                 1.00e-12
      Number of threads:                 1

	Batch   1 pq = [       0,    6786] index = [             0,23028291] size =     23028291
  Task number: 3
  Buffer size: 11059200
  Buffer per thread: 2
  We computed 1318927 shell quartets total.
  Whereas there are 1675365 unique shell quartets.

  ==> DiskJK: Disk-Based J/K Matrices <==

    J tasked:                  Yes
    K tasked:                  Yes
    wK tasked:                  No
    Memory [MiB]:              375
    Schwarz Cutoff:          1E-12

    OpenMP threads:              1

  Minimum eigenvalue in the overlap matrix is 6.1949259880E-03.
  Using Symmetric Orthogonalization.

  SCF Guess: Superposition of Atomic Densities via on-the-fly atomic UHF.

  ==> Iterations <==

                        Total Energy        Delta E     RMS |[F,P]|

   @RHF iter SAD:  -157.32903583082043   -1.57329e+02   0.00000e+00
   @RHF iter   1:  -158.30922830549582   -9.80192e-01   4.19311e-03 DIIS
   @RHF iter   2:  -158.44165657996496   -1.32428e-01   1.78506e-03 DIIS
   @RHF iter   3:  -158.46481357369663   -2.31570e-02   3.49485e-04 DIIS
   @RHF iter   4:  -158.46664920016428   -1.83563e-03   3.92988e-05 DIIS
   @RHF iter   5:  -158.46667361679812   -2.44166e-05   6.91603e-06 DIIS
   @RHF iter   6:  -158.46667430505209   -6.88254e-07   1.31950e-06 DIIS
   @RHF iter   7:  -158.46667432165839   -1.66063e-08   3.33375e-07 DIIS
   @RHF iter   8:  -158.46667432274685   -1.08847e-09   4.41401e-08 DIIS
   @RHF iter   9:  -158.46667432278096   -3.41061e-11   8.71461e-09 DIIS
   @RHF iter  10:  -158.46667432278187   -9.09495e-13   2.29137e-09 DIIS
   @RHF iter  11:  -158.46667432278235   -4.83169e-13   6.30049e-10 DIIS
   @RHF iter  12:  -158.46667432278258   -2.27374e-13   1.61355e-10 DIIS
   @RHF iter  13:  -158.46667432278267   -8.52651e-14   2.58903e-11 DIIS
  Energy and wave function converged.

  ==> Post-Iterations <==

    Orbital Energies [Eh]
    ---------------------

    Doubly Occupied:

       1A    -11.220204     2A    -11.218412     3A    -11.217411
       4A    -11.215441     5A     -1.017992     6A     -1.014716
       7A     -0.840416     8A     -0.834065     9A     -0.599680
      10A     -0.598427    11A     -0.594334    12A     -0.593101
      13A     -0.505479    14A     -0.498544    15A     -0.488287
      16A     -0.486135    17A     -0.485454    18A     -0.477119

    Virtual:

      19A      0.178604    20A      0.192812    21A      0.223009
      22A      0.233767    23A      0.245509    24A      0.261675
      25A      0.263458    26A      0.275962    27A      0.282445
      28A      0.289552    29A      0.302408    30A      0.311513
      31A      0.396026    32A      0.410966    33A      0.576832
      34A      0.593608    35A      0.597708    36A      0.602070
      37A      0.604815    38A      0.654194    39A      0.670058
      40A      0.689488    41A      0.706951    42A      0.745148
      43A      0.852966    44A      0.872355    45A      0.888919
      46A      0.891863    47A      0.891964    48A      0.894273
      49A      0.895649    50A      0.904192    51A      0.908968
      52A      0.916673    53A      0.930901    54A      0.942897
      55A      0.975267    56A      1.007958    57A      1.122436
      58A      1.127780    59A      1.132931    60A      1.143580
      61A      1.226812    62A      1.251181    63A      1.461067
      64A      1.474172    65A      1.474661    66A      1.484639
      67A      1.579430    68A      1.584865    69A      1.681328
      70A      1.683351    71A      1.694457    72A      1.696314
      73A      1.851052    74A      1.866319    75A      1.869438
      76A      1.884615    77A      1.885935    78A      1.911468
      79A      1.929093    80A      1.934078    81A      1.938674
      82A      1.945580    83A      1.946912    84A      1.952894
      85A      1.954979    86A      1.967141    87A      2.006299
      88A      2.029846    89A      2.083908    90A      2.096825
      91A      2.116808    92A      2.124627    93A      2.299177
      94A      2.308111    95A      2.316547    96A      2.331925
      97A      2.440966    98A      2.458405    99A      2.463036
     100A      2.471910   101A      2.544848   102A      2.565004
     103A      2.572466   104A      2.575646   105A      2.753522
     106A      2.761110   107A      2.774762   108A      2.801659
     109A      2.849918   110A      2.856225   111A      2.857811
     112A      2.865489   113A      2.939568   114A      2.941042
     115A      2.948926   116A      2.982197

    Final Occupation by Irrep:
              A
    DOCC [    18 ]

  @RHF Final Energy:  -158.46667432278267

   => Energetics <=

    Nuclear Repulsion Energy =            119.0956859824765672
    One-Electron Energy =                -447.3142888005999112
    Two-Electron Energy =                 169.7519284953407066
    Total Energy =                       -158.4666743227826657

Computation Completed

Properties will be evaluated at   0.000000,   0.000000,   0.000000 [a0]

Properties computed using the SCF density matrix

  Nuclear Dipole Moment: [e a0]
     X:    -0.0269      Y:    -0.0122      Z:     0.0261

  Electronic Dipole Moment: [e a0]
     X:     0.0153      Y:     0.0132      Z:    -0.0217

  Dipole Moment: [e a0]
     X:    -0.0115      Y:     0.0010      Z:     0.0044     Total:     0.0124

  Dipole Moment: [D]
     X:    -0.0293      Y:     0.0026      Z:     0.0112     Total:     0.0315

*** tstop() called on ds3 at Mon Apr 27 06:34:18 2020
Module time:
	user time   =       6.95 seconds =       0.12 minutes
	system time =       3.18 seconds =       0.05 minutes
	total time  =         10 seconds =       0.17 minutes
Total time:
	user time   =       6.95 seconds =       0.12 minutes
	system time =       3.18 seconds =       0.05 minutes
	total time  =         10 seconds =       0.17 minutes
                                     G D M A

                                 by Anthony Stone

                           version 2.2.06, 22 June 2011

               Distributed Multipoles from Gaussian wavefunctions

Starting at 6:34:18 on 27 Apr 2020

Using SCF density matrix from file ./SSI/SSI-026ILE-078ALA-1-dimer.test.8382.fchk

                         Distributed Multipole Analysis

Standard DMA

Positions and radii in angstrom
Multipole moments in atomic units, ea_0^k for rank k

C          x = -1.801398  y =  0.493272  z =  0.174164 angstrom
           Maximum rank =  0   Radius =  0.650 angstrom
                   Q00  =  -0.253819

C          x = -3.211398  y =  0.514272  z = -0.441836 angstrom
           Maximum rank =  0   Radius =  0.650 angstrom
                   Q00  =  -0.227350

H          x = -1.131398  y = -0.081728  z = -0.464836 angstrom
           Maximum rank =  0   Radius =  0.325 angstrom
                   Q00  =   0.081365

H          x = -1.410398  y =  1.505272  z =  0.278164 angstrom
           Maximum rank =  0   Radius =  0.325 angstrom
                   Q00  =   0.081269

H          x = -1.816398  y =  0.053272  z =  1.172164 angstrom
           Maximum rank =  0   Radius =  0.325 angstrom
                   Q00  =   0.078715

H          x = -3.866398  y =  1.040272  z =  0.254164 angstrom
           Maximum rank =  0   Radius =  0.325 angstrom
                   Q00  =   0.077872

H          x = -3.610228  y = -0.499908  z = -0.591399 angstrom
           Maximum rank =  0   Radius =  0.325 angstrom
                   Q00  =   0.081800

H          x = -3.210688  y =  1.054882  z = -1.399826 angstrom
           Maximum rank =  0   Radius =  0.325 angstrom
                   Q00  =   0.081759

C          x =  1.933602  y = -0.123728  z = -0.198836 angstrom
           Maximum rank =  0   Radius =  0.650 angstrom
                   Q00  =  -0.235013

C          x =  3.081602  y = -0.882728  z =  0.464164 angstrom
           Maximum rank =  0   Radius =  0.650 angstrom
                   Q00  =  -0.240535

H          x =  2.178602  y =  0.932272  z = -0.303836 angstrom
           Maximum rank =  0   Radius =  0.325 angstrom
                   Q00  =   0.079426

H          x =  1.739602  y = -0.541728  z = -1.187836 angstrom
           Maximum rank =  0   Radius =  0.325 angstrom
                   Q00  =   0.076717

H          x =  1.035602  y = -0.219728  z =  0.409164 angstrom
           Maximum rank =  0   Radius =  0.325 angstrom
                   Q00  =   0.082978

H          x =  2.826602  y = -1.941728  z =  0.479164 angstrom
           Maximum rank =  0   Radius =  0.325 angstrom
                   Q00  =   0.076841

H          x =  3.224122  y = -0.530578  z =  1.496481 angstrom
           Maximum rank =  0   Radius =  0.325 angstrom
                   Q00  =   0.079392

H          x =  4.012332  y = -0.783548  z = -0.113679 angstrom
           Maximum rank =  0   Radius =  0.325 angstrom
                   Q00  =   0.078584

Total multipoles referred to origin at
           x =   0.000000,  y =    0.000000,  z =    0.000000 angstrom
                   Q00  =  -0.000000

Finished at 6:34:18 on 27 Apr 2020

  DMA results are available in the Python driver through the
	  variable('DMA DISTRIBUTED MULTIPOLES')
  and
	  variable('DMA TOTAL MULTIPOLES')
  commands.

    Psi4 stopped on: Monday, 27 April 2020 06:34AM
    Psi4 wall time for execution: 0:00:10.23

*** Psi4 exiting successfully. Buy a developer a beer!
