                               Psi4 1.3.2 release

  ==> Input File <==

--------------------------------------------------------------------------
import numpy as np
set {scf_type pk
basis cc-pvdz
d_convergence 10
gdma_switch   0
gdma_limit    0
gdma_origin   [ 0.0,  0.0,  0.0 ]
}
molecule test {
    units Angstrom
    0 1
    --
    0 1
    C                0.221593926989349    -1.177811573129748    -1.257337630407699
    C                0.704593926989349     0.202188426870252    -1.720337630407699
    C                1.338593926989349    -2.169811573129748    -0.903337630407699
    H               -0.424406073010651    -1.053811573129749    -0.388337630407699
    H               -0.386406073010651    -1.620811573129748    -2.048337630407699
    H                1.274593926989349     0.675188426870251    -0.919337630407699
    H                1.941593926989349    -2.375811573129749    -1.787337630407699
    H               -0.150306073010651     0.849408426870252    -1.965787630407699
    H                1.366383926989349     0.094538426870252    -2.592367630407699
    H                1.986243926989349    -1.754391573129748    -0.117217630407699
    H                0.891723926989349    -3.116981573129749    -0.566917630407699
    C               -0.955406073010651     0.818188426870252     1.695662369592301
    C               -1.289406073010651     2.251188426870252     2.105662369592301
    H               -0.697406073010651     0.219188426870252     2.570662369592301
    H               -1.811406073010651     0.368188426870252     1.192662369592301
    H               -0.105406073010651     0.827188426870251     1.014662369592301
    H               -1.580406073010651     2.806188426870252     1.215662369592301
    H               -0.398896073010651     2.726978426870251     2.542242369592301
    H               -2.143676073010651     2.260548426870251     2.798582369592301

}
e, wfn = energy('scf', return_wfn=True)
gdma(wfn)
dmavals = variable('DMA DISTRIBUTED MULTIPOLES')
charges = np.array(dmavals)
print(charges)
np.save('SSI-062LEU-077ALA-1-dimer.npy', np.array(charges))--------------------------------------------------------------------------

*** tstart() called on ds3
*** at Mon Apr 27 07:12:43 2020

   => Loading Basis Set <=

    Name: CC-PVDZ
    Role: ORBITAL
    Keyword: BASIS
    atoms 1-3, 12-13  entry C          line   138 file /theoryfs2/ds/metcalf/miniconda2/envs/tf2gpu/share/psi4/basis/cc-pvdz.gbs
    atoms 4-11, 14-19 entry H          line    22 file /theoryfs2/ds/metcalf/miniconda2/envs/tf2gpu/share/psi4/basis/cc-pvdz.gbs

         ---------------------------------------------------------
                                   SCF
               by Justin Turney, Rob Parrish, Andy Simmonett
                          and Daniel G. A. Smith
                              RHF Reference
                        1 Threads,    500 MiB Core
         ---------------------------------------------------------

  ==> Geometry <==

    Molecular point group: c1
    Full point group: C1

    Geometry (in Angstrom), charge = 0, multiplicity = 1:

       Center              X                  Y                   Z               Mass
    ------------   -----------------  -----------------  -----------------  -----------------
         C            0.221593926989    -1.177811573130    -1.257337630408    12.000000000000
         C            0.704593926989     0.202188426870    -1.720337630408    12.000000000000
         C            1.338593926989    -2.169811573130    -0.903337630408    12.000000000000
         H           -0.424406073011    -1.053811573130    -0.388337630408     1.007825032230
         H           -0.386406073011    -1.620811573130    -2.048337630408     1.007825032230
         H            1.274593926989     0.675188426870    -0.919337630408     1.007825032230
         H            1.941593926989    -2.375811573130    -1.787337630408     1.007825032230
         H           -0.150306073011     0.849408426870    -1.965787630408     1.007825032230
         H            1.366383926989     0.094538426870    -2.592367630408     1.007825032230
         H            1.986243926989    -1.754391573130    -0.117217630408     1.007825032230
         H            0.891723926989    -3.116981573130    -0.566917630408     1.007825032230
         C           -0.955406073011     0.818188426870     1.695662369592    12.000000000000
         C           -1.289406073011     2.251188426870     2.105662369592    12.000000000000
         H           -0.697406073011     0.219188426870     2.570662369592     1.007825032230
         H           -1.811406073011     0.368188426870     1.192662369592     1.007825032230
         H           -0.105406073011     0.827188426870     1.014662369592     1.007825032230
         H           -1.580406073011     2.806188426870     1.215662369592     1.007825032230
         H           -0.398896073011     2.726978426870     2.542242369592     1.007825032230
         H           -2.143676073011     2.260548426870     2.798582369592     1.007825032230

  Running in c1 symmetry.

  Rotational constants: A =      0.24094  B =      0.04098  C =      0.03733 [cm^-1]
  Rotational constants: A =   7223.07186  B =   1228.62135  C =   1118.97993 [MHz]
  Nuclear repulsion =  178.901304122445850

  Charge       = 0
  Multiplicity = 1
  Electrons    = 44
  Nalpha       = 22
  Nbeta        = 22

  ==> Algorithm <==

  SCF Algorithm Type is PK.
  DIIS enabled.
  MOM disabled.
  Fractional occupation disabled.
  Guess Type is SAD.
  Energy threshold   = 1.00e-06
  Density threshold  = 1.00e-10
  Integral threshold = 0.00e+00

  ==> Primary Basis <==

  Basis Set: CC-PVDZ
    Blend: CC-PVDZ
    Number of shells: 72
    Number of basis function: 140
    Number of Cartesian functions: 145
    Spherical Harmonics?: true
    Max angular momentum: 2

  ==> Pre-Iterations <==

   -------------------------------------------------------
    Irrep   Nso     Nmo     Nalpha   Nbeta   Ndocc  Nsocc
   -------------------------------------------------------
     A        140     140       0       0       0       0
   -------------------------------------------------------
    Total     140     140      22      22      22       0
   -------------------------------------------------------

  ==> Integral Setup <==

  Using integral reordering PK algorithm.
  Sizing the integral batches needed.
  Building batch lookup table.
   Calculation information:
      Number of atoms:                  19
      Number of AO shells:              72
      Number of primitives:            180
      Number of atomic orbitals:       145
      Number of basis functions:       140

      Integral cutoff                 1.00e-12
      Number of threads:                 1

	Batch   1 pq = [       0,    9405] index = [             0,44231715] size =     44231715
	Batch   2 pq = [    9405,    9870] index = [      44231715,48713385] size =      4481670
  Task number: 5
  Buffer size: 11059200
  Buffer per thread: 2
  We computed 2911050 shell quartets total.
  Whereas there are 3454506 unique shell quartets.

  ==> DiskJK: Disk-Based J/K Matrices <==

    J tasked:                  Yes
    K tasked:                  Yes
    wK tasked:                  No
    Memory [MiB]:              375
    Schwarz Cutoff:          1E-12

    OpenMP threads:              1

  Minimum eigenvalue in the overlap matrix is 5.7252116058E-03.
  Using Symmetric Orthogonalization.

  SCF Guess: Superposition of Atomic Densities via on-the-fly atomic UHF.

  ==> Iterations <==

                        Total Energy        Delta E     RMS |[F,P]|

   @RHF iter SAD:  -196.34506814823985   -1.96345e+02   0.00000e+00
   @RHF iter   1:  -197.31384161555275   -9.68773e-01   3.77814e-03 DIIS
   @RHF iter   2:  -197.47297004151733   -1.59128e-01   1.61860e-03 DIIS
   @RHF iter   3:  -197.50073763473938   -2.77676e-02   3.24868e-04 DIIS
   @RHF iter   4:  -197.50295760765152   -2.21997e-03   4.85230e-05 DIIS
   @RHF iter   5:  -197.50299638305634   -3.87754e-05   1.49445e-05 DIIS
   @RHF iter   6:  -197.50299981585039   -3.43279e-06   2.44435e-06 DIIS
   @RHF iter   7:  -197.50299992595768   -1.10107e-07   4.80545e-07 DIIS
   @RHF iter   8:  -197.50299993083868   -4.88100e-09   1.27556e-07 DIIS
   @RHF iter   9:  -197.50299993116678   -3.28100e-10   4.05624e-08 DIIS
   @RHF iter  10:  -197.50299993120566   -3.88809e-11   8.48738e-09 DIIS
   @RHF iter  11:  -197.50299993120791   -2.24532e-12   1.56660e-09 DIIS
   @RHF iter  12:  -197.50299993120822   -3.12639e-13   2.85424e-10 DIIS
   @RHF iter  13:  -197.50299993120871   -4.83169e-13   5.02693e-11 DIIS
  Energy and wave function converged.

  ==> Post-Iterations <==

    Orbital Energies [Eh]
    ---------------------

    Doubly Occupied:

       1A    -11.219308     2A    -11.219083     3A    -11.218385
       4A    -11.217694     5A    -11.216652     6A     -1.049788
       7A     -1.019202     8A     -0.924323     9A     -0.836768
      10A     -0.795167    11A     -0.625114    12A     -0.601009
      13A     -0.596805    14A     -0.591762    15A     -0.549270
      16A     -0.532109    17A     -0.500047    18A     -0.488763
      19A     -0.484197    20A     -0.472165    21A     -0.466727
      22A     -0.464952

    Virtual:

      23A      0.170740    24A      0.196054    25A      0.220081
      26A      0.225770    27A      0.233353    28A      0.249476
      29A      0.259309    30A      0.268188    31A      0.272817
      32A      0.282256    33A      0.294602    34A      0.302066
      35A      0.321541    36A      0.343958    37A      0.366065
      38A      0.415823    39A      0.431032    40A      0.569951
      41A      0.589135    42A      0.601946    43A      0.607982
      44A      0.614714    45A      0.623014    46A      0.638834
      47A      0.650156    48A      0.691488    49A      0.761430
      50A      0.797007    51A      0.805871    52A      0.839988
      53A      0.874209    54A      0.877609    55A      0.887382
      56A      0.890603    57A      0.895472    58A      0.899042
      59A      0.901015    60A      0.905739    61A      0.912627
      62A      0.918402    63A      0.926728    64A      0.943801
      65A      0.947288    66A      0.979415    67A      0.990515
      68A      1.046336    69A      1.123226    70A      1.124331
      71A      1.130700    72A      1.160408    73A      1.218860
      74A      1.279157    75A      1.369731    76A      1.464244
      77A      1.475364    78A      1.482870    79A      1.499655
      80A      1.511954    81A      1.576880    82A      1.629669
      83A      1.675552    84A      1.679631    85A      1.685429
      86A      1.691686    87A      1.706570    88A      1.849259
      89A      1.851353    90A      1.861424    91A      1.876566
      92A      1.884813    93A      1.911814    94A      1.917965
      95A      1.927826    96A      1.931501    97A      1.947261
      98A      1.949750    99A      1.961668   100A      1.964570
     101A      1.968880   102A      1.979565   103A      1.984729
     104A      1.991838   105A      2.016932   106A      2.030277
     107A      2.036606   108A      2.100842   109A      2.119122
     110A      2.127066   111A      2.157323   112A      2.286017
     113A      2.294992   114A      2.304091   115A      2.312697
     116A      2.331456   117A      2.336581   118A      2.462861
     119A      2.469651   120A      2.492510   121A      2.527137
     122A      2.565970   123A      2.572180   124A      2.591680
     125A      2.614405   126A      2.617122   127A      2.750650
     128A      2.753987   129A      2.762995   130A      2.782006
     131A      2.797349   132A      2.807556   133A      2.844620
     134A      2.857939   135A      2.923355   136A      2.948980
     137A      2.964071   138A      2.970148   139A      2.983850
     140A      3.070637

    Final Occupation by Irrep:
              A
    DOCC [    22 ]

  @RHF Final Energy:  -197.50299993120871

   => Energetics <=

    Nuclear Repulsion Energy =            178.9013041224458505
    One-Electron Energy =                -618.6300248739098606
    Two-Electron Energy =                 242.2257208202553329
    Total Energy =                       -197.5029999312087057

Computation Completed

Properties will be evaluated at   0.000000,   0.000000,   0.000000 [a0]

Properties computed using the SCF density matrix

  Nuclear Dipole Moment: [e a0]
     X:    -0.2229      Y:     0.8490      Z:     0.8895

  Electronic Dipole Moment: [e a0]
     X:     0.1872      Y:    -0.8573      Z:    -0.8949

  Dipole Moment: [e a0]
     X:    -0.0357      Y:    -0.0083      Z:    -0.0054     Total:     0.0371

  Dipole Moment: [D]
     X:    -0.0907      Y:    -0.0211      Z:    -0.0138     Total:     0.0942

*** tstop() called on ds3 at Mon Apr 27 07:13:04 2020
Module time:
	user time   =      15.23 seconds =       0.25 minutes
	system time =       6.49 seconds =       0.11 minutes
	total time  =         21 seconds =       0.35 minutes
Total time:
	user time   =      15.23 seconds =       0.25 minutes
	system time =       6.49 seconds =       0.11 minutes
	total time  =         21 seconds =       0.35 minutes
                                     G D M A

                                 by Anthony Stone

                           version 2.2.06, 22 June 2011

               Distributed Multipoles from Gaussian wavefunctions

Starting at 7:13:4 on 27 Apr 2020

Using SCF density matrix from file ./SSI/SSI-062LEU-077ALA-1-dimer.test.26230.fchk

                         Distributed Multipole Analysis

Standard DMA

Positions and radii in angstrom
Multipole moments in atomic units, ea_0^k for rank k

C          x =  0.221594  y = -1.177812  z = -1.257338 angstrom
           Maximum rank =  0   Radius =  0.650 angstrom
                   Q00  =  -0.078592

C          x =  0.704594  y =  0.202188  z = -1.720338 angstrom
           Maximum rank =  0   Radius =  0.650 angstrom
                   Q00  =  -0.250166

C          x =  1.338594  y = -2.169812  z = -0.903338 angstrom
           Maximum rank =  0   Radius =  0.650 angstrom
                   Q00  =  -0.246532

H          x = -0.424406  y = -1.053812  z = -0.388338 angstrom
           Maximum rank =  0   Radius =  0.325 angstrom
                   Q00  =   0.052293

H          x = -0.386406  y = -1.620812  z = -2.048338 angstrom
           Maximum rank =  0   Radius =  0.325 angstrom
                   Q00  =   0.045115

H          x =  1.274594  y =  0.675188  z = -0.919338 angstrom
           Maximum rank =  0   Radius =  0.325 angstrom
                   Q00  =   0.074495

H          x =  1.941594  y = -2.375812  z = -1.787338 angstrom
           Maximum rank =  0   Radius =  0.325 angstrom
                   Q00  =   0.077186

H          x = -0.150306  y =  0.849408  z = -1.965788 angstrom
           Maximum rank =  0   Radius =  0.325 angstrom
                   Q00  =   0.085872

H          x =  1.366384  y =  0.094538  z = -2.592368 angstrom
           Maximum rank =  0   Radius =  0.325 angstrom
                   Q00  =   0.077905

H          x =  1.986244  y = -1.754392  z = -0.117218 angstrom
           Maximum rank =  0   Radius =  0.325 angstrom
                   Q00  =   0.076363

H          x =  0.891724  y = -3.116982  z = -0.566918 angstrom
           Maximum rank =  0   Radius =  0.325 angstrom
                   Q00  =   0.085038

C          x = -0.955406  y =  0.818188  z =  1.695662 angstrom
           Maximum rank =  0   Radius =  0.650 angstrom
                   Q00  =  -0.239699

C          x = -1.289406  y =  2.251188  z =  2.105662 angstrom
           Maximum rank =  0   Radius =  0.650 angstrom
                   Q00  =  -0.233955

H          x = -0.697406  y =  0.219188  z =  2.570662 angstrom
           Maximum rank =  0   Radius =  0.325 angstrom
                   Q00  =   0.079541

H          x = -1.811406  y =  0.368188  z =  1.192662 angstrom
           Maximum rank =  0   Radius =  0.325 angstrom
                   Q00  =   0.077049

H          x = -0.105406  y =  0.827188  z =  1.014662 angstrom
           Maximum rank =  0   Radius =  0.325 angstrom
                   Q00  =   0.080554

H          x = -1.580406  y =  2.806188  z =  1.215662 angstrom
           Maximum rank =  0   Radius =  0.325 angstrom
                   Q00  =   0.077726

H          x = -0.398896  y =  2.726978  z =  2.542242 angstrom
           Maximum rank =  0   Radius =  0.325 angstrom
                   Q00  =   0.079701

H          x = -2.143676  y =  2.260548  z =  2.798582 angstrom
           Maximum rank =  0   Radius =  0.325 angstrom
                   Q00  =   0.080104

Total multipoles referred to origin at
           x =   0.000000,  y =    0.000000,  z =    0.000000 angstrom
                   Q00  =  -0.000000

Finished at 7:13:5 on 27 Apr 2020

  DMA results are available in the Python driver through the
	  variable('DMA DISTRIBUTED MULTIPOLES')
  and
	  variable('DMA TOTAL MULTIPOLES')
  commands.

    Psi4 stopped on: Monday, 27 April 2020 07:13AM
    Psi4 wall time for execution: 0:00:21.92

*** Psi4 exiting successfully. Buy a developer a beer!
