                               Psi4 1.3.2 release

  ==> Input File <==

--------------------------------------------------------------------------
import numpy as np
set {scf_type pk
basis cc-pvdz
d_convergence 10
gdma_switch   0
gdma_limit    0
gdma_origin   [ 0.0,  0.0,  0.0 ]
}
molecule test {
    units Angstrom
    -1 1
    --
    -1 1
    C               -0.540349253155710    -1.282950127572034     0.742544229214892
    C                0.853650746844290    -1.515950127572034     1.411544229214892
    C               -0.499349253155710    -1.106950127572034    -0.773455770785108
    O                0.558650746844290    -1.328950127572034    -1.403455770785109
    O               -1.552349253155711    -0.759950127572034    -1.347455770785108
    H               -1.186349253155710    -2.132950127572034     0.967544229214892
    H               -0.993349253155710    -0.395950127572034     1.188544229214892
    H                1.542650746844290    -0.737950127572034     1.082544229214891
    H                1.249650746844290    -2.486950127572034     1.107544229214892
    H                0.773820746844290    -1.471760127572034     2.507754229214892
    C                0.634650746844289     2.185049872427966     0.473544229214891
    C                0.479650746844290     3.646049872427966     0.899544229214892
    H               -0.344349253155711     1.712049872427966     0.394544229214892
    H                1.122650746844289     2.126049872427966    -0.490455770785108
    H                1.239650746844290     1.650049872427966     1.205544229214891
    H                1.458650746844290     4.077049872427966     1.102544229214891
    H               -0.171759253155710     3.752509872427966     1.779504229214891
    H                0.026890746844290     4.136599872427966     0.025264229214892

}
e, wfn = energy('scf', return_wfn=True)
gdma(wfn)
dmavals = variable('DMA DISTRIBUTED MULTIPOLES')
charges = np.array(dmavals)
print(charges)
np.save('SSI-023GLU-028LEU-1-dimer.npy', np.array(charges))--------------------------------------------------------------------------

*** tstart() called on ds3
*** at Mon Apr 27 17:41:23 2020

   => Loading Basis Set <=

    Name: CC-PVDZ
    Role: ORBITAL
    Keyword: BASIS
    atoms 1-3, 11-12  entry C          line   138 file /theoryfs2/ds/metcalf/miniconda2/envs/tf2gpu/share/psi4/basis/cc-pvdz.gbs
    atoms 4-5         entry O          line   198 file /theoryfs2/ds/metcalf/miniconda2/envs/tf2gpu/share/psi4/basis/cc-pvdz.gbs
    atoms 6-10, 13-18 entry H          line    22 file /theoryfs2/ds/metcalf/miniconda2/envs/tf2gpu/share/psi4/basis/cc-pvdz.gbs

         ---------------------------------------------------------
                                   SCF
               by Justin Turney, Rob Parrish, Andy Simmonett
                          and Daniel G. A. Smith
                              RHF Reference
                        1 Threads,    500 MiB Core
         ---------------------------------------------------------

  ==> Geometry <==

    Molecular point group: c1
    Full point group: C1

    Geometry (in Angstrom), charge = -1, multiplicity = 1:

       Center              X                  Y                   Z               Mass
    ------------   -----------------  -----------------  -----------------  -----------------
         C           -0.540349253156    -1.282950127572     0.742544229215    12.000000000000
         C            0.853650746844    -1.515950127572     1.411544229215    12.000000000000
         C           -0.499349253156    -1.106950127572    -0.773455770785    12.000000000000
         O            0.558650746844    -1.328950127572    -1.403455770785    15.994914619570
         O           -1.552349253156    -0.759950127572    -1.347455770785    15.994914619570
         H           -1.186349253156    -2.132950127572     0.967544229215     1.007825032230
         H           -0.993349253156    -0.395950127572     1.188544229215     1.007825032230
         H            1.542650746844    -0.737950127572     1.082544229215     1.007825032230
         H            1.249650746844    -2.486950127572     1.107544229215     1.007825032230
         H            0.773820746844    -1.471760127572     2.507754229215     1.007825032230
         C            0.634650746844     2.185049872428     0.473544229215    12.000000000000
         C            0.479650746844     3.646049872428     0.899544229215    12.000000000000
         H           -0.344349253156     1.712049872428     0.394544229215     1.007825032230
         H            1.122650746844     2.126049872428    -0.490455770785     1.007825032230
         H            1.239650746844     1.650049872428     1.205544229215     1.007825032230
         H            1.458650746844     4.077049872428     1.102544229215     1.007825032230
         H           -0.171759253156     3.752509872428     1.779504229215     1.007825032230
         H            0.026890746844     4.136599872428     0.025264229215     1.007825032230

  Running in c1 symmetry.

  Rotational constants: A =      0.09603  B =      0.03603  C =      0.03084 [cm^-1]
  Rotational constants: A =   2879.04620  B =   1080.01976  C =    924.65456 [MHz]
  Nuclear repulsion =  294.346432771605805

  Charge       = -1
  Multiplicity = 1
  Electrons    = 58
  Nalpha       = 29
  Nbeta        = 29

  ==> Algorithm <==

  SCF Algorithm Type is PK.
  DIIS enabled.
  MOM disabled.
  Fractional occupation disabled.
  Guess Type is SAD.
  Energy threshold   = 1.00e-06
  Density threshold  = 1.00e-10
  Integral threshold = 0.00e+00

  ==> Primary Basis <==

  Basis Set: CC-PVDZ
    Blend: CC-PVDZ
    Number of shells: 75
    Number of basis function: 153
    Number of Cartesian functions: 160
    Spherical Harmonics?: true
    Max angular momentum: 2

  ==> Pre-Iterations <==

   -------------------------------------------------------
    Irrep   Nso     Nmo     Nalpha   Nbeta   Ndocc  Nsocc
   -------------------------------------------------------
     A        153     153       0       0       0       0
   -------------------------------------------------------
    Total     153     153      29      29      29       0
   -------------------------------------------------------

  ==> Integral Setup <==

  Using integral reordering PK algorithm.
  Sizing the integral batches needed.
  Building batch lookup table.
   Calculation information:
      Number of atoms:                  18
      Number of AO shells:              75
      Number of primitives:            209
      Number of atomic orbitals:       160
      Number of basis functions:       153

      Integral cutoff                 1.00e-12
      Number of threads:                 1

	Batch   1 pq = [       0,    9405] index = [             0,44231715] size =     44231715
	Batch   2 pq = [    9405,   11781] index = [      44231715,69401871] size =     25170156
  Task number: 7
  Buffer size: 11059200
  Buffer per thread: 2
  We computed 3622277 shell quartets total.
  Whereas there are 4062675 unique shell quartets.

  ==> DiskJK: Disk-Based J/K Matrices <==

    J tasked:                  Yes
    K tasked:                  Yes
    wK tasked:                  No
    Memory [MiB]:              375
    Schwarz Cutoff:          1E-12

    OpenMP threads:              1

  Minimum eigenvalue in the overlap matrix is 3.7876916745E-03.
  Using Symmetric Orthogonalization.

  SCF Guess: Superposition of Atomic Densities via on-the-fly atomic UHF.

  ==> Iterations <==

                        Total Energy        Delta E     RMS |[F,P]|

   @RHF iter SAD:  -343.81777355611996   -3.43818e+02   0.00000e+00
   @RHF iter   1:  -345.21916854837906   -1.40139e+00   4.90800e-03 DIIS
   @RHF iter   2:  -345.44091040105343   -2.21742e-01   2.71286e-03 DIIS
   @RHF iter   3:  -345.50542382088241   -6.45134e-02   4.29247e-04 DIIS
   @RHF iter   4:  -345.50843363538729   -3.00981e-03   1.67069e-04 DIIS
   @RHF iter   5:  -345.50887497631572   -4.41341e-04   2.46251e-05 DIIS
   @RHF iter   6:  -345.50888801636785   -1.30401e-05   7.52302e-06 DIIS
   @RHF iter   7:  -345.50888881263035   -7.96262e-07   2.93735e-06 DIIS
   @RHF iter   8:  -345.50888892467668   -1.12046e-07   7.09914e-07 DIIS
   @RHF iter   9:  -345.50888893416516   -9.48847e-09   2.12531e-07 DIIS
   @RHF iter  10:  -345.50888893533374   -1.16859e-09   5.07041e-08 DIIS
   @RHF iter  11:  -345.50888893541952   -8.57767e-11   1.20490e-08 DIIS
   @RHF iter  12:  -345.50888893542663   -7.10543e-12   4.12149e-09 DIIS
   @RHF iter  13:  -345.50888893542401    2.61480e-12   1.55360e-09 DIIS
   @RHF iter  14:  -345.50888893542594   -1.93268e-12   6.30107e-10 DIIS
   @RHF iter  15:  -345.50888893542549    4.54747e-13   2.35155e-10 DIIS
   @RHF iter  16:  -345.50888893542515    3.41061e-13   8.94741e-11 DIIS
  Energy and wave function converged.

  ==> Post-Iterations <==

    Orbital Energies [Eh]
    ---------------------

    Doubly Occupied:

       1A    -20.257403     2A    -20.251635     3A    -11.119758
       4A    -11.110864     5A    -11.096343     6A    -11.072482
       7A    -11.056026     8A     -1.146573     9A     -1.030620
      10A     -0.910956    11A     -0.861065    12A     -0.726113
      13A     -0.703672    14A     -0.501803    15A     -0.493755
      16A     -0.492080    17A     -0.454801    18A     -0.427187
      19A     -0.390523    20A     -0.383570    21A     -0.379471
      22A     -0.372294    23A     -0.362145    24A     -0.353125
      25A     -0.319961    26A     -0.297713    27A     -0.179803
      28A     -0.165971    29A     -0.155808

    Virtual:

      30A      0.285863    31A      0.325392    32A      0.347095
      33A      0.352824    34A      0.368449    35A      0.379869
      36A      0.386600    37A      0.406124    38A      0.412395
      39A      0.438333    40A      0.457620    41A      0.502797
      42A      0.511726    43A      0.545120    44A      0.612322
      45A      0.676216    46A      0.703934    47A      0.708351
      48A      0.717776    49A      0.721566    50A      0.778618
      51A      0.789085    52A      0.808191    53A      0.871048
      54A      0.916366    55A      0.930636    56A      0.953851
      57A      0.982097    58A      0.987099    59A      0.993719
      60A      1.003859    61A      1.012712    62A      1.017576
      63A      1.029568    64A      1.045368    65A      1.052897
      66A      1.064749    67A      1.073114    68A      1.084051
      69A      1.104639    70A      1.115841    71A      1.141163
      72A      1.158312    73A      1.221388    74A      1.260464
      75A      1.270157    76A      1.308281    77A      1.317037
      78A      1.355133    79A      1.398917    80A      1.458532
      81A      1.486028    82A      1.535337    83A      1.579636
      84A      1.594581    85A      1.608210    86A      1.634630
      87A      1.646609    88A      1.670597    89A      1.700293
      90A      1.737676    91A      1.770784    92A      1.809977
      93A      1.819951    94A      1.836974    95A      1.867216
      96A      1.918252    97A      1.966878    98A      1.978996
      99A      1.999108   100A      2.012631   101A      2.038292
     102A      2.044287   103A      2.063334   104A      2.067465
     105A      2.074741   106A      2.089233   107A      2.108713
     108A      2.119453   109A      2.146047   110A      2.172650
     111A      2.175267   112A      2.209694   113A      2.218086
     114A      2.225321   115A      2.247578   116A      2.261158
     117A      2.337858   118A      2.387010   119A      2.396154
     120A      2.434104   121A      2.487899   122A      2.507320
     123A      2.536713   124A      2.560472   125A      2.579220
     126A      2.615202   127A      2.652969   128A      2.674616
     129A      2.703476   130A      2.722051   131A      2.775611
     132A      2.823174   133A      2.867087   134A      2.914889
     135A      2.927057   136A      2.938129   137A      2.965970
     138A      2.985697   139A      3.005274   140A      3.058023
     141A      3.076469   142A      3.092420   143A      3.117165
     144A      3.247972   145A      3.294870   146A      3.308030
     147A      3.367229   148A      3.652873   149A      3.776410
     150A      3.829367   151A      4.064553   152A      4.081893
     153A      4.216300

    Final Occupation by Irrep:
              A
    DOCC [    29 ]

  @RHF Final Energy:  -345.50888893542515

   => Energetics <=

    Nuclear Repulsion Energy =            294.3464327716058051
    One-Electron Energy =               -1065.5635982220244387
    Two-Electron Energy =                 425.7082765149934858
    Total Energy =                       -345.5088889354251478

Computation Completed

Properties will be evaluated at   0.000000,   0.000000,   0.000000 [a0]

Properties computed using the SCF density matrix

  Nuclear Dipole Moment: [e a0]
     X:     4.4184      Y:     9.5791      Z:    10.1779

  Electronic Dipole Moment: [e a0]
     X:    -3.6472      Y:    -7.8697      Z:    -7.7038

  Dipole Moment: [e a0]
     X:     0.7712      Y:     1.7094      Z:     2.4741     Total:     3.1045

  Dipole Moment: [D]
     X:     1.9601      Y:     4.3449      Z:     6.2886     Total:     7.8910

*** tstop() called on ds3 at Mon Apr 27 17:41:58 2020
Module time:
	user time   =      25.36 seconds =       0.42 minutes
	system time =      10.60 seconds =       0.18 minutes
	total time  =         35 seconds =       0.58 minutes
Total time:
	user time   =      25.36 seconds =       0.42 minutes
	system time =      10.60 seconds =       0.18 minutes
	total time  =         35 seconds =       0.58 minutes
                                     G D M A

                                 by Anthony Stone

                           version 2.2.06, 22 June 2011

               Distributed Multipoles from Gaussian wavefunctions

Starting at 17:41:58 on 27 Apr 2020

Using SCF density matrix from file ./SSI/SSI-023GLU-028LEU-1-dimer.test.4958.fchk

                         Distributed Multipole Analysis

Standard DMA

Positions and radii in angstrom
Multipole moments in atomic units, ea_0^k for rank k

C          x = -0.540349  y = -1.282950  z =  0.742544 angstrom
           Maximum rank =  0   Radius =  0.650 angstrom
                   Q00  =  -0.165264

C          x =  0.853651  y = -1.515950  z =  1.411544 angstrom
           Maximum rank =  0   Radius =  0.650 angstrom
                   Q00  =  -0.239789

C          x = -0.499349  y = -1.106950  z = -0.773456 angstrom
           Maximum rank =  0   Radius =  0.650 angstrom
                   Q00  =   1.031589

O          x =  0.558651  y = -1.328950  z = -1.403456 angstrom
           Maximum rank =  0   Radius =  0.650 angstrom
                   Q00  =  -0.967797

O          x = -1.552349  y = -0.759950  z = -1.347456 angstrom
           Maximum rank =  0   Radius =  0.650 angstrom
                   Q00  =  -0.939373

H          x = -1.186349  y = -2.132950  z =  0.967544 angstrom
           Maximum rank =  0   Radius =  0.325 angstrom
                   Q00  =   0.053598

H          x = -0.993349  y = -0.395950  z =  1.188544 angstrom
           Maximum rank =  0   Radius =  0.325 angstrom
                   Q00  =   0.040229

H          x =  1.542651  y = -0.737950  z =  1.082544 angstrom
           Maximum rank =  0   Radius =  0.325 angstrom
                   Q00  =   0.089582

H          x =  1.249651  y = -2.486950  z =  1.107544 angstrom
           Maximum rank =  0   Radius =  0.325 angstrom
                   Q00  =   0.079962

H          x =  0.773821  y = -1.471760  z =  2.507754 angstrom
           Maximum rank =  0   Radius =  0.325 angstrom
                   Q00  =   0.018076

C          x =  0.634651  y =  2.185050  z =  0.473544 angstrom
           Maximum rank =  0   Radius =  0.650 angstrom
                   Q00  =  -0.202419

C          x =  0.479651  y =  3.646050  z =  0.899544 angstrom
           Maximum rank =  0   Radius =  0.650 angstrom
                   Q00  =  -0.239521

H          x = -0.344349  y =  1.712050  z =  0.394544 angstrom
           Maximum rank =  0   Radius =  0.325 angstrom
                   Q00  =   0.098546

H          x =  1.122651  y =  2.126050  z = -0.490456 angstrom
           Maximum rank =  0   Radius =  0.325 angstrom
                   Q00  =   0.087602

H          x =  1.239651  y =  1.650050  z =  1.205544 angstrom
           Maximum rank =  0   Radius =  0.325 angstrom
                   Q00  =   0.061305

H          x =  1.458651  y =  4.077050  z =  1.102544 angstrom
           Maximum rank =  0   Radius =  0.325 angstrom
                   Q00  =   0.059389

H          x = -0.171759  y =  3.752510  z =  1.779504 angstrom
           Maximum rank =  0   Radius =  0.325 angstrom
                   Q00  =   0.067593

H          x =  0.026891  y =  4.136600  z =  0.025264 angstrom
           Maximum rank =  0   Radius =  0.325 angstrom
                   Q00  =   0.066694

Total multipoles referred to origin at
           x =   0.000000,  y =    0.000000,  z =    0.000000 angstrom
                   Q00  =  -1.000000

Finished at 17:41:58 on 27 Apr 2020

  DMA results are available in the Python driver through the
	  variable('DMA DISTRIBUTED MULTIPOLES')
  and
	  variable('DMA TOTAL MULTIPOLES')
  commands.

    Psi4 stopped on: Monday, 27 April 2020 05:41PM
    Psi4 wall time for execution: 0:00:35.31

*** Psi4 exiting successfully. Buy a developer a beer!
