                               Psi4 1.3.2 release

  ==> Input File <==

--------------------------------------------------------------------------
import numpy as np
set {scf_type pk
basis cc-pvdz
d_convergence 10
gdma_switch   0
gdma_limit    0
gdma_origin   [ 0.0,  0.0,  0.0 ]
}
molecule test {
    units Angstrom
    0 1
    --
    0 1
    C                0.705482898265367    -1.675160666365070    -0.970704715462345
    C                1.060482898265367    -3.133160666365070    -0.887704715462345
    H               -0.374517101734633    -1.555160666365070    -1.046704715462345
    H                1.126482898265367    -1.162160666365070    -0.133704715462345
    H                1.124482898265367    -1.286160666365070    -1.896704715462345
    H                0.910482898265367    -3.560160666365070    -1.880704715462346
    H                2.116622898265367    -3.263212666365070    -0.609021715462345
    H                0.381712898265367    -3.661978666365071    -0.202414715462345
    C               -0.407517101734633     0.842839333634930     0.470295284537655
    C                0.295482898265367     1.410839333634930     1.698295284537655
    C               -1.905517101734633     1.100839333634930     0.498295284537655
    O                0.153482898265367     1.441839333634930    -0.693704715462345
    H               -0.355517101734633    -0.220160666365070     0.536295284537655
    H                0.035482898265367     2.465839333634929     1.793295284537655
    H               -2.355517101734633     0.619839333634930    -0.366704715462345
    H               -2.338517101734633     0.653839333634930     1.389295284537655
    H               -2.089517101734633     2.170839333634929     0.443295284537655
    H                1.034482898265367     1.032839333634930    -0.838704715462345
    H                1.385352898265367     1.307039333634930     1.591485284537655
    H               -0.041817101734633     0.885909333634930     2.604205284537655

}
e, wfn = energy('scf', return_wfn=True)
gdma(wfn)
dmavals = variable('DMA DISTRIBUTED MULTIPOLES')
charges = np.array(dmavals)
print(charges)
np.save('SSI-028VAL-031THR-1-dimer.npy', np.array(charges))--------------------------------------------------------------------------

*** tstart() called on ds3
*** at Tue Apr 28 12:59:38 2020

   => Loading Basis Set <=

    Name: CC-PVDZ
    Role: ORBITAL
    Keyword: BASIS
    atoms 1-2, 9-11  entry C          line   138 file /theoryfs2/ds/metcalf/miniconda2/envs/tf2gpu/share/psi4/basis/cc-pvdz.gbs
    atoms 3-8, 13-20 entry H          line    22 file /theoryfs2/ds/metcalf/miniconda2/envs/tf2gpu/share/psi4/basis/cc-pvdz.gbs
    atoms 12         entry O          line   198 file /theoryfs2/ds/metcalf/miniconda2/envs/tf2gpu/share/psi4/basis/cc-pvdz.gbs

         ---------------------------------------------------------
                                   SCF
               by Justin Turney, Rob Parrish, Andy Simmonett
                          and Daniel G. A. Smith
                              RHF Reference
                        1 Threads,    500 MiB Core
         ---------------------------------------------------------

  ==> Geometry <==

    Molecular point group: c1
    Full point group: C1

    Geometry (in Angstrom), charge = 0, multiplicity = 1:

       Center              X                  Y                   Z               Mass
    ------------   -----------------  -----------------  -----------------  -----------------
         C            0.705482898265    -1.675160666365    -0.970704715462    12.000000000000
         C            1.060482898265    -3.133160666365    -0.887704715462    12.000000000000
         H           -0.374517101735    -1.555160666365    -1.046704715462     1.007825032230
         H            1.126482898265    -1.162160666365    -0.133704715462     1.007825032230
         H            1.124482898265    -1.286160666365    -1.896704715462     1.007825032230
         H            0.910482898265    -3.560160666365    -1.880704715462     1.007825032230
         H            2.116622898265    -3.263212666365    -0.609021715462     1.007825032230
         H            0.381712898265    -3.661978666365    -0.202414715462     1.007825032230
         C           -0.407517101735     0.842839333635     0.470295284538    12.000000000000
         C            0.295482898265     1.410839333635     1.698295284538    12.000000000000
         C           -1.905517101735     1.100839333635     0.498295284538    12.000000000000
         O            0.153482898265     1.441839333635    -0.693704715462    15.994914619570
         H           -0.355517101735    -0.220160666365     0.536295284538     1.007825032230
         H            0.035482898265     2.465839333635     1.793295284538     1.007825032230
         H           -2.355517101735     0.619839333635    -0.366704715462     1.007825032230
         H           -2.338517101735     0.653839333635     1.389295284538     1.007825032230
         H           -2.089517101735     2.170839333635     0.443295284538     1.007825032230
         H            1.034482898265     1.032839333635    -0.838704715462     1.007825032230
         H            1.385352898265     1.307039333635     1.591485284538     1.007825032230
         H           -0.041817101735     0.885909333635     2.604205284538     1.007825032230

  Running in c1 symmetry.

  Rotational constants: A =      0.15593  B =      0.04032  C =      0.03957 [cm^-1]
  Rotational constants: A =   4674.52234  B =   1208.67038  C =   1186.27342 [MHz]
  Nuclear repulsion =  255.981355216269833

  Charge       = 0
  Multiplicity = 1
  Electrons    = 52
  Nalpha       = 26
  Nbeta        = 26

  ==> Algorithm <==

  SCF Algorithm Type is PK.
  DIIS enabled.
  MOM disabled.
  Fractional occupation disabled.
  Guess Type is SAD.
  Energy threshold   = 1.00e-06
  Density threshold  = 1.00e-10
  Integral threshold = 0.00e+00

  ==> Primary Basis <==

  Basis Set: CC-PVDZ
    Blend: CC-PVDZ
    Number of shells: 78
    Number of basis function: 154
    Number of Cartesian functions: 160
    Spherical Harmonics?: true
    Max angular momentum: 2

  ==> Pre-Iterations <==

   -------------------------------------------------------
    Irrep   Nso     Nmo     Nalpha   Nbeta   Ndocc  Nsocc
   -------------------------------------------------------
     A        154     154       0       0       0       0
   -------------------------------------------------------
    Total     154     154      26      26      26       0
   -------------------------------------------------------

  ==> Integral Setup <==

  Using integral reordering PK algorithm.
  Sizing the integral batches needed.
  Building batch lookup table.
   Calculation information:
      Number of atoms:                  20
      Number of AO shells:              78
      Number of primitives:            202
      Number of atomic orbitals:       160
      Number of basis functions:       154

      Integral cutoff                 1.00e-12
      Number of threads:                 1

	Batch   1 pq = [       0,    9405] index = [             0,44231715] size =     44231715
	Batch   2 pq = [    9405,   11935] index = [      44231715,71228080] size =     26996365
  Task number: 7
  Buffer size: 11059200
  Buffer per thread: 2
  We computed 4350009 shell quartets total.
  Whereas there are 4747821 unique shell quartets.

  ==> DiskJK: Disk-Based J/K Matrices <==

    J tasked:                  Yes
    K tasked:                  Yes
    wK tasked:                  No
    Memory [MiB]:              375
    Schwarz Cutoff:          1E-12

    OpenMP threads:              1

  Minimum eigenvalue in the overlap matrix is 4.3708096496E-03.
  Using Symmetric Orthogonalization.

  SCF Guess: Superposition of Atomic Densities via on-the-fly atomic UHF.

  ==> Iterations <==

                        Total Energy        Delta E     RMS |[F,P]|

   @RHF iter SAD:  -271.29435521254726   -2.71294e+02   0.00000e+00
   @RHF iter   1:  -272.12397083107129   -8.29616e-01   3.90604e-03 DIIS
   @RHF iter   2:  -272.31175342670656   -1.87783e-01   1.76222e-03 DIIS
   @RHF iter   3:  -272.34546631870967   -3.37129e-02   3.58234e-04 DIIS
   @RHF iter   4:  -272.34802841775485   -2.56210e-03   1.21159e-04 DIIS
   @RHF iter   5:  -272.34821118348191   -1.82766e-04   2.27750e-05 DIIS
   @RHF iter   6:  -272.34822109542330   -9.91194e-06   4.64490e-06 DIIS
   @RHF iter   7:  -272.34822159306572   -4.97642e-07   1.37012e-06 DIIS
   @RHF iter   8:  -272.34822163157253   -3.85068e-08   3.77096e-07 DIIS
   @RHF iter   9:  -272.34822163584363   -4.27110e-09   9.49579e-08 DIIS
   @RHF iter  10:  -272.34822163610664   -2.63014e-10   2.79498e-08 DIIS
   @RHF iter  11:  -272.34822163612682   -2.01794e-11   7.38256e-09 DIIS
   @RHF iter  12:  -272.34822163612642    3.97904e-13   2.06525e-09 DIIS
   @RHF iter  13:  -272.34822163612773   -1.30740e-12   5.67838e-10 DIIS
   @RHF iter  14:  -272.34822163612756    1.70530e-13   1.43001e-10 DIIS
   @RHF iter  15:  -272.34822163612910   -1.53477e-12   4.98922e-11 DIIS
  Energy and wave function converged.

  ==> Post-Iterations <==

    Orbital Energies [Eh]
    ---------------------

    Doubly Occupied:

       1A    -20.550809     2A    -11.266412     3A    -11.221838
       4A    -11.219057     5A    -11.216302     6A    -11.212065
       7A     -1.348611     8A     -1.041509     9A     -1.034303
      10A     -0.932950    11A     -0.845876    12A     -0.790145
      13A     -0.699917    14A     -0.617771    15A     -0.613432
      16A     -0.603408    17A     -0.598945    18A     -0.546787
      19A     -0.538017    20A     -0.521130    21A     -0.511256
      22A     -0.500354    23A     -0.495639    24A     -0.489778
      25A     -0.451372    26A     -0.424850

    Virtual:

      27A      0.164672    28A      0.192251    29A      0.205602
      30A      0.220822    31A      0.236287    32A      0.245212
      33A      0.255645    34A      0.265014    35A      0.274448
      36A      0.283992    37A      0.294792    38A      0.307796
      39A      0.324500    40A      0.337933    41A      0.371920
      42A      0.400820    43A      0.426205    44A      0.436672
      45A      0.577027    46A      0.595718    47A      0.599630
      48A      0.622410    49A      0.631522    50A      0.672693
      51A      0.688144    52A      0.703216    53A      0.716413
      54A      0.770692    55A      0.788230    56A      0.821851
      57A      0.845976    58A      0.859690    59A      0.872666
      60A      0.882093    61A      0.884949    62A      0.889126
      63A      0.893258    64A      0.904782    65A      0.908990
      66A      0.909982    67A      0.921853    68A      0.931492
      69A      0.936969    70A      0.958468    71A      0.969404
      72A      0.997494    73A      1.004173    74A      1.107294
      75A      1.120493    76A      1.132979    77A      1.168688
      78A      1.221968    79A      1.279076    80A      1.311924
      81A      1.358259    82A      1.389839    83A      1.422203
      84A      1.483166    85A      1.496734    86A      1.509101
      87A      1.552358    88A      1.587137    89A      1.618324
      90A      1.636009    91A      1.666457    92A      1.677566
      93A      1.679639    94A      1.687725    95A      1.717108
      96A      1.736729    97A      1.800013    98A      1.851512
      99A      1.863337   100A      1.877225   101A      1.889993
     102A      1.894431   103A      1.918967   104A      1.931273
     105A      1.944217   106A      1.946147   107A      1.964087
     108A      1.975444   109A      1.988568   110A      1.989547
     111A      2.019876   112A      2.029734   113A      2.046485
     114A      2.068060   115A      2.096933   116A      2.118625
     117A      2.151873   118A      2.181748   119A      2.199583
     120A      2.229872   121A      2.266815   122A      2.291186
     123A      2.316919   124A      2.324452   125A      2.359831
     126A      2.388313   127A      2.433486   128A      2.450426
     129A      2.487129   130A      2.516589   131A      2.554818
     132A      2.591557   133A      2.602205   134A      2.607435
     135A      2.634503   136A      2.664766   137A      2.754116
     138A      2.761125   139A      2.796478   140A      2.805794
     141A      2.812472   142A      2.825524   143A      2.835511
     144A      2.862518   145A      2.872682   146A      2.907032
     147A      2.974905   148A      2.994621   149A      3.009461
     150A      3.325176   151A      3.444994   152A      3.492840
     153A      3.682072   154A      4.110886

    Final Occupation by Irrep:
              A
    DOCC [    26 ]

  @RHF Final Energy:  -272.34822163612910

   => Energetics <=

    Nuclear Repulsion Energy =            255.9813552162698329
    One-Electron Energy =                -876.0740848198499862
    Two-Electron Energy =                 347.7445079674511135
    Total Energy =                       -272.3482216361290966

Computation Completed

Properties will be evaluated at   0.000000,   0.000000,   0.000000 [a0]

Properties computed using the SCF density matrix

  Nuclear Dipole Moment: [e a0]
     X:     0.5254      Y:    -5.2174      Z:     1.2934

  Electronic Dipole Moment: [e a0]
     X:    -0.2530      Y:     4.6592      Z:    -1.0122

  Dipole Moment: [e a0]
     X:     0.2724      Y:    -0.5582      Z:     0.2811     Total:     0.6818

  Dipole Moment: [D]
     X:     0.6924      Y:    -1.4189      Z:     0.7146     Total:     1.7330

*** tstop() called on ds3 at Tue Apr 28 13:01:30 2020
Module time:
	user time   =      25.08 seconds =       0.42 minutes
	system time =       8.96 seconds =       0.15 minutes
	total time  =        112 seconds =       1.87 minutes
Total time:
	user time   =      25.08 seconds =       0.42 minutes
	system time =       8.96 seconds =       0.15 minutes
	total time  =        112 seconds =       1.87 minutes
                                     G D M A

                                 by Anthony Stone

                           version 2.2.06, 22 June 2011

               Distributed Multipoles from Gaussian wavefunctions

Starting at 13:1:30 on 28 Apr 2020

Using SCF density matrix from file ./SSI/SSI-028VAL-031THR-1-dimer.test.15644.fchk

                         Distributed Multipole Analysis

Standard DMA

Positions and radii in angstrom
Multipole moments in atomic units, ea_0^k for rank k

C          x =  0.705483  y = -1.675161  z = -0.970705 angstrom
           Maximum rank =  0   Radius =  0.650 angstrom
                   Q00  =  -0.214400

C          x =  1.060483  y = -3.133161  z = -0.887705 angstrom
           Maximum rank =  0   Radius =  0.650 angstrom
                   Q00  =  -0.227973

H          x = -0.374517  y = -1.555161  z = -1.046705 angstrom
           Maximum rank =  0   Radius =  0.325 angstrom
                   Q00  =   0.078865

H          x =  1.126483  y = -1.162161  z = -0.133705 angstrom
           Maximum rank =  0   Radius =  0.325 angstrom
                   Q00  =   0.064024

H          x =  1.124483  y = -1.286161  z = -1.896705 angstrom
           Maximum rank =  0   Radius =  0.325 angstrom
                   Q00  =   0.080780

H          x =  0.910483  y = -3.560161  z = -1.880705 angstrom
           Maximum rank =  0   Radius =  0.325 angstrom
                   Q00  =   0.081897

H          x =  2.116623  y = -3.263213  z = -0.609022 angstrom
           Maximum rank =  0   Radius =  0.325 angstrom
                   Q00  =   0.078838

H          x =  0.381713  y = -3.661979  z = -0.202415 angstrom
           Maximum rank =  0   Radius =  0.325 angstrom
                   Q00  =   0.076424

C          x = -0.407517  y =  0.842839  z =  0.470295 angstrom
           Maximum rank =  0   Radius =  0.650 angstrom
                   Q00  =   0.139949

C          x =  0.295483  y =  1.410839  z =  1.698295 angstrom
           Maximum rank =  0   Radius =  0.650 angstrom
                   Q00  =  -0.260410

C          x = -1.905517  y =  1.100839  z =  0.498295 angstrom
           Maximum rank =  0   Radius =  0.650 angstrom
                   Q00  =  -0.217837

O          x =  0.153483  y =  1.441839  z = -0.693705 angstrom
           Maximum rank =  0   Radius =  0.650 angstrom
                   Q00  =  -0.556173

H          x = -0.355517  y = -0.220161  z =  0.536295 angstrom
           Maximum rank =  0   Radius =  0.325 angstrom
                   Q00  =  -0.021186

H          x =  0.035483  y =  2.465839  z =  1.793295 angstrom
           Maximum rank =  0   Radius =  0.325 angstrom
                   Q00  =   0.090444

H          x = -2.355517  y =  0.619839  z = -0.366705 angstrom
           Maximum rank =  0   Radius =  0.325 angstrom
                   Q00  =   0.089760

H          x = -2.338517  y =  0.653839  z =  1.389295 angstrom
           Maximum rank =  0   Radius =  0.325 angstrom
                   Q00  =   0.079249

H          x = -2.089517  y =  2.170839  z =  0.443295 angstrom
           Maximum rank =  0   Radius =  0.325 angstrom
                   Q00  =   0.090637

H          x =  1.034483  y =  1.032839  z = -0.838705 angstrom
           Maximum rank =  0   Radius =  0.325 angstrom
                   Q00  =   0.395762

H          x =  1.385353  y =  1.307039  z =  1.591485 angstrom
           Maximum rank =  0   Radius =  0.325 angstrom
                   Q00  =   0.077931

H          x = -0.041817  y =  0.885909  z =  2.604205 angstrom
           Maximum rank =  0   Radius =  0.325 angstrom
                   Q00  =   0.073420

Total multipoles referred to origin at
           x =   0.000000,  y =    0.000000,  z =    0.000000 angstrom
                   Q00  =  -0.000000

Finished at 13:1:30 on 28 Apr 2020

  DMA results are available in the Python driver through the
	  variable('DMA DISTRIBUTED MULTIPOLES')
  and
	  variable('DMA TOTAL MULTIPOLES')
  commands.

    Psi4 stopped on: Tuesday, 28 April 2020 01:01PM
    Psi4 wall time for execution: 0:01:51.62

*** Psi4 exiting successfully. Buy a developer a beer!
