                               Psi4 1.3.2 release

  ==> Input File <==

--------------------------------------------------------------------------
import numpy as np
set {scf_type pk
basis cc-pvdz
d_convergence 10
gdma_switch   0
gdma_limit    0
gdma_origin   [ 0.0,  0.0,  0.0 ]
}
molecule test {
    units Angstrom
    1 1
    --
    1 1
    C                0.566567473705670     0.742200182395009    -2.536426482069889
    C               -1.004432526294330    -0.535799817604991    -1.066426482069889
    N               -0.732432526294330     0.451200182395009    -1.903426482069889
    N               -2.161432526294330    -0.486799817604991    -0.448426482069889
    N               -0.203432526294330    -1.571799817604991    -0.839426482069889
    H               -1.446432526294330     1.183200182395009    -1.932426482069889
    H               -2.717432526294330     0.357200182395009    -0.544426482069889
    H               -2.421432526294330    -1.186799817604991     0.234573517930111
    H                0.648567473705670    -1.688799817604991    -1.361426482069889
    H               -0.526432526294330    -2.289799817604991    -0.202426482069889
    H                0.403567473705670     1.040200182395009    -3.573426482069889
    H                1.248567473705670    -0.108799817604991    -2.498426482069889
    H                0.969417473705670     1.585036182395009    -1.955616482069889
    C                0.614567473705670     0.418200182395009     1.956573517930111
    C                1.933567473705670    -0.266799817604991     1.639573517930111
    C                0.981567473705670     1.275200182395009     3.183573517930111
    H               -0.173432526294330    -0.305799817604991     2.164573517930111
    H                0.298567473705670     1.068200182395009     1.144573517930111
    H                2.138567473705670    -1.049799817604991     2.371573517930111
    H                1.954567473705670    -0.672799817604991     0.629573517930111
    H                0.270567473705670     2.087200182395009     3.268573517930111
    H                2.653857473705670     0.556700182395009     1.753683517930111
    H                1.984537473705670     1.631360182395009     2.905723517930111
    H                0.935337473705670     0.683410182395009     4.109663517930112

}
e, wfn = energy('scf', return_wfn=True)
gdma(wfn)
dmavals = variable('DMA DISTRIBUTED MULTIPOLES')
charges = np.array(dmavals)
print(charges)
np.save('SSI-007ARG-063PRO-1-dimer.npy', np.array(charges))--------------------------------------------------------------------------

*** tstart() called on ds3
*** at Mon Apr 27 14:16:51 2020

   => Loading Basis Set <=

    Name: CC-PVDZ
    Role: ORBITAL
    Keyword: BASIS
    atoms 1-2, 14-16  entry C          line   138 file /theoryfs2/ds/metcalf/miniconda2/envs/tf2gpu/share/psi4/basis/cc-pvdz.gbs
    atoms 3-5         entry N          line   168 file /theoryfs2/ds/metcalf/miniconda2/envs/tf2gpu/share/psi4/basis/cc-pvdz.gbs
    atoms 6-13, 17-24 entry H          line    22 file /theoryfs2/ds/metcalf/miniconda2/envs/tf2gpu/share/psi4/basis/cc-pvdz.gbs

         ---------------------------------------------------------
                                   SCF
               by Justin Turney, Rob Parrish, Andy Simmonett
                          and Daniel G. A. Smith
                              RHF Reference
                        1 Threads,    500 MiB Core
         ---------------------------------------------------------

  ==> Geometry <==

    Molecular point group: c1
    Full point group: C1

    Geometry (in Angstrom), charge = 1, multiplicity = 1:

       Center              X                  Y                   Z               Mass
    ------------   -----------------  -----------------  -----------------  -----------------
         C            0.566567473706     0.742200182395    -2.536426482070    12.000000000000
         C           -1.004432526294    -0.535799817605    -1.066426482070    12.000000000000
         N           -0.732432526294     0.451200182395    -1.903426482070    14.003074004430
         N           -2.161432526294    -0.486799817605    -0.448426482070    14.003074004430
         N           -0.203432526294    -1.571799817605    -0.839426482070    14.003074004430
         H           -1.446432526294     1.183200182395    -1.932426482070     1.007825032230
         H           -2.717432526294     0.357200182395    -0.544426482070     1.007825032230
         H           -2.421432526294    -1.186799817605     0.234573517930     1.007825032230
         H            0.648567473706    -1.688799817605    -1.361426482070     1.007825032230
         H           -0.526432526294    -2.289799817605    -0.202426482070     1.007825032230
         H            0.403567473706     1.040200182395    -3.573426482070     1.007825032230
         H            1.248567473706    -0.108799817605    -2.498426482070     1.007825032230
         H            0.969417473706     1.585036182395    -1.955616482070     1.007825032230
         C            0.614567473706     0.418200182395     1.956573517930    12.000000000000
         C            1.933567473706    -0.266799817605     1.639573517930    12.000000000000
         C            0.981567473706     1.275200182395     3.183573517930    12.000000000000
         H           -0.173432526294    -0.305799817605     2.164573517930     1.007825032230
         H            0.298567473706     1.068200182395     1.144573517930     1.007825032230
         H            2.138567473706    -1.049799817605     2.371573517930     1.007825032230
         H            1.954567473706    -0.672799817605     0.629573517930     1.007825032230
         H            0.270567473706     2.087200182395     3.268573517930     1.007825032230
         H            2.653857473706     0.556700182395     1.753683517930     1.007825032230
         H            1.984537473706     1.631360182395     2.905723517930     1.007825032230
         H            0.935337473706     0.683410182395     4.109663517930     1.007825032230

  Running in c1 symmetry.

  Rotational constants: A =      0.07845  B =      0.02857  C =      0.02628 [cm^-1]
  Rotational constants: A =   2351.87644  B =    856.55161  C =    787.77380 [MHz]
  Nuclear repulsion =  404.737304609163118

  Charge       = 1
  Multiplicity = 1
  Electrons    = 66
  Nalpha       = 33
  Nbeta        = 33

  ==> Algorithm <==

  SCF Algorithm Type is PK.
  DIIS enabled.
  MOM disabled.
  Fractional occupation disabled.
  Guess Type is SAD.
  Energy threshold   = 1.00e-06
  Density threshold  = 1.00e-10
  Integral threshold = 0.00e+00

  ==> Primary Basis <==

  Basis Set: CC-PVDZ
    Blend: CC-PVDZ
    Number of shells: 96
    Number of basis function: 192
    Number of Cartesian functions: 200
    Spherical Harmonics?: true
    Max angular momentum: 2

  ==> Pre-Iterations <==

   -------------------------------------------------------
    Irrep   Nso     Nmo     Nalpha   Nbeta   Ndocc  Nsocc
   -------------------------------------------------------
     A        192     192       0       0       0       0
   -------------------------------------------------------
    Total     192     192      33      33      33       0
   -------------------------------------------------------

  ==> Integral Setup <==

  Using integral reordering PK algorithm.
  Sizing the integral batches needed.
  Building batch lookup table.
   Calculation information:
      Number of atoms:                  24
      Number of AO shells:              96
      Number of primitives:            256
      Number of atomic orbitals:       200
      Number of basis functions:       192

      Integral cutoff                 1.00e-12
      Number of threads:                 1

	Batch   1 pq = [       0,    9405] index = [             0,44231715] size =     44231715
	Batch   2 pq = [    9405,   13301] index = [      44231715,88464951] size =     44233236
	Batch   3 pq = [   13301,   16290] index = [      88464951,132690195] size =     44225244
	Batch   4 pq = [   16290,   18528] index = [     132690195,171652656] size =     38962461
  Task number: 16
  Buffer size: 11059200
  Buffer per thread: 2
  We computed 10026659 shell quartets total.
  Whereas there are 10841496 unique shell quartets.

  ==> DiskJK: Disk-Based J/K Matrices <==

    J tasked:                  Yes
    K tasked:                  Yes
    wK tasked:                  No
    Memory [MiB]:              375
    Schwarz Cutoff:          1E-12

    OpenMP threads:              1

  Minimum eigenvalue in the overlap matrix is 3.3400326688E-03.
  Using Symmetric Orthogonalization.

  SCF Guess: Superposition of Atomic Densities via on-the-fly atomic UHF.

  ==> Iterations <==

                        Total Energy        Delta E     RMS |[F,P]|

   @RHF iter SAD:  -361.22295717416307   -3.61223e+02   0.00000e+00
   @RHF iter   1:  -361.59532286383399   -3.72366e-01   3.21391e-03 DIIS
   @RHF iter   2:  -361.79599615325787   -2.00673e-01   1.30457e-03 DIIS
   @RHF iter   3:  -361.82745855287686   -3.14624e-02   3.05052e-04 DIIS
   @RHF iter   4:  -361.83034537827632   -2.88683e-03   4.84034e-05 DIIS
   @RHF iter   5:  -361.83042141039027   -7.60321e-05   1.79313e-05 DIIS
   @RHF iter   6:  -361.83043097681491   -9.56642e-06   3.85344e-06 DIIS
   @RHF iter   7:  -361.83043163821094   -6.61396e-07   1.36044e-06 DIIS
   @RHF iter   8:  -361.83043169107503   -5.28641e-08   3.87379e-07 DIIS
   @RHF iter   9:  -361.83043169604451   -4.96948e-09   9.11561e-08 DIIS
   @RHF iter  10:  -361.83043169635442   -3.09910e-10   2.85156e-08 DIIS
   @RHF iter  11:  -361.83043169637904   -2.46132e-11   7.97200e-09 DIIS
   @RHF iter  12:  -361.83043169638040   -1.36424e-12   2.65681e-09 DIIS
   @RHF iter  13:  -361.83043169638279   -2.38742e-12   9.51273e-10 DIIS
   @RHF iter  14:  -361.83043169638194    8.52651e-13   2.92095e-10 DIIS
   @RHF iter  15:  -361.83043169638108    8.52651e-13   7.00831e-11 DIIS
  Energy and wave function converged.

  ==> Post-Iterations <==

    Orbital Energies [Eh]
    ---------------------

    Doubly Occupied:

       1A    -15.787985     2A    -15.787658     3A    -15.785866
       4A    -11.587722     5A    -11.444310     6A    -11.333783
       7A    -11.325706     8A    -11.315424     9A     -1.545451
      10A     -1.402211    11A     -1.387953    12A     -1.175239
      13A     -1.142337    14A     -1.035023    15A     -1.018877
      16A     -0.972203    17A     -0.938312    18A     -0.912795
      19A     -0.860476    20A     -0.854908    21A     -0.823084
      22A     -0.787993    23A     -0.750563    24A     -0.745803
      25A     -0.730770    26A     -0.719909    27A     -0.646847
      28A     -0.621612    29A     -0.611576    30A     -0.594171
      31A     -0.586213    32A     -0.581434    33A     -0.564940

    Virtual:

      34A     -0.017127    35A      0.019186    36A      0.021280
      37A      0.031140    38A      0.062661    39A      0.072292
      40A      0.091374    41A      0.110702    42A      0.118075
      43A      0.132098    44A      0.133409    45A      0.138729
      46A      0.160893    47A      0.166962    48A      0.189556
      49A      0.202228    50A      0.214476    51A      0.237613
      52A      0.249585    53A      0.285522    54A      0.309712
      55A      0.325939    56A      0.357172    57A      0.428990
      58A      0.439994    59A      0.455473    60A      0.472986
      61A      0.501170    62A      0.512369    63A      0.526403
      64A      0.530544    65A      0.542701    66A      0.547917
      67A      0.568508    68A      0.580298    69A      0.654977
      70A      0.660485    71A      0.681187    72A      0.686926
      73A      0.698173    74A      0.705780    75A      0.727701
      76A      0.737209    77A      0.747547    78A      0.753202
      79A      0.764500    80A      0.768445    81A      0.777164
      82A      0.798540    83A      0.804307    84A      0.804748
      85A      0.813464    86A      0.826866    87A      0.842633
      88A      0.860550    89A      0.864279    90A      0.892723
      91A      0.906303    92A      0.917367    93A      0.945122
      94A      0.969051    95A      0.991062    96A      0.997831
      97A      1.031952    98A      1.057490    99A      1.107119
     100A      1.115500   101A      1.152658   102A      1.170171
     103A      1.196378   104A      1.218763   105A      1.227185
     106A      1.282786   107A      1.303877   108A      1.335006
     109A      1.365225   110A      1.378209   111A      1.462166
     112A      1.486747   113A      1.506474   114A      1.513370
     115A      1.525606   116A      1.537625   117A      1.556260
     118A      1.602862   119A      1.614715   120A      1.637096
     121A      1.650083   122A      1.661334   123A      1.695735
     124A      1.697980   125A      1.716271   126A      1.729370
     127A      1.736306   128A      1.739960   129A      1.757284
     130A      1.775015   131A      1.783212   132A      1.788803
     133A      1.799986   134A      1.811887   135A      1.819895
     136A      1.833708   137A      1.850438   138A      1.862728
     139A      1.891296   140A      1.901985   141A      1.917780
     142A      1.932420   143A      1.957933   144A      1.988162
     145A      2.006828   146A      2.017994   147A      2.034624
     148A      2.041028   149A      2.047185   150A      2.113064
     151A      2.137704   152A      2.150362   153A      2.166254
     154A      2.215636   155A      2.232500   156A      2.236495
     157A      2.264800   158A      2.282055   159A      2.321601
     160A      2.328382   161A      2.334427   162A      2.355909
     163A      2.371074   164A      2.400681   165A      2.416541
     166A      2.438201   167A      2.456205   168A      2.520807
     169A      2.553443   170A      2.576394   171A      2.582765
     172A      2.597295   173A      2.626729   174A      2.656299
     175A      2.681920   176A      2.693884   177A      2.717380
     178A      2.728592   179A      2.751348   180A      2.777624
     181A      2.794483   182A      2.813884   183A      2.822699
     184A      2.840801   185A      2.855125   186A      2.895663
     187A      2.944471   188A      3.061195   189A      3.101059
     190A      3.136201   191A      3.542762   192A      3.629896

    Final Occupation by Irrep:
              A
    DOCC [    33 ]

  @RHF Final Energy:  -361.83043169638108

   => Energetics <=

    Nuclear Repulsion Energy =            404.7373046091631181
    One-Electron Energy =               -1280.3771621233690894
    Two-Electron Energy =                 513.8094258178248310
    Total Energy =                       -361.8304316963810834

Computation Completed

Properties will be evaluated at   0.000000,   0.000000,   0.000000 [a0]

Properties computed using the SCF density matrix

  Nuclear Dipole Moment: [e a0]
     X:     5.8410      Y:     2.7139      Z:     6.1163

  Electronic Dipole Moment: [e a0]
     X:    -7.3677      Y:    -3.3393      Z:    -7.9383

  Dipole Moment: [e a0]
     X:    -1.5267      Y:    -0.6255      Z:    -1.8221     Total:     2.4581

  Dipole Moment: [D]
     X:    -3.8806      Y:    -1.5898      Z:    -4.6313     Total:     6.2478

*** tstop() called on ds3 at Mon Apr 27 14:19:13 2020
Module time:
	user time   =      60.81 seconds =       1.01 minutes
	system time =      22.53 seconds =       0.38 minutes
	total time  =        142 seconds =       2.37 minutes
Total time:
	user time   =      60.81 seconds =       1.01 minutes
	system time =      22.53 seconds =       0.38 minutes
	total time  =        142 seconds =       2.37 minutes
                                     G D M A

                                 by Anthony Stone

                           version 2.2.06, 22 June 2011

               Distributed Multipoles from Gaussian wavefunctions

Starting at 14:19:13 on 27 Apr 2020

Using SCF density matrix from file ./SSI/SSI-007ARG-063PRO-1-dimer.test.9165.fchk

                         Distributed Multipole Analysis

Standard DMA

Positions and radii in angstrom
Multipole moments in atomic units, ea_0^k for rank k

C          x =  0.566567  y =  0.742200  z = -2.536426 angstrom
           Maximum rank =  0   Radius =  0.650 angstrom
                   Q00  =  -0.118287

C          x = -1.004433  y = -0.535800  z = -1.066426 angstrom
           Maximum rank =  0   Radius =  0.650 angstrom
                   Q00  =   1.079611

N          x = -0.732433  y =  0.451200  z = -1.903426 angstrom
           Maximum rank =  0   Radius =  0.650 angstrom
                   Q00  =  -0.496052

N          x = -2.161433  y = -0.486800  z = -0.448426 angstrom
           Maximum rank =  0   Radius =  0.650 angstrom
                   Q00  =  -0.582860

N          x = -0.203433  y = -1.571800  z = -0.839426 angstrom
           Maximum rank =  0   Radius =  0.650 angstrom
                   Q00  =  -0.585264

H          x = -1.446433  y =  1.183200  z = -1.932426 angstrom
           Maximum rank =  0   Radius =  0.325 angstrom
                   Q00  =   0.227746

H          x = -2.717433  y =  0.357200  z = -0.544426 angstrom
           Maximum rank =  0   Radius =  0.325 angstrom
                   Q00  =   0.260055

H          x = -2.421433  y = -1.186800  z =  0.234574 angstrom
           Maximum rank =  0   Radius =  0.325 angstrom
                   Q00  =   0.268431

H          x =  0.648567  y = -1.688800  z = -1.361426 angstrom
           Maximum rank =  0   Radius =  0.325 angstrom
                   Q00  =   0.273228

H          x = -0.526433  y = -2.289800  z = -0.202426 angstrom
           Maximum rank =  0   Radius =  0.325 angstrom
                   Q00  =   0.268565

H          x =  0.403567  y =  1.040200  z = -3.573426 angstrom
           Maximum rank =  0   Radius =  0.325 angstrom
                   Q00  =   0.154303

H          x =  1.248567  y = -0.108800  z = -2.498426 angstrom
           Maximum rank =  0   Radius =  0.325 angstrom
                   Q00  =   0.124583

H          x =  0.969417  y =  1.585036  z = -1.955616 angstrom
           Maximum rank =  0   Radius =  0.325 angstrom
                   Q00  =   0.129571

C          x =  0.614567  y =  0.418200  z =  1.956574 angstrom
           Maximum rank =  0   Radius =  0.650 angstrom
                   Q00  =  -0.102740

C          x =  1.933567  y = -0.266800  z =  1.639574 angstrom
           Maximum rank =  0   Radius =  0.650 angstrom
                   Q00  =  -0.209115

C          x =  0.981567  y =  1.275200  z =  3.183574 angstrom
           Maximum rank =  0   Radius =  0.650 angstrom
                   Q00  =  -0.208099

H          x = -0.173433  y = -0.305800  z =  2.164574 angstrom
           Maximum rank =  0   Radius =  0.325 angstrom
                   Q00  =   0.038202

H          x =  0.298567  y =  1.068200  z =  1.144574 angstrom
           Maximum rank =  0   Radius =  0.325 angstrom
                   Q00  =   0.025931

H          x =  2.138567  y = -1.049800  z =  2.371574 angstrom
           Maximum rank =  0   Radius =  0.325 angstrom
                   Q00  =   0.099559

H          x =  1.954567  y = -0.672800  z =  0.629574 angstrom
           Maximum rank =  0   Radius =  0.325 angstrom
                   Q00  =   0.040202

H          x =  0.270567  y =  2.087200  z =  3.268574 angstrom
           Maximum rank =  0   Radius =  0.325 angstrom
                   Q00  =   0.088288

H          x =  2.653857  y =  0.556700  z =  1.753684 angstrom
           Maximum rank =  0   Radius =  0.325 angstrom
                   Q00  =   0.071013

H          x =  1.984537  y =  1.631360  z =  2.905724 angstrom
           Maximum rank =  0   Radius =  0.325 angstrom
                   Q00  =   0.063294

H          x =  0.935337  y =  0.683410  z =  4.109664 angstrom
           Maximum rank =  0   Radius =  0.325 angstrom
                   Q00  =   0.089832

Total multipoles referred to origin at
           x =   0.000000,  y =    0.000000,  z =    0.000000 angstrom
                   Q00  =   1.000000

Finished at 14:19:13 on 27 Apr 2020

  DMA results are available in the Python driver through the
	  variable('DMA DISTRIBUTED MULTIPOLES')
  and
	  variable('DMA TOTAL MULTIPOLES')
  commands.

    Psi4 stopped on: Monday, 27 April 2020 02:19PM
    Psi4 wall time for execution: 0:02:22.34

*** Psi4 exiting successfully. Buy a developer a beer!
