                               Psi4 1.3.2 release

  ==> Input File <==

--------------------------------------------------------------------------
import numpy as np
set {scf_type pk
basis cc-pvdz
d_convergence 10
gdma_switch   0
gdma_limit    0
gdma_origin   [ 0.0,  0.0,  0.0 ]
}
molecule test {
    units Angstrom
    0 1
    --
    0 1
    C                1.419764950448137     1.415064247030616    -1.370892041312117
    C                0.933764950448137     1.312064247030616    -2.863892041312117
    H                1.959764950448137     2.344064247030616    -1.194892041312116
    H                0.548764950448137     1.430064247030616    -0.723892041312117
    H                2.053764950448137     0.566064247030616    -1.113892041312116
    H                0.249764950448137     2.136064247030616    -3.041892041312117
    H                1.744644950448137     1.402164247030616    -3.601702041312117
    H                0.396824950448137     0.373134247030616    -3.064162041312116
    C               -0.603235049551863    -0.838935752969384     0.921107958687883
    C               -2.038235049551863    -1.312935752969384     1.184107958687884
    C                0.250764950448137    -0.642935752969384     2.198107958687884
    H               -0.101235049551863    -1.540935752969384     0.254107958687883
    H               -0.638235049551863     0.126064247030616     0.429107958687883
    H               -2.469235049551863    -0.712935752969384     1.985107958687883
    H                0.382764950448137    -1.585935752969384     2.726107958687884
    H                1.231764950448137    -0.272935752969384     1.907107958687883
    H               -0.226235049551863     0.084064247030616     2.854107958687883
    H               -2.646575049551863    -1.173685752969384     0.278277958687883
    H               -2.043905049551863    -2.369415752969384     1.490414958687884

}
e, wfn = energy('scf', return_wfn=True)
gdma(wfn)
dmavals = variable('DMA DISTRIBUTED MULTIPOLES')
charges = np.array(dmavals)
print(charges)
np.save('SSI-071VAL-077ILE-1-dimer.npy', np.array(charges))--------------------------------------------------------------------------

*** tstart() called on ds3
*** at Mon Apr 27 21:06:59 2020

   => Loading Basis Set <=

    Name: CC-PVDZ
    Role: ORBITAL
    Keyword: BASIS
    atoms 1-2, 9-11  entry C          line   138 file /theoryfs2/ds/metcalf/miniconda2/envs/tf2gpu/share/psi4/basis/cc-pvdz.gbs
    atoms 3-8, 12-19 entry H          line    22 file /theoryfs2/ds/metcalf/miniconda2/envs/tf2gpu/share/psi4/basis/cc-pvdz.gbs

         ---------------------------------------------------------
                                   SCF
               by Justin Turney, Rob Parrish, Andy Simmonett
                          and Daniel G. A. Smith
                              RHF Reference
                        1 Threads,    500 MiB Core
         ---------------------------------------------------------

  ==> Geometry <==

    Molecular point group: c1
    Full point group: C1

    Geometry (in Angstrom), charge = 0, multiplicity = 1:

       Center              X                  Y                   Z               Mass
    ------------   -----------------  -----------------  -----------------  -----------------
         C            1.419764950448     1.415064247031    -1.370892041312    12.000000000000
         C            0.933764950448     1.312064247031    -2.863892041312    12.000000000000
         H            1.959764950448     2.344064247031    -1.194892041312     1.007825032230
         H            0.548764950448     1.430064247031    -0.723892041312     1.007825032230
         H            2.053764950448     0.566064247031    -1.113892041312     1.007825032230
         H            0.249764950448     2.136064247031    -3.041892041312     1.007825032230
         H            1.744644950448     1.402164247031    -3.601702041312     1.007825032230
         H            0.396824950448     0.373134247031    -3.064162041312     1.007825032230
         C           -0.603235049552    -0.838935752969     0.921107958688    12.000000000000
         C           -2.038235049552    -1.312935752969     1.184107958688    12.000000000000
         C            0.250764950448    -0.642935752969     2.198107958688    12.000000000000
         H           -0.101235049552    -1.540935752969     0.254107958688     1.007825032230
         H           -0.638235049552     0.126064247031     0.429107958688     1.007825032230
         H           -2.469235049552    -0.712935752969     1.985107958688     1.007825032230
         H            0.382764950448    -1.585935752969     2.726107958688     1.007825032230
         H            1.231764950448    -0.272935752969     1.907107958688     1.007825032230
         H           -0.226235049552     0.084064247031     2.854107958688     1.007825032230
         H           -2.646575049552    -1.173685752969     0.278277958688     1.007825032230
         H           -2.043905049552    -2.369415752969     1.490414958688     1.007825032230

  Running in c1 symmetry.

  Rotational constants: A =      0.20957  B =      0.03986  C =      0.03480 [cm^-1]
  Rotational constants: A =   6282.84950  B =   1195.02233  C =   1043.38123 [MHz]
  Nuclear repulsion =  176.065552745840620

  Charge       = 0
  Multiplicity = 1
  Electrons    = 44
  Nalpha       = 22
  Nbeta        = 22

  ==> Algorithm <==

  SCF Algorithm Type is PK.
  DIIS enabled.
  MOM disabled.
  Fractional occupation disabled.
  Guess Type is SAD.
  Energy threshold   = 1.00e-06
  Density threshold  = 1.00e-10
  Integral threshold = 0.00e+00

  ==> Primary Basis <==

  Basis Set: CC-PVDZ
    Blend: CC-PVDZ
    Number of shells: 72
    Number of basis function: 140
    Number of Cartesian functions: 145
    Spherical Harmonics?: true
    Max angular momentum: 2

  ==> Pre-Iterations <==

   -------------------------------------------------------
    Irrep   Nso     Nmo     Nalpha   Nbeta   Ndocc  Nsocc
   -------------------------------------------------------
     A        140     140       0       0       0       0
   -------------------------------------------------------
    Total     140     140      22      22      22       0
   -------------------------------------------------------

  ==> Integral Setup <==

  Using integral reordering PK algorithm.
  Sizing the integral batches needed.
  Building batch lookup table.
   Calculation information:
      Number of atoms:                  19
      Number of AO shells:              72
      Number of primitives:            180
      Number of atomic orbitals:       145
      Number of basis functions:       140

      Integral cutoff                 1.00e-12
      Number of threads:                 1

	Batch   1 pq = [       0,    9405] index = [             0,44231715] size =     44231715
	Batch   2 pq = [    9405,    9870] index = [      44231715,48713385] size =      4481670
  Task number: 5
  Buffer size: 11059200
  Buffer per thread: 2
  We computed 2822368 shell quartets total.
  Whereas there are 3454506 unique shell quartets.

  ==> DiskJK: Disk-Based J/K Matrices <==

    J tasked:                  Yes
    K tasked:                  Yes
    wK tasked:                  No
    Memory [MiB]:              375
    Schwarz Cutoff:          1E-12

    OpenMP threads:              1

  Minimum eigenvalue in the overlap matrix is 5.4752076720E-03.
  Using Symmetric Orthogonalization.

  SCF Guess: Superposition of Atomic Densities via on-the-fly atomic UHF.

  ==> Iterations <==

                        Total Energy        Delta E     RMS |[F,P]|

   @RHF iter SAD:  -196.25624599664155   -1.96256e+02   0.00000e+00
   @RHF iter   1:  -197.31710381436878   -1.06086e+00   3.72260e-03 DIIS
   @RHF iter   2:  -197.47247781944151   -1.55374e-01   1.57818e-03 DIIS
   @RHF iter   3:  -197.49895933624737   -2.64815e-02   3.20467e-04 DIIS
   @RHF iter   4:  -197.50110810504879   -2.14877e-03   4.84263e-05 DIIS
   @RHF iter   5:  -197.50114602288855   -3.79178e-05   1.49092e-05 DIIS
   @RHF iter   6:  -197.50114933909239   -3.31620e-06   2.30589e-06 DIIS
   @RHF iter   7:  -197.50114943711230   -9.80199e-08   4.21620e-07 DIIS
   @RHF iter   8:  -197.50114944085976   -3.74746e-09   1.07489e-07 DIIS
   @RHF iter   9:  -197.50114944109134   -2.31580e-10   3.43350e-08 DIIS
   @RHF iter  10:  -197.50114944111820   -2.68585e-11   7.97862e-09 DIIS
   @RHF iter  11:  -197.50114944112042   -2.21689e-12   1.54426e-09 DIIS
   @RHF iter  12:  -197.50114944111988    5.40012e-13   2.99431e-10 DIIS
   @RHF iter  13:  -197.50114944111999   -1.13687e-13   5.54790e-11 DIIS
  Energy and wave function converged.

  ==> Post-Iterations <==

    Orbital Energies [Eh]
    ---------------------

    Doubly Occupied:

       1A    -11.222369     2A    -11.220636     3A    -11.219654
       4A    -11.217628     5A    -11.215617     6A     -1.048582
       7A     -1.007524     8A     -0.924556     9A     -0.844082
      10A     -0.796872    11A     -0.625219    12A     -0.594639
      13A     -0.594132    14A     -0.586141    15A     -0.548938
      16A     -0.534164    17A     -0.498973    18A     -0.491132
      19A     -0.487684    20A     -0.471656    21A     -0.468757
      22A     -0.461856

    Virtual:

      23A      0.169854    24A      0.194993    25A      0.213321
      26A      0.227127    27A      0.237426    28A      0.249392
      29A      0.254606    30A      0.266466    31A      0.273749
      32A      0.282667    33A      0.294772    34A      0.302586
      35A      0.308826    36A      0.364412    37A      0.382206
      38A      0.404662    39A      0.421995    40A      0.565231
      41A      0.573868    42A      0.590548    43A      0.604483
      44A      0.609144    45A      0.617053    46A      0.640669
      47A      0.652402    48A      0.686355    49A      0.768256
      50A      0.795295    51A      0.805069    52A      0.823961
      53A      0.854045    54A      0.882564    55A      0.886987
      56A      0.887718    57A      0.896522    58A      0.896966
      59A      0.901138    60A      0.909798    61A      0.910043
      62A      0.916567    63A      0.930268    64A      0.935308
      65A      0.947442    66A      0.974255    67A      0.995695
      68A      1.008276    69A      1.116221    70A      1.120654
      71A      1.127830    72A      1.146088    73A      1.204111
      74A      1.273330    75A      1.382640    76A      1.448208
      77A      1.459996    78A      1.464648    79A      1.481790
      80A      1.528207    81A      1.560915    82A      1.647472
      83A      1.671929    84A      1.691279    85A      1.694011
      86A      1.698807    87A      1.717042    88A      1.835167
      89A      1.851311    90A      1.864375    91A      1.880474
      92A      1.887594    93A      1.902338    94A      1.914926
      95A      1.922865    96A      1.925949    97A      1.934395
      98A      1.941468    99A      1.943812   100A      1.956616
     101A      1.958542   102A      1.970296   103A      1.984594
     104A      1.995400   105A      2.001960   106A      2.035602
     107A      2.050203   108A      2.078378   109A      2.114882
     110A      2.127510   111A      2.159271   112A      2.279518
     113A      2.293786   114A      2.304209   115A      2.319222
     116A      2.328677   117A      2.353102   118A      2.440542
     119A      2.457355   120A      2.488647   121A      2.537567
     122A      2.538488   123A      2.569921   124A      2.579734
     125A      2.615258   126A      2.632414   127A      2.754550
     128A      2.759252   129A      2.772257   130A      2.786109
     131A      2.791344   132A      2.821866   133A      2.859811
     134A      2.864834   135A      2.905735   136A      2.939052
     137A      2.949816   138A      2.969410   139A      2.974993
     140A      3.068981

    Final Occupation by Irrep:
              A
    DOCC [    22 ]

  @RHF Final Energy:  -197.50114944111999

   => Energetics <=

    Nuclear Repulsion Energy =            176.0655527458406198
    One-Electron Energy =                -612.9717884293573888
    Two-Electron Energy =                 239.4050862423968056
    Total Energy =                       -197.5011494411199919

Computation Completed

Properties will be evaluated at   0.000000,   0.000000,   0.000000 [a0]

Properties computed using the SCF density matrix

  Nuclear Dipole Moment: [e a0]
     X:     0.4150      Y:     0.7554      Z:    -0.7651

  Electronic Dipole Moment: [e a0]
     X:    -0.4087      Y:    -0.7244      Z:     0.7442

  Dipole Moment: [e a0]
     X:     0.0062      Y:     0.0310      Z:    -0.0209     Total:     0.0379

  Dipole Moment: [D]
     X:     0.0158      Y:     0.0789      Z:    -0.0530     Total:     0.0963

*** tstop() called on ds3 at Mon Apr 27 21:07:41 2020
Module time:
	user time   =      14.29 seconds =       0.24 minutes
	system time =       5.53 seconds =       0.09 minutes
	total time  =         42 seconds =       0.70 minutes
Total time:
	user time   =      14.29 seconds =       0.24 minutes
	system time =       5.53 seconds =       0.09 minutes
	total time  =         42 seconds =       0.70 minutes
                                     G D M A

                                 by Anthony Stone

                           version 2.2.06, 22 June 2011

               Distributed Multipoles from Gaussian wavefunctions

Starting at 21:7:41 on 27 Apr 2020

Using SCF density matrix from file ./SSI/SSI-071VAL-077ILE-1-dimer.test.23739.fchk

                         Distributed Multipole Analysis

Standard DMA

Positions and radii in angstrom
Multipole moments in atomic units, ea_0^k for rank k

C          x =  1.419765  y =  1.415064  z = -1.370892 angstrom
           Maximum rank =  0   Radius =  0.650 angstrom
                   Q00  =  -0.244851

C          x =  0.933765  y =  1.312064  z = -2.863892 angstrom
           Maximum rank =  0   Radius =  0.650 angstrom
                   Q00  =  -0.256861

H          x =  1.959765  y =  2.344064  z = -1.194892 angstrom
           Maximum rank =  0   Radius =  0.325 angstrom
                   Q00  =   0.084569

H          x =  0.548765  y =  1.430064  z = -0.723892 angstrom
           Maximum rank =  0   Radius =  0.325 angstrom
                   Q00  =   0.085847

H          x =  2.053765  y =  0.566064  z = -1.113892 angstrom
           Maximum rank =  0   Radius =  0.325 angstrom
                   Q00  =   0.084042

H          x =  0.249765  y =  2.136064  z = -3.041892 angstrom
           Maximum rank =  0   Radius =  0.325 angstrom
                   Q00  =   0.080029

H          x =  1.744645  y =  1.402164  z = -3.601702 angstrom
           Maximum rank =  0   Radius =  0.325 angstrom
                   Q00  =   0.084172

H          x =  0.396825  y =  0.373134  z = -3.064162 angstrom
           Maximum rank =  0   Radius =  0.325 angstrom
                   Q00  =   0.083873

C          x = -0.603235  y = -0.838936  z =  0.921108 angstrom
           Maximum rank =  0   Radius =  0.650 angstrom
                   Q00  =  -0.089463

C          x = -2.038235  y = -1.312936  z =  1.184108 angstrom
           Maximum rank =  0   Radius =  0.650 angstrom
                   Q00  =  -0.234936

C          x =  0.250765  y = -0.642936  z =  2.198108 angstrom
           Maximum rank =  0   Radius =  0.650 angstrom
                   Q00  =  -0.254542

H          x = -0.101235  y = -1.540936  z =  0.254108 angstrom
           Maximum rank =  0   Radius =  0.325 angstrom
                   Q00  =   0.049812

H          x = -0.638235  y =  0.126064  z =  0.429108 angstrom
           Maximum rank =  0   Radius =  0.325 angstrom
                   Q00  =   0.045385

H          x = -2.469235  y = -0.712936  z =  1.985108 angstrom
           Maximum rank =  0   Radius =  0.325 angstrom
                   Q00  =   0.076377

H          x =  0.382765  y = -1.585936  z =  2.726108 angstrom
           Maximum rank =  0   Radius =  0.325 angstrom
                   Q00  =   0.079145

H          x =  1.231765  y = -0.272936  z =  1.907108 angstrom
           Maximum rank =  0   Radius =  0.325 angstrom
                   Q00  =   0.086022

H          x = -0.226235  y =  0.084064  z =  2.854108 angstrom
           Maximum rank =  0   Radius =  0.325 angstrom
                   Q00  =   0.078815

H          x = -2.646575  y = -1.173686  z =  0.278278 angstrom
           Maximum rank =  0   Radius =  0.325 angstrom
                   Q00  =   0.083565

H          x = -2.043905  y = -2.369416  z =  1.490415 angstrom
           Maximum rank =  0   Radius =  0.325 angstrom
                   Q00  =   0.078999

Total multipoles referred to origin at
           x =   0.000000,  y =    0.000000,  z =    0.000000 angstrom
                   Q00  =  -0.000000

Finished at 21:7:42 on 27 Apr 2020

  DMA results are available in the Python driver through the
	  variable('DMA DISTRIBUTED MULTIPOLES')
  and
	  variable('DMA TOTAL MULTIPOLES')
  commands.

    Psi4 stopped on: Monday, 27 April 2020 09:07PM
    Psi4 wall time for execution: 0:00:42.56

*** Psi4 exiting successfully. Buy a developer a beer!
