                               Psi4 1.3.2 release

  ==> Input File <==

--------------------------------------------------------------------------
import numpy as np
set {scf_type pk
basis cc-pvdz
d_convergence 10
gdma_switch   0
gdma_limit    0
gdma_origin   [ 0.0,  0.0,  0.0 ]
}
molecule test {
    units Angstrom
    0 1
    --
    0 1
    C                3.632741111736951     1.092837157926255    -1.887516344952685
    C                4.638741111736951     2.044837157926255    -1.242516344952685
    H                4.077741111736952     0.598837157926255    -2.752516344952685
    H                3.297741111736952     0.338837157926255    -1.178516344952685
    H                2.743741111736951     1.637837157926255    -2.200516344952685
    H                4.135741111736952     2.564837157926255    -0.425516344952685
    H                5.017557111736951     2.791011157926256    -1.956466344952685
    H                5.491256111736951     1.477446157926255    -0.840916344952685
    C               -3.527258888263049    -1.701162842073745    -0.258516344952685
    C               -0.089258888263049    -0.559162842073745     0.747483655047315
    C               -1.366258888263049    -0.281162842073745     0.174483655047315
    C               -2.133258888263048    -1.485162842073745     0.232483655047315
    C               -1.338258888263049    -2.423162842073745     0.825483655047315
    C                0.637741111736951     1.674837157926256     0.372483655047315
    C                0.896741111736951     0.408837157926255     0.861483655047315
    C               -0.612258888263049     1.974837157926255    -0.208516344952685
    C               -1.601258888263049     1.009837157926256    -0.304516344952685
    N               -0.128258888263049    -1.871162842073745     1.138483655047315
    H                1.398741111736951     2.441837157926256     0.432483655047315
    H                1.850741111736951     0.172837157926255     1.311483655047315
    H               -0.798258888263049     2.962837157926256    -0.603516344952685
    H               -2.546258888263049     1.229837157926255    -0.769516344952685
    H                0.625741111736951    -2.378162842073745     1.591483655047315
    H               -1.629258888263049    -3.452162842073744     1.017483655047315
    H               -3.581258888263048    -2.707162842073744    -0.678516344952685
    H               -3.715258888263048    -0.999162842073745    -1.068516344952685
    H               -4.324758888263048    -1.591787842073745     0.491173655047315

}
e, wfn = energy('scf', return_wfn=True)
gdma(wfn)
dmavals = variable('DMA DISTRIBUTED MULTIPOLES')
charges = np.array(dmavals)
print(charges)
np.save('SSI-026ILE-037TRP-1-dimer.npy', np.array(charges))--------------------------------------------------------------------------

*** tstart() called on ds3
*** at Mon Apr 27 22:00:13 2020

   => Loading Basis Set <=

    Name: CC-PVDZ
    Role: ORBITAL
    Keyword: BASIS
    atoms 1-2, 9-17  entry C          line   138 file /theoryfs2/ds/metcalf/miniconda2/envs/tf2gpu/share/psi4/basis/cc-pvdz.gbs
    atoms 3-8, 19-27 entry H          line    22 file /theoryfs2/ds/metcalf/miniconda2/envs/tf2gpu/share/psi4/basis/cc-pvdz.gbs
    atoms 18         entry N          line   168 file /theoryfs2/ds/metcalf/miniconda2/envs/tf2gpu/share/psi4/basis/cc-pvdz.gbs

         ---------------------------------------------------------
                                   SCF
               by Justin Turney, Rob Parrish, Andy Simmonett
                          and Daniel G. A. Smith
                              RHF Reference
                        1 Threads,    500 MiB Core
         ---------------------------------------------------------

  ==> Geometry <==

    Molecular point group: c1
    Full point group: C1

    Geometry (in Angstrom), charge = 0, multiplicity = 1:

       Center              X                  Y                   Z               Mass
    ------------   -----------------  -----------------  -----------------  -----------------
         C            3.632741111737     1.092837157926    -1.887516344953    12.000000000000
         C            4.638741111737     2.044837157926    -1.242516344953    12.000000000000
         H            4.077741111737     0.598837157926    -2.752516344953     1.007825032230
         H            3.297741111737     0.338837157926    -1.178516344953     1.007825032230
         H            2.743741111737     1.637837157926    -2.200516344953     1.007825032230
         H            4.135741111737     2.564837157926    -0.425516344953     1.007825032230
         H            5.017557111737     2.791011157926    -1.956466344953     1.007825032230
         H            5.491256111737     1.477446157926    -0.840916344953     1.007825032230
         C           -3.527258888263    -1.701162842074    -0.258516344953    12.000000000000
         C           -0.089258888263    -0.559162842074     0.747483655047    12.000000000000
         C           -1.366258888263    -0.281162842074     0.174483655047    12.000000000000
         C           -2.133258888263    -1.485162842074     0.232483655047    12.000000000000
         C           -1.338258888263    -2.423162842074     0.825483655047    12.000000000000
         C            0.637741111737     1.674837157926     0.372483655047    12.000000000000
         C            0.896741111737     0.408837157926     0.861483655047    12.000000000000
         C           -0.612258888263     1.974837157926    -0.208516344953    12.000000000000
         C           -1.601258888263     1.009837157926    -0.304516344953    12.000000000000
         N           -0.128258888263    -1.871162842074     1.138483655047    14.003074004430
         H            1.398741111737     2.441837157926     0.432483655047     1.007825032230
         H            1.850741111737     0.172837157926     1.311483655047     1.007825032230
         H           -0.798258888263     2.962837157926    -0.603516344953     1.007825032230
         H           -2.546258888263     1.229837157926    -0.769516344953     1.007825032230
         H            0.625741111737    -2.378162842074     1.591483655047     1.007825032230
         H           -1.629258888263    -3.452162842074     1.017483655047     1.007825032230
         H           -3.581258888263    -2.707162842074    -0.678516344953     1.007825032230
         H           -3.715258888263    -0.999162842074    -1.068516344953     1.007825032230
         H           -4.324758888263    -1.591787842074     0.491173655047     1.007825032230

  Running in c1 symmetry.

  Rotational constants: A =      0.05638  B =      0.01392  C =      0.01251 [cm^-1]
  Rotational constants: A =   1690.24336  B =    417.23223  C =    374.96822 [MHz]
  Nuclear repulsion =  644.583414723709097

  Charge       = 0
  Multiplicity = 1
  Electrons    = 88
  Nalpha       = 44
  Nbeta        = 44

  ==> Algorithm <==

  SCF Algorithm Type is PK.
  DIIS enabled.
  MOM disabled.
  Fractional occupation disabled.
  Guess Type is SAD.
  Energy threshold   = 1.00e-06
  Density threshold  = 1.00e-10
  Integral threshold = 0.00e+00

  ==> Primary Basis <==

  Basis Set: CC-PVDZ
    Blend: CC-PVDZ
    Number of shells: 117
    Number of basis function: 243
    Number of Cartesian functions: 255
    Spherical Harmonics?: true
    Max angular momentum: 2

  ==> Pre-Iterations <==

   -------------------------------------------------------
    Irrep   Nso     Nmo     Nalpha   Nbeta   Ndocc  Nsocc
   -------------------------------------------------------
     A        243     243       0       0       0       0
   -------------------------------------------------------
    Total     243     243      44      44      44       0
   -------------------------------------------------------

  ==> Integral Setup <==

  Using integral reordering PK algorithm.
  Sizing the integral batches needed.
  Building batch lookup table.
   Calculation information:
      Number of atoms:                  27
      Number of AO shells:             117
      Number of primitives:            339
      Number of atomic orbitals:       255
      Number of basis functions:       243

      Integral cutoff                 1.00e-12
      Number of threads:                 1

	Batch   1 pq = [       0,    9405] index = [             0,44231715] size =     44231715
	Batch   2 pq = [    9405,   13301] index = [      44231715,88464951] size =     44233236
	Batch   3 pq = [   13301,   16290] index = [      88464951,132690195] size =     44225244
	Batch   4 pq = [   16290,   18810] index = [     132690195,176917455] size =     44227260
	Batch   5 pq = [   18810,   21030] index = [     176917455,221140965] size =     44223510
	Batch   6 pq = [   21030,   23037] index = [     221140965,265363203] size =     44222238
	Batch   7 pq = [   23037,   24883] index = [     265363203,309594286] size =     44231083
	Batch   8 pq = [   24883,   26601] index = [     309594286,353819901] size =     44225615
	Batch   9 pq = [   26601,   28214] index = [     353819901,398029005] size =     44209104
	Batch  10 pq = [   28214,   29646] index = [     398029005,439457481] size =     41428476
  Task number: 40
  Buffer size: 11059200
  Buffer per thread: 2
  We computed 21037325 shell quartets total.
  Whereas there are 23829156 unique shell quartets.

  ==> DiskJK: Disk-Based J/K Matrices <==

    J tasked:                  Yes
    K tasked:                  Yes
    wK tasked:                  No
    Memory [MiB]:              375
    Schwarz Cutoff:          1E-12

    OpenMP threads:              1

  Minimum eigenvalue in the overlap matrix is 2.3240295731E-04.
  Using Symmetric Orthogonalization.

  SCF Guess: Superposition of Atomic Densities via on-the-fly atomic UHF.

  ==> Iterations <==

                        Total Energy        Delta E     RMS |[F,P]|

   @RHF iter SAD:  -479.05765798938205   -4.79058e+02   0.00000e+00
   @RHF iter   1:  -479.48647090560343   -4.28813e-01   2.61790e-03 DIIS
   @RHF iter   2:  -479.71995516417866   -2.33484e-01   1.17418e-03 DIIS
   @RHF iter   3:  -479.76286694511123   -4.29118e-02   3.06707e-04 DIIS
   @RHF iter   4:  -479.76670856289485   -3.84162e-03   1.41923e-04 DIIS
   @RHF iter   5:  -479.76738086763964   -6.72305e-04   1.95251e-05 DIIS
   @RHF iter   6:  -479.76740846315715   -2.75955e-05   8.88489e-06 DIIS
   @RHF iter   7:  -479.76741389000603   -5.42685e-06   3.69422e-06 DIIS
   @RHF iter   8:  -479.76741543296640   -1.54296e-06   1.46121e-06 DIIS
   @RHF iter   9:  -479.76741574677010   -3.13804e-07   6.58338e-07 DIIS
   @RHF iter  10:  -479.76741581076550   -6.39954e-08   2.97905e-07 DIIS
   @RHF iter  11:  -479.76741582642853   -1.56630e-08   1.14645e-07 DIIS
   @RHF iter  12:  -479.76741582873507   -2.30654e-09   3.84059e-08 DIIS
   @RHF iter  13:  -479.76741582890338   -1.68313e-10   1.10527e-08 DIIS
   @RHF iter  14:  -479.76741582890878   -5.40012e-12   4.87176e-09 DIIS
   @RHF iter  15:  -479.76741582891248   -3.69482e-12   2.16450e-09 DIIS
   @RHF iter  16:  -479.76741582891646   -3.97904e-12   9.21263e-10 DIIS
   @RHF iter  17:  -479.76741582891168    4.77485e-12   4.10664e-10 DIIS
   @RHF iter  18:  -479.76741582891833   -6.65068e-12   1.59497e-10 DIIS
   @RHF iter  19:  -479.76741582891566    2.67164e-12   5.53924e-11 DIIS
  Energy and wave function converged.

  ==> Post-Iterations <==

    Orbital Energies [Eh]
    ---------------------

    Doubly Occupied:

       1A    -15.603452     2A    -11.263903     3A    -11.263691
       4A    -11.230834     5A    -11.229576     6A    -11.228193
       7A    -11.225430     8A    -11.221377     9A    -11.220015
      10A    -11.216896    11A    -11.216297    12A    -11.209954
      13A     -1.298036    14A     -1.129045    15A     -1.074046
      16A     -1.013452    17A     -0.998749    18A     -0.987653
      19A     -0.931192    20A     -0.839881    21A     -0.832977
      22A     -0.805890    23A     -0.753188    24A     -0.720367
      25A     -0.665307    26A     -0.643016    27A     -0.603832
      28A     -0.595263    29A     -0.592120    30A     -0.589753
      31A     -0.588185    32A     -0.569346    33A     -0.552360
      34A     -0.537534    35A     -0.527774    36A     -0.499127
      37A     -0.494947    38A     -0.482454    39A     -0.478487
      40A     -0.469740    41A     -0.461597    42A     -0.373965
      43A     -0.295332    44A     -0.273350

    Virtual:

      45A      0.124540    46A      0.165267    47A      0.172059
      48A      0.182792    49A      0.191108    50A      0.216241
      51A      0.217694    52A      0.228512    53A      0.231736
      54A      0.240015    55A      0.253253    56A      0.260570
      57A      0.268643    58A      0.279669    59A      0.295297
      60A      0.307909    61A      0.318379    62A      0.340696
      63A      0.372820    64A      0.388610    65A      0.401745
      66A      0.407265    67A      0.423006    68A      0.448790
      69A      0.471212    70A      0.481171    71A      0.501593
      72A      0.515933    73A      0.589151    74A      0.597979
      75A      0.604022    76A      0.617632    77A      0.621183
      78A      0.640587    79A      0.644354    80A      0.651970
      81A      0.666773    82A      0.690711    83A      0.692739
      84A      0.715863    85A      0.720335    86A      0.725056
      87A      0.737423    88A      0.739724    89A      0.748031
      90A      0.759828    91A      0.764554    92A      0.778496
      93A      0.789271    94A      0.792372    95A      0.814374
      96A      0.846375    97A      0.850158    98A      0.863852
      99A      0.873611   100A      0.876399   101A      0.887736
     102A      0.888546   103A      0.893800   104A      0.901620
     105A      0.910529   106A      0.919383   107A      0.924585
     108A      0.946675   109A      0.949881   110A      0.952301
     111A      0.957292   112A      0.970452   113A      0.984931
     114A      0.992546   115A      0.999199   116A      1.017859
     117A      1.057203   118A      1.076616   119A      1.093384
     120A      1.123828   121A      1.130228   122A      1.133993
     123A      1.142804   124A      1.150286   125A      1.159182
     126A      1.177651   127A      1.210437   128A      1.221242
     129A      1.231966   130A      1.237056   131A      1.248049
     132A      1.257312   133A      1.282024   134A      1.287082
     135A      1.310654   136A      1.326266   137A      1.332554
     138A      1.363370   139A      1.370401   140A      1.427427
     141A      1.448371   142A      1.471278   143A      1.490819
     144A      1.514399   145A      1.544605   146A      1.566702
     147A      1.578376   148A      1.602650   149A      1.624312
     150A      1.636568   151A      1.654612   152A      1.684102
     153A      1.691587   154A      1.698428   155A      1.703129
     156A      1.742219   157A      1.764605   158A      1.782169
     159A      1.789732   160A      1.809556   161A      1.824286
     162A      1.834250   163A      1.872519   164A      1.879585
     165A      1.887876   166A      1.889349   167A      1.900678
     168A      1.903640   169A      1.908954   170A      1.918372
     171A      1.929479   172A      1.941112   173A      1.948156
     174A      1.951648   175A      1.955361   176A      1.963214
     177A      1.963469   178A      1.974309   179A      1.996146
     180A      2.001989   181A      2.012184   182A      2.013359
     183A      2.041205   184A      2.075882   185A      2.084445
     186A      2.086275   187A      2.095742   188A      2.110641
     189A      2.111013   190A      2.121005   191A      2.126527
     192A      2.141375   193A      2.167333   194A      2.175317
     195A      2.184047   196A      2.231462   197A      2.263664
     198A      2.285050   199A      2.301415   200A      2.307434
     201A      2.317463   202A      2.333818   203A      2.343442
     204A      2.363783   205A      2.396729   206A      2.412193
     207A      2.454132   208A      2.459794   209A      2.461171
     210A      2.467644   211A      2.539221   212A      2.558809
     213A      2.578988   214A      2.592922   215A      2.603230
     216A      2.625892   217A      2.667874   218A      2.684989
     219A      2.720600   220A      2.764117   221A      2.770600
     222A      2.776648   223A      2.785953   224A      2.800201
     225A      2.808778   226A      2.830450   227A      2.860032
     228A      2.861053   229A      2.874412   230A      2.882337
     231A      2.915917   232A      2.954613   233A      2.966139
     234A      2.977927   235A      3.028743   236A      3.053366
     237A      3.074464   238A      3.129903   239A      3.206401
     240A      3.302252   241A      3.391442   242A      3.737642
     243A      3.956028

    Final Occupation by Irrep:
              A
    DOCC [    44 ]

  @RHF Final Energy:  -479.76741582891566

   => Energetics <=

    Nuclear Repulsion Energy =            644.5834147237090974
    One-Electron Energy =               -1927.0864972001991191
    Two-Electron Energy =                 802.7356666475742486
    Total Energy =                       -479.7674158289156594

Computation Completed

Properties will be evaluated at   0.000000,   0.000000,   0.000000 [a0]

Properties computed using the SCF density matrix

  Nuclear Dipole Moment: [e a0]
     X:    11.2912      Y:     4.7750      Z:    -7.1566

  Electronic Dipole Moment: [e a0]
     X:   -11.0931      Y:    -5.5261      Z:     7.4693

  Dipole Moment: [e a0]
     X:     0.1981      Y:    -0.7510      Z:     0.3127     Total:     0.8373

  Dipole Moment: [D]
     X:     0.5035      Y:    -1.9090      Z:     0.7949     Total:     2.1282

*** tstop() called on ds3 at Mon Apr 27 22:04:10 2020
Module time:
	user time   =     167.17 seconds =       2.79 minutes
	system time =      68.92 seconds =       1.15 minutes
	total time  =        237 seconds =       3.95 minutes
Total time:
	user time   =     167.17 seconds =       2.79 minutes
	system time =      68.92 seconds =       1.15 minutes
	total time  =        237 seconds =       3.95 minutes
                                     G D M A

                                 by Anthony Stone

                           version 2.2.06, 22 June 2011

               Distributed Multipoles from Gaussian wavefunctions

Starting at 22:4:10 on 27 Apr 2020

Using SCF density matrix from file ./SSI/SSI-026ILE-037TRP-1-dimer.test.30245.fchk

                         Distributed Multipole Analysis

Standard DMA

Positions and radii in angstrom
Multipole moments in atomic units, ea_0^k for rank k

C          x =  3.632741  y =  1.092837  z = -1.887516 angstrom
           Maximum rank =  0   Radius =  0.650 angstrom
                   Q00  =  -0.229830

C          x =  4.638741  y =  2.044837  z = -1.242516 angstrom
           Maximum rank =  0   Radius =  0.650 angstrom
                   Q00  =  -0.238836

H          x =  4.077741  y =  0.598837  z = -2.752516 angstrom
           Maximum rank =  0   Radius =  0.325 angstrom
                   Q00  =   0.075332

H          x =  3.297741  y =  0.338837  z = -1.178516 angstrom
           Maximum rank =  0   Radius =  0.325 angstrom
                   Q00  =   0.081704

H          x =  2.743741  y =  1.637837  z = -2.200516 angstrom
           Maximum rank =  0   Radius =  0.325 angstrom
                   Q00  =   0.083583

H          x =  4.135741  y =  2.564837  z = -0.425516 angstrom
           Maximum rank =  0   Radius =  0.325 angstrom
                   Q00  =   0.073264

H          x =  5.017557  y =  2.791011  z = -1.956466 angstrom
           Maximum rank =  0   Radius =  0.325 angstrom
                   Q00  =   0.080434

H          x =  5.491256  y =  1.477446  z = -0.840916 angstrom
           Maximum rank =  0   Radius =  0.325 angstrom
                   Q00  =   0.075298

C          x = -3.527259  y = -1.701163  z = -0.258516 angstrom
           Maximum rank =  0   Radius =  0.650 angstrom
                   Q00  =  -0.217143

C          x = -0.089259  y = -0.559163  z =  0.747484 angstrom
           Maximum rank =  0   Radius =  0.650 angstrom
                   Q00  =   0.286766

C          x = -1.366259  y = -0.281163  z =  0.174484 angstrom
           Maximum rank =  0   Radius =  0.650 angstrom
                   Q00  =  -0.041331

C          x = -2.133259  y = -1.485163  z =  0.232484 angstrom
           Maximum rank =  0   Radius =  0.650 angstrom
                   Q00  =  -0.125093

C          x = -1.338259  y = -2.423163  z =  0.825484 angstrom
           Maximum rank =  0   Radius =  0.650 angstrom
                   Q00  =   0.072530

C          x =  0.637741  y =  1.674837  z =  0.372484 angstrom
           Maximum rank =  0   Radius =  0.650 angstrom
                   Q00  =  -0.080927

C          x =  0.896741  y =  0.408837  z =  0.861484 angstrom
           Maximum rank =  0   Radius =  0.650 angstrom
                   Q00  =  -0.121069

C          x = -0.612259  y =  1.974837  z = -0.208516 angstrom
           Maximum rank =  0   Radius =  0.650 angstrom
                   Q00  =  -0.078498

C          x = -1.601259  y =  1.009837  z = -0.304516 angstrom
           Maximum rank =  0   Radius =  0.650 angstrom
                   Q00  =  -0.097001

N          x = -0.128259  y = -1.871163  z =  1.138484 angstrom
           Maximum rank =  0   Radius =  0.650 angstrom
                   Q00  =  -0.486171

H          x =  1.398741  y =  2.441837  z =  0.432484 angstrom
           Maximum rank =  0   Radius =  0.325 angstrom
                   Q00  =   0.066577

H          x =  1.850741  y =  0.172837  z =  1.311484 angstrom
           Maximum rank =  0   Radius =  0.325 angstrom
                   Q00  =   0.072009

H          x = -0.798259  y =  2.962837  z = -0.603516 angstrom
           Maximum rank =  0   Radius =  0.325 angstrom
                   Q00  =   0.060672

H          x = -2.546259  y =  1.229837  z = -0.769516 angstrom
           Maximum rank =  0   Radius =  0.325 angstrom
                   Q00  =   0.067849

H          x =  0.625741  y = -2.378163  z =  1.591484 angstrom
           Maximum rank =  0   Radius =  0.325 angstrom
                   Q00  =   0.213740

H          x = -1.629259  y = -3.452163  z =  1.017484 angstrom
           Maximum rank =  0   Radius =  0.325 angstrom
                   Q00  =   0.100772

H          x = -3.581259  y = -2.707163  z = -0.678516 angstrom
           Maximum rank =  0   Radius =  0.325 angstrom
                   Q00  =   0.100922

H          x = -3.715259  y = -0.999163  z = -1.068516 angstrom
           Maximum rank =  0   Radius =  0.325 angstrom
                   Q00  =   0.104488

H          x = -4.324759  y = -1.591788  z =  0.491174 angstrom
           Maximum rank =  0   Radius =  0.325 angstrom
                   Q00  =   0.099958

Total multipoles referred to origin at
           x =   0.000000,  y =    0.000000,  z =    0.000000 angstrom
                   Q00  =  -0.000000

Finished at 22:4:10 on 27 Apr 2020

  DMA results are available in the Python driver through the
	  variable('DMA DISTRIBUTED MULTIPOLES')
  and
	  variable('DMA TOTAL MULTIPOLES')
  commands.

    Psi4 stopped on: Monday, 27 April 2020 10:04PM
    Psi4 wall time for execution: 0:03:56.43

*** Psi4 exiting successfully. Buy a developer a beer!
