                               Psi4 1.3.2 release

  ==> Input File <==

--------------------------------------------------------------------------
import numpy as np
set {scf_type pk
basis cc-pvdz
d_convergence 10
gdma_switch   0
gdma_limit    0
gdma_origin   [ 0.0,  0.0,  0.0 ]
}
molecule test {
    units Angstrom
    -1 1
    --
    -1 1
    C                1.352753715312201     0.941242611772163     0.763741074746468
    C                1.025753715312200     2.199242611772164     1.561741074746469
    C                2.852753715312201     0.826242611772163     0.540741074746468
    O                0.896753715312200    -0.207757388227837     1.467741074746469
    H                0.871753715312201     0.988242611772163    -0.212258925253532
    H                1.496753715312201     2.141242611772163     2.529741074746469
    H                3.058753715312201    -0.094757388227837    -0.005258925253532
    H                3.235753715312201     1.651242611772163    -0.059258925253532
    H                3.378753715312201     0.786242611772163     1.493741074746469
    H               -0.048246284687799    -0.249757388227837     1.230741074746468
    H               -0.061736284687799     2.307155611772163     1.687131074746469
    H                1.398443715312201     3.067643611772163     0.998731074746468
    C               -1.019246284687799    -0.749757388227837    -2.434258925253531
    C               -1.569246284687799    -0.938757388227837    -1.028258925253531
    O               -1.445246284687799     0.015242611772163    -0.217258925253531
    O               -2.108246284687799    -2.045757388227837    -0.763258925253532
    H               -0.708246284687799    -1.717757388227837    -2.841258925253531
    H               -0.115246284687799    -0.144757388227837    -2.375258925253532
    H               -1.809356284687799    -0.338029188227837    -3.079398925253531

}
e, wfn = energy('scf', return_wfn=True)
gdma(wfn)
dmavals = variable('DMA DISTRIBUTED MULTIPOLES')
charges = np.array(dmavals)
print(charges)
np.save('SSI-004THR-164GLU-1-dimer.npy', np.array(charges))--------------------------------------------------------------------------

*** tstart() called on ds3
*** at Tue Apr 28 09:04:12 2020

   => Loading Basis Set <=

    Name: CC-PVDZ
    Role: ORBITAL
    Keyword: BASIS
    atoms 1-3, 13-14  entry C          line   138 file /theoryfs2/ds/metcalf/miniconda2/envs/tf2gpu/share/psi4/basis/cc-pvdz.gbs
    atoms 4, 15-16    entry O          line   198 file /theoryfs2/ds/metcalf/miniconda2/envs/tf2gpu/share/psi4/basis/cc-pvdz.gbs
    atoms 5-12, 17-19 entry H          line    22 file /theoryfs2/ds/metcalf/miniconda2/envs/tf2gpu/share/psi4/basis/cc-pvdz.gbs

         ---------------------------------------------------------
                                   SCF
               by Justin Turney, Rob Parrish, Andy Simmonett
                          and Daniel G. A. Smith
                              RHF Reference
                        1 Threads,    500 MiB Core
         ---------------------------------------------------------

  ==> Geometry <==

    Molecular point group: c1
    Full point group: C1

    Geometry (in Angstrom), charge = -1, multiplicity = 1:

       Center              X                  Y                   Z               Mass
    ------------   -----------------  -----------------  -----------------  -----------------
         C            1.352753715312     0.941242611772     0.763741074746    12.000000000000
         C            1.025753715312     2.199242611772     1.561741074746    12.000000000000
         C            2.852753715312     0.826242611772     0.540741074746    12.000000000000
         O            0.896753715312    -0.207757388228     1.467741074746    15.994914619570
         H            0.871753715312     0.988242611772    -0.212258925254     1.007825032230
         H            1.496753715312     2.141242611772     2.529741074746     1.007825032230
         H            3.058753715312    -0.094757388228    -0.005258925254     1.007825032230
         H            3.235753715312     1.651242611772    -0.059258925254     1.007825032230
         H            3.378753715312     0.786242611772     1.493741074746     1.007825032230
         H           -0.048246284688    -0.249757388228     1.230741074746     1.007825032230
         H           -0.061736284688     2.307155611772     1.687131074746     1.007825032230
         H            1.398443715312     3.067643611772     0.998731074746     1.007825032230
         C           -1.019246284688    -0.749757388228    -2.434258925254    12.000000000000
         C           -1.569246284688    -0.938757388228    -1.028258925254    12.000000000000
         O           -1.445246284688     0.015242611772    -0.217258925254    15.994914619570
         O           -2.108246284688    -2.045757388228    -0.763258925254    15.994914619570
         H           -0.708246284688    -1.717757388228    -2.841258925254     1.007825032230
         H           -0.115246284688    -0.144757388228    -2.375258925254     1.007825032230
         H           -1.809356284688    -0.338029188228    -3.079398925254     1.007825032230

  Running in c1 symmetry.

  Rotational constants: A =      0.11209  B =      0.02644  C =      0.02536 [cm^-1]
  Rotational constants: A =   3360.38433  B =    792.54301  C =    760.30007 [MHz]
  Nuclear repulsion =  376.905103508378318

  Charge       = -1
  Multiplicity = 1
  Electrons    = 66
  Nalpha       = 33
  Nbeta        = 33

  ==> Algorithm <==

  SCF Algorithm Type is PK.
  DIIS enabled.
  MOM disabled.
  Fractional occupation disabled.
  Guess Type is SAD.
  Energy threshold   = 1.00e-06
  Density threshold  = 1.00e-10
  Integral threshold = 0.00e+00

  ==> Primary Basis <==

  Basis Set: CC-PVDZ
    Blend: CC-PVDZ
    Number of shells: 81
    Number of basis function: 167
    Number of Cartesian functions: 175
    Spherical Harmonics?: true
    Max angular momentum: 2

  ==> Pre-Iterations <==

   -------------------------------------------------------
    Irrep   Nso     Nmo     Nalpha   Nbeta   Ndocc  Nsocc
   -------------------------------------------------------
     A        167     167       0       0       0       0
   -------------------------------------------------------
    Total     167     167      33      33      33       0
   -------------------------------------------------------

  ==> Integral Setup <==

  Using integral reordering PK algorithm.
  Sizing the integral batches needed.
  Building batch lookup table.
   Calculation information:
      Number of atoms:                  19
      Number of AO shells:              81
      Number of primitives:            231
      Number of atomic orbitals:       175
      Number of basis functions:       167

      Integral cutoff                 1.00e-12
      Number of threads:                 1

	Batch   1 pq = [       0,    9405] index = [             0,44231715] size =     44231715
	Batch   2 pq = [    9405,   13301] index = [      44231715,88464951] size =     44233236
	Batch   3 pq = [   13301,   14028] index = [      88464951,98399406] size =      9934455
  Task number: 9
  Buffer size: 11059200
  Buffer per thread: 2
  We computed 4649784 shell quartets total.
  Whereas there are 5516181 unique shell quartets.

  ==> DiskJK: Disk-Based J/K Matrices <==

    J tasked:                  Yes
    K tasked:                  Yes
    wK tasked:                  No
    Memory [MiB]:              375
    Schwarz Cutoff:          1E-12

    OpenMP threads:              1

  Minimum eigenvalue in the overlap matrix is 4.4567990207E-03.
  Using Symmetric Orthogonalization.

  SCF Guess: Superposition of Atomic Densities via on-the-fly atomic UHF.

  ==> Iterations <==

                        Total Energy        Delta E     RMS |[F,P]|

   @RHF iter SAD:  -418.62683620545857   -4.18627e+02   0.00000e+00
   @RHF iter   1:  -420.08036074825208   -1.45352e+00   4.74006e-03 DIIS
   @RHF iter   2:  -420.32247326523026   -2.42113e-01   2.61093e-03 DIIS
   @RHF iter   3:  -420.39165884446766   -6.91856e-02   4.11530e-04 DIIS
   @RHF iter   4:  -420.39477894436692   -3.12010e-03   1.53991e-04 DIIS
   @RHF iter   5:  -420.39521198518162   -4.33041e-04   2.77306e-05 DIIS
   @RHF iter   6:  -420.39522663725603   -1.46521e-05   1.19609e-05 DIIS
   @RHF iter   7:  -420.39522878424151   -2.14699e-06   2.80601e-06 DIIS
   @RHF iter   8:  -420.39522902486630   -2.40625e-07   1.29751e-06 DIIS
   @RHF iter   9:  -420.39522906951169   -4.46454e-08   5.04333e-07 DIIS
   @RHF iter  10:  -420.39522908064629   -1.11346e-08   1.95544e-07 DIIS
   @RHF iter  11:  -420.39522908218419   -1.53790e-09   6.43960e-08 DIIS
   @RHF iter  12:  -420.39522908232101   -1.36822e-10   1.85993e-08 DIIS
   @RHF iter  13:  -420.39522908233056   -9.54969e-12   4.29314e-09 DIIS
   @RHF iter  14:  -420.39522908233175   -1.19371e-12   1.17063e-09 DIIS
   @RHF iter  15:  -420.39522908233209   -3.41061e-13   3.79184e-10 DIIS
   @RHF iter  16:  -420.39522908233079    1.30740e-12   1.50071e-10 DIIS
   @RHF iter  17:  -420.39522908232971    1.08002e-12   6.70519e-11 DIIS
  Energy and wave function converged.

  ==> Post-Iterations <==

    Orbital Energies [Eh]
    ---------------------

    Doubly Occupied:

       1A    -20.388388     2A    -20.286743     3A    -20.275914
       4A    -11.136327     5A    -11.135821     6A    -11.100169
       7A    -11.094349     8A    -11.060848     9A     -1.196908
      10A     -1.163323    11A     -1.055101    12A     -0.912211
      13A     -0.813567    14A     -0.807419    15A     -0.657513
      16A     -0.556412    17A     -0.514528    18A     -0.481369
      19A     -0.466196    20A     -0.432903    21A     -0.425594
      22A     -0.424547    23A     -0.416812    24A     -0.413530
      25A     -0.387277    26A     -0.375857    27A     -0.354233
      28A     -0.329651    29A     -0.319294    30A     -0.282524
      31A     -0.201249    32A     -0.190930    33A     -0.182532

    Virtual:

      34A      0.297151    35A      0.333967    36A      0.347833
      37A      0.354328    38A      0.370019    39A      0.383661
      40A      0.397520    41A      0.406433    42A      0.412558
      43A      0.446746    44A      0.463367    45A      0.482422
      46A      0.500266    47A      0.548499    48A      0.557150
      49A      0.579423    50A      0.685349    51A      0.698655
      52A      0.722865    53A      0.734984    54A      0.794063
      55A      0.804791    56A      0.818281    57A      0.841320
      58A      0.877320    59A      0.895796    60A      0.924726
      61A      0.945629    62A      0.955780    63A      0.969042
      64A      0.983928    65A      1.000050    66A      1.005714
      67A      1.013617    68A      1.023955    69A      1.028813
      70A      1.030855    71A      1.036363    72A      1.050327
      73A      1.068383    74A      1.080746    75A      1.094282
      76A      1.107836    77A      1.143276    78A      1.201975
      79A      1.255579    80A      1.268407    81A      1.313780
      82A      1.326665    83A      1.331574    84A      1.394125
      85A      1.416775    86A      1.494588    87A      1.513242
      88A      1.548329    89A      1.553151    90A      1.570519
      91A      1.577842    92A      1.605728    93A      1.642126
      94A      1.664154    95A      1.675250    96A      1.706887
      97A      1.730307    98A      1.751484    99A      1.792783
     100A      1.796650   101A      1.807936   102A      1.817942
     103A      1.820187   104A      1.836353   105A      1.918926
     106A      1.979014   107A      1.988492   108A      1.998870
     109A      2.020479   110A      2.037394   111A      2.045645
     112A      2.057273   113A      2.097654   114A      2.101416
     115A      2.110295   116A      2.126033   117A      2.138853
     118A      2.147557   119A      2.160155   120A      2.181572
     121A      2.196236   122A      2.247481   123A      2.254812
     124A      2.286712   125A      2.330922   126A      2.358812
     127A      2.384704   128A      2.391367   129A      2.423022
     130A      2.435011   131A      2.469075   132A      2.508635
     133A      2.536970   134A      2.631623   135A      2.650253
     136A      2.667204   137A      2.683011   138A      2.707519
     139A      2.713138   140A      2.737275   141A      2.775019
     142A      2.790300   143A      2.873369   144A      2.898519
     145A      2.915447   146A      2.921069   147A      2.951300
     148A      2.954745   149A      2.980043   150A      2.998106
     151A      3.032756   152A      3.152855   153A      3.228392
     154A      3.253176   155A      3.280068   156A      3.338789
     157A      3.511857   158A      3.567538   159A      3.595858
     160A      3.675078   161A      3.761294   162A      3.787129
     163A      3.820971   164A      4.028016   165A      4.066274
     166A      4.159396   167A      4.291731

    Final Occupation by Irrep:
              A
    DOCC [    33 ]

  @RHF Final Energy:  -420.39522908232971

   => Energetics <=

    Nuclear Repulsion Energy =            376.9051035083783177
    One-Electron Energy =               -1334.9205904315022053
    Two-Electron Energy =                 537.6202578407942383
    Total Energy =                       -420.3952290823297062

Computation Completed

Properties will be evaluated at   0.000000,   0.000000,   0.000000 [a0]

Properties computed using the SCF density matrix

  Nuclear Dipole Moment: [e a0]
     X:    10.0157      Y:     7.8609      Z:    -0.5907

  Electronic Dipole Moment: [e a0]
     X:    -7.7001      Y:    -5.9334      Z:     0.4958

  Dipole Moment: [e a0]
     X:     2.3156      Y:     1.9275      Z:    -0.0949     Total:     3.0143

  Dipole Moment: [D]
     X:     5.8857      Y:     4.8992      Z:    -0.2413     Total:     7.6617

*** tstop() called on ds3 at Tue Apr 28 09:05:08 2020
Module time:
	user time   =      33.90 seconds =       0.56 minutes
	system time =      13.64 seconds =       0.23 minutes
	total time  =         56 seconds =       0.93 minutes
Total time:
	user time   =      33.90 seconds =       0.56 minutes
	system time =      13.64 seconds =       0.23 minutes
	total time  =         56 seconds =       0.93 minutes
                                     G D M A

                                 by Anthony Stone

                           version 2.2.06, 22 June 2011

               Distributed Multipoles from Gaussian wavefunctions

Starting at 9:5:8 on 28 Apr 2020

Using SCF density matrix from file ./SSI/SSI-004THR-164GLU-1-dimer.test.9422.fchk

                         Distributed Multipole Analysis

Standard DMA

Positions and radii in angstrom
Multipole moments in atomic units, ea_0^k for rank k

C          x =  1.352754  y =  0.941243  z =  0.763741 angstrom
           Maximum rank =  0   Radius =  0.650 angstrom
                   Q00  =   0.220356

C          x =  1.025754  y =  2.199243  z =  1.561741 angstrom
           Maximum rank =  0   Radius =  0.650 angstrom
                   Q00  =  -0.245483

C          x =  2.852754  y =  0.826243  z =  0.540741 angstrom
           Maximum rank =  0   Radius =  0.650 angstrom
                   Q00  =  -0.248993

O          x =  0.896754  y = -0.207757  z =  1.467741 angstrom
           Maximum rank =  0   Radius =  0.650 angstrom
                   Q00  =  -0.664741

H          x =  0.871754  y =  0.988243  z = -0.212259 angstrom
           Maximum rank =  0   Radius =  0.325 angstrom
                   Q00  =   0.022079

H          x =  1.496754  y =  2.141243  z =  2.529741 angstrom
           Maximum rank =  0   Radius =  0.325 angstrom
                   Q00  =   0.064822

H          x =  3.058754  y = -0.094757  z = -0.005259 angstrom
           Maximum rank =  0   Radius =  0.325 angstrom
                   Q00  =   0.082986

H          x =  3.235754  y =  1.651243  z = -0.059259 angstrom
           Maximum rank =  0   Radius =  0.325 angstrom
                   Q00  =   0.054677

H          x =  3.378754  y =  0.786243  z =  1.493741 angstrom
           Maximum rank =  0   Radius =  0.325 angstrom
                   Q00  =   0.066104

H          x = -0.048246  y = -0.249757  z =  1.230741 angstrom
           Maximum rank =  0   Radius =  0.325 angstrom
                   Q00  =   0.485165

H          x = -0.061736  y =  2.307156  z =  1.687131 angstrom
           Maximum rank =  0   Radius =  0.325 angstrom
                   Q00  =   0.098803

H          x =  1.398444  y =  3.067644  z =  0.998731 angstrom
           Maximum rank =  0   Radius =  0.325 angstrom
                   Q00  =   0.041965

C          x = -1.019246  y = -0.749757  z = -2.434259 angstrom
           Maximum rank =  0   Radius =  0.650 angstrom
                   Q00  =  -0.258349

C          x = -1.569246  y = -0.938757  z = -1.028259 angstrom
           Maximum rank =  0   Radius =  0.650 angstrom
                   Q00  =   0.952474

O          x = -1.445246  y =  0.015243  z = -0.217259 angstrom
           Maximum rank =  0   Radius =  0.650 angstrom
                   Q00  =  -0.937558

O          x = -2.108246  y = -2.045757  z = -0.763259 angstrom
           Maximum rank =  0   Radius =  0.650 angstrom
                   Q00  =  -0.913497

H          x = -0.708246  y = -1.717757  z = -2.841259 angstrom
           Maximum rank =  0   Radius =  0.325 angstrom
                   Q00  =   0.059737

H          x = -0.115246  y = -0.144757  z = -2.375259 angstrom
           Maximum rank =  0   Radius =  0.325 angstrom
                   Q00  =   0.047609

H          x = -1.809356  y = -0.338029  z = -3.079399 angstrom
           Maximum rank =  0   Radius =  0.325 angstrom
                   Q00  =   0.071843

Total multipoles referred to origin at
           x =   0.000000,  y =    0.000000,  z =    0.000000 angstrom
                   Q00  =  -1.000000

Finished at 9:5:8 on 28 Apr 2020

  DMA results are available in the Python driver through the
	  variable('DMA DISTRIBUTED MULTIPOLES')
  and
	  variable('DMA TOTAL MULTIPOLES')
  commands.

    Psi4 stopped on: Tuesday, 28 April 2020 09:05AM
    Psi4 wall time for execution: 0:00:56.32

*** Psi4 exiting successfully. Buy a developer a beer!
