                               Psi4 1.3.2 release

  ==> Input File <==

--------------------------------------------------------------------------
import numpy as np
set {scf_type pk
basis cc-pvdz
d_convergence 10
gdma_switch   0
gdma_limit    0
gdma_origin   [ 0.0,  0.0,  0.0 ]
}
molecule test {
    units Angstrom
    0 1
    --
    0 1
    C                3.032053773083154    -0.573531301769758    -0.690377910874546
    C               -0.869946226916846    -0.482531301769758     1.112622089125454
    C               -0.627946226916846    -1.316531301769758     0.019622089125454
    C                0.130053773083155     0.308468698230242     1.609622089125454
    C                0.645053773083154    -1.374531301769758    -0.559377910874546
    C                1.376053773083154     0.256468698230242     1.018622089125454
    C                1.667053773083154    -0.601531301769758    -0.035377910874546
    O               -2.108946226916846    -0.372531301769758     1.688622089125454
    H               -1.428946226916846    -1.919531301769758    -0.382377910874546
    H               -2.750946226916846    -0.956531301769758     1.270622089125454
    H               -0.066946226916845     0.969468698230242     2.440622089125454
    H                0.829053773083154    -2.023531301769758    -1.404377910874546
    H                2.164053773083154     0.886468698230242     1.407622089125455
    H                3.461053773083155     0.410468698230242    -0.500377910874546
    H                2.893053773083154    -0.647531301769758    -1.766377910874546
    H                3.750033773083155    -1.343981301769758    -0.372711910874546
    C               -0.620946226916846     2.064468698230242    -1.667377910874545
    C               -2.003946226916846     1.665468698230242    -2.161377910874546
    H               -0.141946226916845     2.718468698230242    -2.397377910874546
    H               -0.696946226916845     2.580468698230242    -0.709377910874546
    H               -0.004946226916845     1.176468698230242    -1.537377910874546
    H               -2.479946226916846     1.095468698230242    -1.362377910874546
    H               -1.922256226916846     1.035198698230242    -3.059198910874546
    H               -2.609546226916846     2.571338698230242    -2.311873910874545

}
e, wfn = energy('scf', return_wfn=True)
gdma(wfn)
dmavals = variable('DMA DISTRIBUTED MULTIPOLES')
charges = np.array(dmavals)
print(charges)
np.save('SSI-068TYR-078ALA-1-dimer.npy', np.array(charges))--------------------------------------------------------------------------

*** tstart() called on ds3
*** at Mon Apr 27 19:50:28 2020

   => Loading Basis Set <=

    Name: CC-PVDZ
    Role: ORBITAL
    Keyword: BASIS
    atoms 1-7, 17-18  entry C          line   138 file /theoryfs2/ds/metcalf/miniconda2/envs/tf2gpu/share/psi4/basis/cc-pvdz.gbs
    atoms 8           entry O          line   198 file /theoryfs2/ds/metcalf/miniconda2/envs/tf2gpu/share/psi4/basis/cc-pvdz.gbs
    atoms 9-16, 19-24 entry H          line    22 file /theoryfs2/ds/metcalf/miniconda2/envs/tf2gpu/share/psi4/basis/cc-pvdz.gbs

         ---------------------------------------------------------
                                   SCF
               by Justin Turney, Rob Parrish, Andy Simmonett
                          and Daniel G. A. Smith
                              RHF Reference
                        1 Threads,    500 MiB Core
         ---------------------------------------------------------

  ==> Geometry <==

    Molecular point group: c1
    Full point group: C1

    Geometry (in Angstrom), charge = 0, multiplicity = 1:

       Center              X                  Y                   Z               Mass
    ------------   -----------------  -----------------  -----------------  -----------------
         C            3.032053773083    -0.573531301770    -0.690377910875    12.000000000000
         C           -0.869946226917    -0.482531301770     1.112622089125    12.000000000000
         C           -0.627946226917    -1.316531301770     0.019622089125    12.000000000000
         C            0.130053773083     0.308468698230     1.609622089125    12.000000000000
         C            0.645053773083    -1.374531301770    -0.559377910875    12.000000000000
         C            1.376053773083     0.256468698230     1.018622089125    12.000000000000
         C            1.667053773083    -0.601531301770    -0.035377910875    12.000000000000
         O           -2.108946226917    -0.372531301770     1.688622089125    15.994914619570
         H           -1.428946226917    -1.919531301770    -0.382377910875     1.007825032230
         H           -2.750946226917    -0.956531301770     1.270622089125     1.007825032230
         H           -0.066946226917     0.969468698230     2.440622089125     1.007825032230
         H            0.829053773083    -2.023531301770    -1.404377910875     1.007825032230
         H            2.164053773083     0.886468698230     1.407622089125     1.007825032230
         H            3.461053773083     0.410468698230    -0.500377910875     1.007825032230
         H            2.893053773083    -0.647531301770    -1.766377910875     1.007825032230
         H            3.750033773083    -1.343981301770    -0.372711910875     1.007825032230
         C           -0.620946226917     2.064468698230    -1.667377910875    12.000000000000
         C           -2.003946226917     1.665468698230    -2.161377910875    12.000000000000
         H           -0.141946226917     2.718468698230    -2.397377910875     1.007825032230
         H           -0.696946226917     2.580468698230    -0.709377910875     1.007825032230
         H           -0.004946226917     1.176468698230    -1.537377910875     1.007825032230
         H           -2.479946226917     1.095468698230    -1.362377910875     1.007825032230
         H           -1.922256226917     1.035198698230    -3.059198910875     1.007825032230
         H           -2.609546226917     2.571338698230    -2.311873910875     1.007825032230

  Running in c1 symmetry.

  Rotational constants: A =      0.04306  B =      0.03330  C =      0.02396 [cm^-1]
  Rotational constants: A =   1290.88655  B =    998.32513  C =    718.44260 [MHz]
  Nuclear repulsion =  514.662933259927058

  Charge       = 0
  Multiplicity = 1
  Electrons    = 76
  Nalpha       = 38
  Nbeta        = 38

  ==> Algorithm <==

  SCF Algorithm Type is PK.
  DIIS enabled.
  MOM disabled.
  Fractional occupation disabled.
  Guess Type is SAD.
  Energy threshold   = 1.00e-06
  Density threshold  = 1.00e-10
  Integral threshold = 0.00e+00

  ==> Primary Basis <==

  Basis Set: CC-PVDZ
    Blend: CC-PVDZ
    Number of shells: 102
    Number of basis function: 210
    Number of Cartesian functions: 220
    Spherical Harmonics?: true
    Max angular momentum: 2

  ==> Pre-Iterations <==

   -------------------------------------------------------
    Irrep   Nso     Nmo     Nalpha   Nbeta   Ndocc  Nsocc
   -------------------------------------------------------
     A        210     210       0       0       0       0
   -------------------------------------------------------
    Total     210     210      38      38      38       0
   -------------------------------------------------------

  ==> Integral Setup <==

  Using integral reordering PK algorithm.
  Sizing the integral batches needed.
  Building batch lookup table.
   Calculation information:
      Number of atoms:                  24
      Number of AO shells:             102
      Number of primitives:            290
      Number of atomic orbitals:       220
      Number of basis functions:       210

      Integral cutoff                 1.00e-12
      Number of threads:                 1

	Batch   1 pq = [       0,    9405] index = [             0,44231715] size =     44231715
	Batch   2 pq = [    9405,   13301] index = [      44231715,88464951] size =     44233236
	Batch   3 pq = [   13301,   16290] index = [      88464951,132690195] size =     44225244
	Batch   4 pq = [   16290,   18810] index = [     132690195,176917455] size =     44227260
	Batch   5 pq = [   18810,   21030] index = [     176917455,221140965] size =     44223510
	Batch   6 pq = [   21030,   22155] index = [     221140965,245433090] size =     24292125
  Task number: 23
  Buffer size: 11059200
  Buffer per thread: 2
  We computed 13915701 shell quartets total.
  Whereas there are 13799631 unique shell quartets.
     0.84 percent of shell quartets recomputed by reordering.

  ==> DiskJK: Disk-Based J/K Matrices <==

    J tasked:                  Yes
    K tasked:                  Yes
    wK tasked:                  No
    Memory [MiB]:              375
    Schwarz Cutoff:          1E-12

    OpenMP threads:              1

  Minimum eigenvalue in the overlap matrix is 3.1385789515E-04.
  Using Symmetric Orthogonalization.

  SCF Guess: Superposition of Atomic Densities via on-the-fly atomic UHF.

  ==> Iterations <==

                        Total Energy        Delta E     RMS |[F,P]|

   @RHF iter SAD:  -422.76263631525370   -4.22763e+02   0.00000e+00
   @RHF iter   1:  -423.59693546274235   -8.34299e-01   2.99876e-03 DIIS
   @RHF iter   2:  -423.81487737703799   -2.17942e-01   1.27118e-03 DIIS
   @RHF iter   3:  -423.85044951075520   -3.55721e-02   2.79044e-04 DIIS
   @RHF iter   4:  -423.85327837140812   -2.82886e-03   1.10341e-04 DIIS
   @RHF iter   5:  -423.85358930118718   -3.10930e-04   2.12430e-05 DIIS
   @RHF iter   6:  -423.85360709103878   -1.77899e-05   6.43330e-06 DIIS
   @RHF iter   7:  -423.85360875706226   -1.66602e-06   2.08172e-06 DIIS
   @RHF iter   8:  -423.85360898327718   -2.26215e-07   8.02878e-07 DIIS
   @RHF iter   9:  -423.85360902253518   -3.92580e-08   3.33991e-07 DIIS
   @RHF iter  10:  -423.85360903057494   -8.03976e-09   1.38463e-07 DIIS
   @RHF iter  11:  -423.85360903291257   -2.33763e-09   6.15996e-08 DIIS
   @RHF iter  12:  -423.85360903337380   -4.61228e-10   2.87292e-08 DIIS
   @RHF iter  13:  -423.85360903345065   -7.68523e-11   8.26104e-09 DIIS
   @RHF iter  14:  -423.85360903345463   -3.97904e-12   2.19191e-09 DIIS
   @RHF iter  15:  -423.85360903345418    4.54747e-13   7.27189e-10 DIIS
   @RHF iter  16:  -423.85360903345651   -2.33058e-12   2.55964e-10 DIIS
   @RHF iter  17:  -423.85360903345429    2.21689e-12   1.19872e-10 DIIS
   @RHF iter  18:  -423.85360903345315    1.13687e-12   6.24837e-11 DIIS
  Energy and wave function converged.

  ==> Post-Iterations <==

    Orbital Energies [Eh]
    ---------------------

    Doubly Occupied:

       1A    -20.584210     2A    -11.298071     3A    -11.240592
       4A    -11.236048     5A    -11.235982     6A    -11.233162
       7A    -11.228611     8A    -11.226863     9A    -11.211198
      10A    -11.202801    11A     -1.397459    12A     -1.156465
      13A     -1.041027    14A     -1.019854    15A     -1.010411
      16A     -0.928295    17A     -0.848051    18A     -0.824789
      19A     -0.802847    20A     -0.732043    21A     -0.668441
      22A     -0.641797    23A     -0.609546    24A     -0.596173
      25A     -0.593143    26A     -0.587927    27A     -0.579234
      28A     -0.570578    29A     -0.565874    30A     -0.527817
      31A     -0.497525    32A     -0.490668    33A     -0.487810
      34A     -0.482422    35A     -0.475854    36A     -0.460518
      37A     -0.340345    38A     -0.306262

    Virtual:

      39A      0.128725    40A      0.154811    41A      0.169245
      42A      0.183266    43A      0.207638    44A      0.211678
      45A      0.217367    46A      0.250657    47A      0.257205
      48A      0.264185    49A      0.266742    50A      0.278860
      51A      0.282411    52A      0.292362    53A      0.302256
      54A      0.323917    55A      0.369342    56A      0.375514
      57A      0.405228    58A      0.426710    59A      0.455341
      60A      0.485578    61A      0.499084    62A      0.505783
      63A      0.579048    64A      0.591149    65A      0.605292
      66A      0.614109    67A      0.635581    68A      0.640545
      69A      0.669147    70A      0.671976    71A      0.673864
      72A      0.689199    73A      0.708236    74A      0.728544
      75A      0.738683    76A      0.764221    77A      0.769961
      78A      0.781277    79A      0.800167    80A      0.820920
      81A      0.826683    82A      0.839091    83A      0.844465
      84A      0.869716    85A      0.876303    86A      0.877815
      87A      0.884326    88A      0.891323    89A      0.896429
      90A      0.908021    91A      0.912907    92A      0.919753
      93A      0.931011    94A      0.936016    95A      0.938379
      96A      0.952654    97A      0.968419    98A      0.983929
      99A      0.994129   100A      1.020072   101A      1.039377
     102A      1.115269   103A      1.121209   104A      1.133303
     105A      1.142889   106A      1.150657   107A      1.160131
     108A      1.175317   109A      1.195154   110A      1.245289
     111A      1.255873   112A      1.265336   113A      1.284452
     114A      1.302189   115A      1.307526   116A      1.313967
     117A      1.333412   118A      1.362934   119A      1.374968
     120A      1.396982   121A      1.477895   122A      1.488602
     123A      1.499881   124A      1.506859   125A      1.524483
     126A      1.540169   127A      1.582402   128A      1.615579
     129A      1.626799   130A      1.678113   131A      1.679205
     132A      1.701514   133A      1.708702   134A      1.735823
     135A      1.763286   136A      1.781793   137A      1.804512
     138A      1.822616   139A      1.860919   140A      1.879180
     141A      1.881791   142A      1.889694   143A      1.899288
     144A      1.905712   145A      1.922800   146A      1.930582
     147A      1.936420   148A      1.950030   149A      1.960771
     150A      1.963693   151A      1.965032   152A      1.971782
     153A      1.981171   154A      1.987539   155A      1.997060
     156A      2.005876   157A      2.043477   158A      2.048464
     159A      2.066963   160A      2.080495   161A      2.087663
     162A      2.117070   163A      2.136686   164A      2.150858
     165A      2.160313   166A      2.179136   167A      2.213528
     168A      2.237960   169A      2.255539   170A      2.274526
     171A      2.296903   172A      2.304208   173A      2.321734
     174A      2.332019   175A      2.385890   176A      2.427085
     177A      2.446294   178A      2.469069   179A      2.473704
     180A      2.494461   181A      2.503335   182A      2.539083
     183A      2.553328   184A      2.583180   185A      2.594116
     186A      2.598271   187A      2.649758   188A      2.753797
     189A      2.771894   190A      2.778366   191A      2.795693
     192A      2.811393   193A      2.819470   194A      2.851792
     195A      2.861450   196A      2.873566   197A      2.903110
     198A      2.959675   199A      2.970291   200A      3.010942
     201A      3.018005   202A      3.089390   203A      3.120822
     204A      3.247455   205A      3.291621   206A      3.345371
     207A      3.566103   208A      3.689871   209A      3.953543
     210A      4.207813

    Final Occupation by Irrep:
              A
    DOCC [    38 ]

  @RHF Final Energy:  -423.85360903345315

   => Energetics <=

    Nuclear Repulsion Energy =            514.6629332599270583
    One-Electron Energy =               -1595.1516576573512793
    Two-Electron Energy =                 656.6351153639710674
    Total Energy =                       -423.8536090334531536

Computation Completed

Properties will be evaluated at   0.000000,   0.000000,   0.000000 [a0]

Properties computed using the SCF density matrix

  Nuclear Dipole Moment: [e a0]
     X:     0.9225      Y:     6.1412      Z:   -10.0087

  Electronic Dipole Moment: [e a0]
     X:    -0.8870      Y:    -6.5402      Z:     9.6557

  Dipole Moment: [e a0]
     X:     0.0355      Y:    -0.3991      Z:    -0.3530     Total:     0.5340

  Dipole Moment: [D]
     X:     0.0901      Y:    -1.0143      Z:    -0.8972     Total:     1.3572

*** tstop() called on ds3 at Mon Apr 27 19:52:50 2020
Module time:
	user time   =     100.81 seconds =       1.68 minutes
	system time =      35.71 seconds =       0.60 minutes
	total time  =        142 seconds =       2.37 minutes
Total time:
	user time   =     100.81 seconds =       1.68 minutes
	system time =      35.71 seconds =       0.60 minutes
	total time  =        142 seconds =       2.37 minutes
                                     G D M A

                                 by Anthony Stone

                           version 2.2.06, 22 June 2011

               Distributed Multipoles from Gaussian wavefunctions

Starting at 19:52:50 on 27 Apr 2020

Using SCF density matrix from file ./SSI/SSI-068TYR-078ALA-1-dimer.test.9828.fchk

                         Distributed Multipole Analysis

Standard DMA

Positions and radii in angstrom
Multipole moments in atomic units, ea_0^k for rank k

C          x =  3.032054  y = -0.573531  z = -0.690378 angstrom
           Maximum rank =  0   Radius =  0.650 angstrom
                   Q00  =  -0.198389

C          x = -0.869946  y = -0.482531  z =  1.112622 angstrom
           Maximum rank =  0   Radius =  0.650 angstrom
                   Q00  =   0.325327

C          x = -0.627946  y = -1.316531  z =  0.019622 angstrom
           Maximum rank =  0   Radius =  0.650 angstrom
                   Q00  =  -0.185217

C          x =  0.130054  y =  0.308469  z =  1.609622 angstrom
           Maximum rank =  0   Radius =  0.650 angstrom
                   Q00  =  -0.103423

C          x =  0.645054  y = -1.374531  z = -0.559378 angstrom
           Maximum rank =  0   Radius =  0.650 angstrom
                   Q00  =  -0.058289

C          x =  1.376054  y =  0.256469  z =  1.018622 angstrom
           Maximum rank =  0   Radius =  0.650 angstrom
                   Q00  =   0.057773

C          x =  1.667054  y = -0.601531  z = -0.035378 angstrom
           Maximum rank =  0   Radius =  0.650 angstrom
                   Q00  =  -0.136069

O          x = -2.108946  y = -0.372531  z =  1.688622 angstrom
           Maximum rank =  0   Radius =  0.650 angstrom
                   Q00  =  -0.676107

H          x = -1.428946  y = -1.919531  z = -0.382378 angstrom
           Maximum rank =  0   Radius =  0.325 angstrom
                   Q00  =   0.073394

H          x = -2.750946  y = -0.956531  z =  1.270622 angstrom
           Maximum rank =  0   Radius =  0.325 angstrom
                   Q00  =   0.404779

H          x = -0.066946  y =  0.969469  z =  2.440622 angstrom
           Maximum rank =  0   Radius =  0.325 angstrom
                   Q00  =   0.080069

H          x =  0.829054  y = -2.023531  z = -1.404378 angstrom
           Maximum rank =  0   Radius =  0.325 angstrom
                   Q00  =   0.071009

H          x =  2.164054  y =  0.886469  z =  1.407622 angstrom
           Maximum rank =  0   Radius =  0.325 angstrom
                   Q00  =   0.060757

H          x =  3.461054  y =  0.410469  z = -0.500378 angstrom
           Maximum rank =  0   Radius =  0.325 angstrom
                   Q00  =   0.095376

H          x =  2.893054  y = -0.647531  z = -1.766378 angstrom
           Maximum rank =  0   Radius =  0.325 angstrom
                   Q00  =   0.095070

H          x =  3.750034  y = -1.343981  z = -0.372712 angstrom
           Maximum rank =  0   Radius =  0.325 angstrom
                   Q00  =   0.101324

C          x = -0.620946  y =  2.064469  z = -1.667378 angstrom
           Maximum rank =  0   Radius =  0.650 angstrom
                   Q00  =  -0.236405

C          x = -2.003946  y =  1.665469  z = -2.161378 angstrom
           Maximum rank =  0   Radius =  0.650 angstrom
                   Q00  =  -0.228233

H          x = -0.141946  y =  2.718469  z = -2.397378 angstrom
           Maximum rank =  0   Radius =  0.325 angstrom
                   Q00  =   0.066714

H          x = -0.696946  y =  2.580469  z = -0.709378 angstrom
           Maximum rank =  0   Radius =  0.325 angstrom
                   Q00  =   0.079564

H          x = -0.004946  y =  1.176469  z = -1.537378 angstrom
           Maximum rank =  0   Radius =  0.325 angstrom
                   Q00  =   0.093060

H          x = -2.479946  y =  1.095469  z = -1.362378 angstrom
           Maximum rank =  0   Radius =  0.325 angstrom
                   Q00  =   0.068530

H          x = -1.922256  y =  1.035199  z = -3.059199 angstrom
           Maximum rank =  0   Radius =  0.325 angstrom
                   Q00  =   0.074895

H          x = -2.609546  y =  2.571339  z = -2.311874 angstrom
           Maximum rank =  0   Radius =  0.325 angstrom
                   Q00  =   0.074490

Total multipoles referred to origin at
           x =   0.000000,  y =    0.000000,  z =    0.000000 angstrom
                   Q00  =  -0.000000

Finished at 19:52:50 on 27 Apr 2020

  DMA results are available in the Python driver through the
	  variable('DMA DISTRIBUTED MULTIPOLES')
  and
	  variable('DMA TOTAL MULTIPOLES')
  commands.

    Psi4 stopped on: Monday, 27 April 2020 07:52PM
    Psi4 wall time for execution: 0:02:22.25

*** Psi4 exiting successfully. Buy a developer a beer!
