                               Psi4 1.3.2 release

  ==> Input File <==

--------------------------------------------------------------------------
import numpy as np
set {scf_type pk
basis cc-pvdz
d_convergence 10
gdma_switch   0
gdma_limit    0
gdma_origin   [ 0.0,  0.0,  0.0 ]
}
molecule test {
    units Angstrom
    1 1
    --
    1 1
    C               -0.693055868156609     0.997179786462763     3.475513994742628
    C                0.936944131843391     0.386179786462763     1.733513994742628
    N                0.252944131843391     1.301179786462763     2.401513994742628
    N                0.764944131843391    -0.896820213537237     1.994513994742628
    N                1.785944131843391     0.762179786462763     0.799513994742628
    H                0.425944131843391     2.272179786462763     2.191513994742628
    H                0.257944131843391    -1.161820213537237     2.831513994742628
    H                1.176944131843391    -1.623820213537237     1.426513994742629
    H                1.964944131843391     1.739179786462763     0.632513994742628
    H                2.348944131843391     0.066179786462763     0.339513994742628
    H               -0.413055868156609     1.566179786462763     4.364513994742628
    H               -0.705055868156609    -0.044820213537237     3.737513994742629
    H               -1.724515868156609     1.261579786462763     3.199489994742629
    C               -0.327055868156609     2.038179786462763    -1.609486005257371
    C               -0.438055868156609     0.537179786462763    -1.660486005257371
    C               -1.685055868156609    -0.089820213537237    -1.636486005257371
    C                0.713944131843391    -0.245820213537237    -1.708486005257371
    C               -1.773055868156609    -1.481820213537237    -1.668486005257372
    C                0.633944131843391    -1.632820213537237    -1.716486005257371
    C               -0.611055868156609    -2.250820213537237    -1.727486005257371
    H                0.718944131843391     2.348179786462762    -1.646486005257371
    H               -0.713055868156609     2.341179786462763    -0.634486005257372
    H               -2.585055868156609     0.498179786462763    -1.575486005257371
    H                1.683944131843391     0.226179786462763    -1.774486005257371
    H               -2.742055868156609    -1.963820213537237    -1.667486005257371
    H                1.534944131843391    -2.229820213537237    -1.757486005257371
    H               -0.686055868156609    -3.316820213537237    -1.847486005257372
    H               -0.893205868156609     2.559839786462763    -2.395203005257371

}
e, wfn = energy('scf', return_wfn=True)
gdma(wfn)
dmavals = variable('DMA DISTRIBUTED MULTIPOLES')
charges = np.array(dmavals)
print(charges)
np.save('SSI-080ARG-088PHE-1-dimer.npy', np.array(charges))--------------------------------------------------------------------------

*** tstart() called on ds3
*** at Mon Apr 27 23:31:04 2020

   => Loading Basis Set <=

    Name: CC-PVDZ
    Role: ORBITAL
    Keyword: BASIS
    atoms 1-2, 14-20  entry C          line   138 file /theoryfs2/ds/metcalf/miniconda2/envs/tf2gpu/share/psi4/basis/cc-pvdz.gbs
    atoms 3-5         entry N          line   168 file /theoryfs2/ds/metcalf/miniconda2/envs/tf2gpu/share/psi4/basis/cc-pvdz.gbs
    atoms 6-13, 21-28 entry H          line    22 file /theoryfs2/ds/metcalf/miniconda2/envs/tf2gpu/share/psi4/basis/cc-pvdz.gbs

         ---------------------------------------------------------
                                   SCF
               by Justin Turney, Rob Parrish, Andy Simmonett
                          and Daniel G. A. Smith
                              RHF Reference
                        1 Threads,    500 MiB Core
         ---------------------------------------------------------

  ==> Geometry <==

    Molecular point group: c1
    Full point group: C1

    Geometry (in Angstrom), charge = 1, multiplicity = 1:

       Center              X                  Y                   Z               Mass
    ------------   -----------------  -----------------  -----------------  -----------------
         C           -0.693055868157     0.997179786463     3.475513994743    12.000000000000
         C            0.936944131843     0.386179786463     1.733513994743    12.000000000000
         N            0.252944131843     1.301179786463     2.401513994743    14.003074004430
         N            0.764944131843    -0.896820213537     1.994513994743    14.003074004430
         N            1.785944131843     0.762179786463     0.799513994743    14.003074004430
         H            0.425944131843     2.272179786463     2.191513994743     1.007825032230
         H            0.257944131843    -1.161820213537     2.831513994743     1.007825032230
         H            1.176944131843    -1.623820213537     1.426513994743     1.007825032230
         H            1.964944131843     1.739179786463     0.632513994743     1.007825032230
         H            2.348944131843     0.066179786463     0.339513994743     1.007825032230
         H           -0.413055868157     1.566179786463     4.364513994743     1.007825032230
         H           -0.705055868157    -0.044820213537     3.737513994743     1.007825032230
         H           -1.724515868157     1.261579786463     3.199489994743     1.007825032230
         C           -0.327055868157     2.038179786463    -1.609486005257    12.000000000000
         C           -0.438055868157     0.537179786463    -1.660486005257    12.000000000000
         C           -1.685055868157    -0.089820213537    -1.636486005257    12.000000000000
         C            0.713944131843    -0.245820213537    -1.708486005257    12.000000000000
         C           -1.773055868157    -1.481820213537    -1.668486005257    12.000000000000
         C            0.633944131843    -1.632820213537    -1.716486005257    12.000000000000
         C           -0.611055868157    -2.250820213537    -1.727486005257    12.000000000000
         H            0.718944131843     2.348179786463    -1.646486005257     1.007825032230
         H           -0.713055868157     2.341179786463    -0.634486005257     1.007825032230
         H           -2.585055868157     0.498179786463    -1.575486005257     1.007825032230
         H            1.683944131843     0.226179786463    -1.774486005257     1.007825032230
         H           -2.742055868157    -1.963820213537    -1.667486005257     1.007825032230
         H            1.534944131843    -2.229820213537    -1.757486005257     1.007825032230
         H           -0.686055868157    -3.316820213537    -1.847486005257     1.007825032230
         H           -0.893205868157     2.559839786463    -2.395203005257     1.007825032230

  Running in c1 symmetry.

  Rotational constants: A =      0.04225  B =      0.01873  C =      0.01764 [cm^-1]
  Rotational constants: A =   1266.57223  B =    561.46208  C =    528.95933 [MHz]
  Nuclear repulsion =  707.275608269126906

  Charge       = 1
  Multiplicity = 1
  Electrons    = 90
  Nalpha       = 45
  Nbeta        = 45

  ==> Algorithm <==

  SCF Algorithm Type is PK.
  DIIS enabled.
  MOM disabled.
  Fractional occupation disabled.
  Guess Type is SAD.
  Energy threshold   = 1.00e-06
  Density threshold  = 1.00e-10
  Integral threshold = 0.00e+00

  ==> Primary Basis <==

  Basis Set: CC-PVDZ
    Blend: CC-PVDZ
    Number of shells: 120
    Number of basis function: 248
    Number of Cartesian functions: 260
    Spherical Harmonics?: true
    Max angular momentum: 2

  ==> Pre-Iterations <==

   -------------------------------------------------------
    Irrep   Nso     Nmo     Nalpha   Nbeta   Ndocc  Nsocc
   -------------------------------------------------------
     A        248     248       0       0       0       0
   -------------------------------------------------------
    Total     248     248      45      45      45       0
   -------------------------------------------------------

  ==> Integral Setup <==

  Using integral reordering PK algorithm.
  Sizing the integral batches needed.
  Building batch lookup table.
   Calculation information:
      Number of atoms:                  28
      Number of AO shells:             120
      Number of primitives:            344
      Number of atomic orbitals:       260
      Number of basis functions:       248

      Integral cutoff                 1.00e-12
      Number of threads:                 1

	Batch   1 pq = [       0,    9405] index = [             0,44231715] size =     44231715
	Batch   2 pq = [    9405,   13301] index = [      44231715,88464951] size =     44233236
	Batch   3 pq = [   13301,   16290] index = [      88464951,132690195] size =     44225244
	Batch   4 pq = [   16290,   18810] index = [     132690195,176917455] size =     44227260
	Batch   5 pq = [   18810,   21030] index = [     176917455,221140965] size =     44223510
	Batch   6 pq = [   21030,   23037] index = [     221140965,265363203] size =     44222238
	Batch   7 pq = [   23037,   24883] index = [     265363203,309594286] size =     44231083
	Batch   8 pq = [   24883,   26601] index = [     309594286,353819901] size =     44225615
	Batch   9 pq = [   26601,   28214] index = [     353819901,398029005] size =     44209104
	Batch  10 pq = [   28214,   29740] index = [     398029005,442248670] size =     44219665
	Batch  11 pq = [   29740,   30876] index = [     442248670,476679126] size =     34430456
  Task number: 44
  Buffer size: 11059200
  Buffer per thread: 2
  We computed 29027368 shell quartets total.
  Whereas there are 26357430 unique shell quartets.
    10.13 percent of shell quartets recomputed by reordering.

  ==> DiskJK: Disk-Based J/K Matrices <==

    J tasked:                  Yes
    K tasked:                  Yes
    wK tasked:                  No
    Memory [MiB]:              375
    Schwarz Cutoff:          1E-12

    OpenMP threads:              1

  Minimum eigenvalue in the overlap matrix is 3.1124694804E-04.
  Using Symmetric Orthogonalization.

  SCF Guess: Superposition of Atomic Densities via on-the-fly atomic UHF.

  ==> Iterations <==

                        Total Energy        Delta E     RMS |[F,P]|

   @RHF iter SAD:  -512.73194439797999   -5.12732e+02   0.00000e+00
   @RHF iter   1:  -513.06884249380266   -3.36898e-01   2.59531e-03 DIIS
   @RHF iter   2:  -513.30175262862213   -2.32910e-01   1.00955e-03 DIIS
   @RHF iter   3:  -513.33376460444481   -3.20120e-02   2.51657e-04 DIIS
   @RHF iter   4:  -513.33687398535164   -3.10938e-03   4.76257e-05 DIIS
   @RHF iter   5:  -513.33697576597478   -1.01781e-04   1.70073e-05 DIIS
   @RHF iter   6:  -513.33698884438240   -1.30784e-05   5.15761e-06 DIIS
   @RHF iter   7:  -513.33699021143718   -1.36705e-06   1.89177e-06 DIIS
   @RHF iter   8:  -513.33699044161858   -2.30181e-07   5.11105e-07 DIIS
   @RHF iter   9:  -513.33699046483764   -2.32191e-08   2.17035e-07 DIIS
   @RHF iter  10:  -513.33699046944355   -4.60591e-09   1.04936e-07 DIIS
   @RHF iter  11:  -513.33699047142954   -1.98600e-09   4.39840e-08 DIIS
   @RHF iter  12:  -513.33699047180028   -3.70733e-10   1.82408e-08 DIIS
   @RHF iter  13:  -513.33699047183973   -3.94493e-11   5.13428e-09 DIIS
   @RHF iter  14:  -513.33699047184439   -4.66116e-12   1.55414e-09 DIIS
   @RHF iter  15:  -513.33699047184211    2.27374e-12   5.60923e-10 DIIS
   @RHF iter  16:  -513.33699047184382   -1.70530e-12   2.18173e-10 DIIS
   @RHF iter  17:  -513.33699047183745    6.36646e-12   9.08493e-11 DIIS
  Energy and wave function converged.

  ==> Post-Iterations <==

    Orbital Energies [Eh]
    ---------------------

    Doubly Occupied:

       1A    -15.781265     2A    -15.776450     3A    -15.775531
       4A    -11.580817     5A    -11.436739     6A    -11.352002
       7A    -11.346277     8A    -11.344508     9A    -11.343163
      10A    -11.341841    11A    -11.339316    12A    -11.338493
      13A     -1.537713    14A     -1.395796    15A     -1.382097
      16A     -1.263701    17A     -1.155091    18A     -1.138854
      19A     -1.122822    20A     -1.042834    21A     -1.031658
      22A     -0.972252    23A     -0.938563    24A     -0.931037
      25A     -0.905954    26A     -0.853549    27A     -0.850519
      28A     -0.813903    29A     -0.800996    30A     -0.790415
      31A     -0.742389    32A     -0.740398    33A     -0.736017
      34A     -0.724207    35A     -0.693318    36A     -0.689007
      37A     -0.671712    38A     -0.648795    39A     -0.608336
      40A     -0.600274    41A     -0.594086    42A     -0.589726
      43A     -0.575182    44A     -0.443133    45A     -0.430690

    Virtual:

      46A     -0.004579    47A      0.019352    48A      0.027029
      49A      0.031721    50A      0.033799    51A      0.044170
      52A      0.064459    53A      0.082101    54A      0.097895
      55A      0.107757    56A      0.113787    57A      0.127927
      58A      0.133486    59A      0.152674    60A      0.160739
      61A      0.166422    62A      0.175455    63A      0.181100
      64A      0.192358    65A      0.223250    66A      0.259009
      67A      0.266962    68A      0.285039    69A      0.334296
      70A      0.345576    71A      0.353758    72A      0.355188
      73A      0.368204    74A      0.390916    75A      0.422052
      76A      0.433297    77A      0.459476    78A      0.489033
      79A      0.491550    80A      0.522616    81A      0.535772
      82A      0.545790    83A      0.550797    84A      0.558413
      85A      0.573371    86A      0.586438    87A      0.599331
      88A      0.617692    89A      0.624350    90A      0.630503
      91A      0.633273    92A      0.640227    93A      0.648452
      94A      0.654336    95A      0.663110    96A      0.678469
      97A      0.686643    98A      0.700243    99A      0.709205
     100A      0.716000   101A      0.721957   102A      0.746792
     103A      0.750273   104A      0.753968   105A      0.760816
     106A      0.772083   107A      0.774179   108A      0.787527
     109A      0.793094   110A      0.798963   111A      0.810731
     112A      0.826919   113A      0.840691   114A      0.858566
     115A      0.872491   116A      0.884910   117A      0.892950
     118A      0.905432   119A      0.935866   120A      0.940835
     121A      0.964058   122A      0.999724   123A      1.017366
     124A      1.028152   125A      1.036617   126A      1.042542
     127A      1.054308   128A      1.077315   129A      1.093285
     130A      1.102591   131A      1.106523   132A      1.134092
     133A      1.140845   134A      1.150163   135A      1.170868
     136A      1.175080   137A      1.197298   138A      1.203462
     139A      1.206744   140A      1.220525   141A      1.224927
     142A      1.237213   143A      1.298189   144A      1.320811
     145A      1.354599   146A      1.368619   147A      1.407542
     148A      1.422197   149A      1.450148   150A      1.475921
     151A      1.500284   152A      1.515760   153A      1.530249
     154A      1.539582   155A      1.568723   156A      1.580490
     157A      1.595868   158A      1.616172   159A      1.634326
     160A      1.647723   161A      1.655712   162A      1.674960
     163A      1.689470   164A      1.713316   165A      1.722602
     166A      1.727581   167A      1.743226   168A      1.747477
     169A      1.750840   170A      1.760158   171A      1.784809
     172A      1.789046   173A      1.801056   174A      1.813955
     175A      1.822463   176A      1.826421   177A      1.834625
     178A      1.841883   179A      1.856329   180A      1.865192
     181A      1.875019   182A      1.890731   183A      1.904137
     184A      1.918296   185A      1.922944   186A      1.930252
     187A      1.954926   188A      1.975104   189A      1.989497
     190A      2.017726   191A      2.023855   192A      2.030240
     193A      2.051159   194A      2.058719   195A      2.062226
     196A      2.069063   197A      2.088333   198A      2.110370
     199A      2.139744   200A      2.154258   201A      2.160691
     202A      2.185640   203A      2.196116   204A      2.200571
     205A      2.220143   206A      2.266769   207A      2.272911
     208A      2.299418   209A      2.311872   210A      2.331261
     211A      2.338132   212A      2.360228   213A      2.377426
     214A      2.388529   215A      2.408740   216A      2.424373
     217A      2.446302   218A      2.474011   219A      2.525292
     220A      2.553319   221A      2.599489   222A      2.603810
     223A      2.627373   224A      2.640332   225A      2.651128
     226A      2.664190   227A      2.692606   228A      2.702711
     229A      2.731788   230A      2.743730   231A      2.758023
     232A      2.762029   233A      2.783126   234A      2.833871
     235A      2.864577   236A      2.898855   237A      2.919790
     238A      2.932615   239A      2.953042   240A      3.058560
     241A      3.062430   242A      3.093862   243A      3.119618
     244A      3.129431   245A      3.196404   246A      3.597753
     247A      3.660781   248A      3.859138

    Final Occupation by Irrep:
              A
    DOCC [    45 ]

  @RHF Final Energy:  -513.33699047183745

   => Energetics <=

    Nuclear Repulsion Energy =            707.2756082691269057
    One-Electron Energy =               -2084.8823403860315011
    Two-Electron Energy =                 864.2697416450671426
    Total Energy =                       -513.3369904718374528

Computation Completed

Properties will be evaluated at   0.000000,   0.000000,   0.000000 [a0]

Properties computed using the SCF density matrix

  Nuclear Dipole Moment: [e a0]
     X:    -0.3358      Y:     4.2508      Z:     5.0702

  Electronic Dipole Moment: [e a0]
     X:     1.5583      Y:    -3.4787      Z:    -1.8475

  Dipole Moment: [e a0]
     X:     1.2225      Y:     0.7721      Z:     3.2227     Total:     3.5322

  Dipole Moment: [D]
     X:     3.1072      Y:     1.9624      Z:     8.1912     Total:     8.9779

*** tstop() called on ds3 at Mon Apr 27 23:36:16 2020
Module time:
	user time   =     239.98 seconds =       4.00 minutes
	system time =      78.91 seconds =       1.32 minutes
	total time  =        312 seconds =       5.20 minutes
Total time:
	user time   =     239.98 seconds =       4.00 minutes
	system time =      78.91 seconds =       1.32 minutes
	total time  =        312 seconds =       5.20 minutes
                                     G D M A

                                 by Anthony Stone

                           version 2.2.06, 22 June 2011

               Distributed Multipoles from Gaussian wavefunctions

Starting at 23:36:17 on 27 Apr 2020

Using SCF density matrix from file ./SSI/SSI-080ARG-088PHE-1-dimer.test.3081.fchk

                         Distributed Multipole Analysis

Standard DMA

Positions and radii in angstrom
Multipole moments in atomic units, ea_0^k for rank k

C          x = -0.693056  y =  0.997180  z =  3.475514 angstrom
           Maximum rank =  0   Radius =  0.650 angstrom
                   Q00  =  -0.119227

C          x =  0.936944  y =  0.386180  z =  1.733514 angstrom
           Maximum rank =  0   Radius =  0.650 angstrom
                   Q00  =   1.074643

N          x =  0.252944  y =  1.301180  z =  2.401514 angstrom
           Maximum rank =  0   Radius =  0.650 angstrom
                   Q00  =  -0.491303

N          x =  0.764944  y = -0.896820  z =  1.994514 angstrom
           Maximum rank =  0   Radius =  0.650 angstrom
                   Q00  =  -0.582410

N          x =  1.785944  y =  0.762180  z =  0.799514 angstrom
           Maximum rank =  0   Radius =  0.650 angstrom
                   Q00  =  -0.552396

H          x =  0.425944  y =  2.272180  z =  2.191514 angstrom
           Maximum rank =  0   Radius =  0.325 angstrom
                   Q00  =   0.236217

H          x =  0.257944  y = -1.161820  z =  2.831514 angstrom
           Maximum rank =  0   Radius =  0.325 angstrom
                   Q00  =   0.262674

H          x =  1.176944  y = -1.623820  z =  1.426514 angstrom
           Maximum rank =  0   Radius =  0.325 angstrom
                   Q00  =   0.274676

H          x =  1.964944  y =  1.739180  z =  0.632514 angstrom
           Maximum rank =  0   Radius =  0.325 angstrom
                   Q00  =   0.262413

H          x =  2.348944  y =  0.066180  z =  0.339514 angstrom
           Maximum rank =  0   Radius =  0.325 angstrom
                   Q00  =   0.264046

H          x = -0.413056  y =  1.566180  z =  4.364514 angstrom
           Maximum rank =  0   Radius =  0.325 angstrom
                   Q00  =   0.140848

H          x = -0.705056  y = -0.044820  z =  3.737514 angstrom
           Maximum rank =  0   Radius =  0.325 angstrom
                   Q00  =   0.111009

H          x = -1.724516  y =  1.261580  z =  3.199490 angstrom
           Maximum rank =  0   Radius =  0.325 angstrom
                   Q00  =   0.140716

C          x = -0.327056  y =  2.038180  z = -1.609486 angstrom
           Maximum rank =  0   Radius =  0.650 angstrom
                   Q00  =  -0.194533

C          x = -0.438056  y =  0.537180  z = -1.660486 angstrom
           Maximum rank =  0   Radius =  0.650 angstrom
                   Q00  =  -0.109229

C          x = -1.685056  y = -0.089820  z = -1.636486 angstrom
           Maximum rank =  0   Radius =  0.650 angstrom
                   Q00  =  -0.083536

C          x =  0.713944  y = -0.245820  z = -1.708486 angstrom
           Maximum rank =  0   Radius =  0.650 angstrom
                   Q00  =  -0.040784

C          x = -1.773056  y = -1.481820  z = -1.668486 angstrom
           Maximum rank =  0   Radius =  0.650 angstrom
                   Q00  =  -0.048044

C          x =  0.633944  y = -1.632820  z = -1.716486 angstrom
           Maximum rank =  0   Radius =  0.650 angstrom
                   Q00  =  -0.115136

C          x = -0.611056  y = -2.250820  z = -1.727486 angstrom
           Maximum rank =  0   Radius =  0.650 angstrom
                   Q00  =  -0.080364

H          x =  0.718944  y =  2.348180  z = -1.646486 angstrom
           Maximum rank =  0   Radius =  0.325 angstrom
                   Q00  =   0.083128

H          x = -0.713056  y =  2.341180  z = -0.634486 angstrom
           Maximum rank =  0   Radius =  0.325 angstrom
                   Q00  =   0.070732

H          x = -2.585056  y =  0.498180  z = -1.575486 angstrom
           Maximum rank =  0   Radius =  0.325 angstrom
                   Q00  =   0.071237

H          x =  1.683944  y =  0.226180  z = -1.774486 angstrom
           Maximum rank =  0   Radius =  0.325 angstrom
                   Q00  =   0.046927

H          x = -2.742056  y = -1.963820  z = -1.667486 angstrom
           Maximum rank =  0   Radius =  0.325 angstrom
                   Q00  =   0.086903

H          x =  1.534944  y = -2.229820  z = -1.757486 angstrom
           Maximum rank =  0   Radius =  0.325 angstrom
                   Q00  =   0.071046

H          x = -0.686056  y = -3.316820  z = -1.847486 angstrom
           Maximum rank =  0   Radius =  0.325 angstrom
                   Q00  =   0.082553

H          x = -0.893206  y =  2.559840  z = -2.395203 angstrom
           Maximum rank =  0   Radius =  0.325 angstrom
                   Q00  =   0.137194

Total multipoles referred to origin at
           x =   0.000000,  y =    0.000000,  z =    0.000000 angstrom
                   Q00  =   1.000000

Finished at 23:36:17 on 27 Apr 2020

  DMA results are available in the Python driver through the
	  variable('DMA DISTRIBUTED MULTIPOLES')
  and
	  variable('DMA TOTAL MULTIPOLES')
  commands.

    Psi4 stopped on: Monday, 27 April 2020 11:36PM
    Psi4 wall time for execution: 0:05:12.43

*** Psi4 exiting successfully. Buy a developer a beer!
