                               Psi4 1.3.2 release

  ==> Input File <==

--------------------------------------------------------------------------
import numpy as np
set {scf_type pk
basis cc-pvdz
d_convergence 10
gdma_switch   0
gdma_limit    0
gdma_origin   [ 0.0,  0.0,  0.0 ]
}
molecule test {
    units Angstrom
    0 1
    --
    0 1
    C                0.403706834950585    -1.437372031457042    -0.610883588657839
    C               -0.898293165049415    -0.716372031457042    -0.927883588657839
    O               -1.160293165049415     0.388627968542958    -0.460883588657839
    N               -1.738293165049415    -1.355372031457042    -1.715883588657839
    H                0.239706834950585    -2.025372031457042     0.291116411342161
    H                1.178706834950585    -0.710372031457042    -0.376883588657839
    H               -2.608293165049415    -0.927372031457042    -1.976883588657839
    H               -1.535293165049415    -2.294372031457042    -2.024883588657839
    H                0.732029834950585    -2.128052031457042    -1.401553588657839
    C                1.624706834950585     1.301627968542958     2.444116411342161
    O                1.495706834950585     1.596627968542958     1.053116411342161
    H                2.388706834950585     1.878627968542958     0.773116411342161
    H                1.955706834950585     2.196627968542957     2.974116411342160
    H                0.648129834950585     0.974417968542958     2.830422411342160
    H                2.373643834950585     0.506427968542958     2.573517411342161

}
e, wfn = energy('scf', return_wfn=True)
gdma(wfn)
dmavals = variable('DMA DISTRIBUTED MULTIPOLES')
charges = np.array(dmavals)
print(charges)
np.save('SSI-025GLN-036THR-1-dimer.npy', np.array(charges))--------------------------------------------------------------------------

*** tstart() called on ds3
*** at Mon Apr 27 16:54:57 2020

   => Loading Basis Set <=

    Name: CC-PVDZ
    Role: ORBITAL
    Keyword: BASIS
    atoms 1-2, 10    entry C          line   138 file /theoryfs2/ds/metcalf/miniconda2/envs/tf2gpu/share/psi4/basis/cc-pvdz.gbs
    atoms 3, 11      entry O          line   198 file /theoryfs2/ds/metcalf/miniconda2/envs/tf2gpu/share/psi4/basis/cc-pvdz.gbs
    atoms 4          entry N          line   168 file /theoryfs2/ds/metcalf/miniconda2/envs/tf2gpu/share/psi4/basis/cc-pvdz.gbs
    atoms 5-9, 12-15 entry H          line    22 file /theoryfs2/ds/metcalf/miniconda2/envs/tf2gpu/share/psi4/basis/cc-pvdz.gbs

         ---------------------------------------------------------
                                   SCF
               by Justin Turney, Rob Parrish, Andy Simmonett
                          and Daniel G. A. Smith
                              RHF Reference
                        1 Threads,    500 MiB Core
         ---------------------------------------------------------

  ==> Geometry <==

    Molecular point group: c1
    Full point group: C1

    Geometry (in Angstrom), charge = 0, multiplicity = 1:

       Center              X                  Y                   Z               Mass
    ------------   -----------------  -----------------  -----------------  -----------------
         C            0.403706834951    -1.437372031457    -0.610883588658    12.000000000000
         C           -0.898293165049    -0.716372031457    -0.927883588658    12.000000000000
         O           -1.160293165049     0.388627968543    -0.460883588658    15.994914619570
         N           -1.738293165049    -1.355372031457    -1.715883588658    14.003074004430
         H            0.239706834951    -2.025372031457     0.291116411342     1.007825032230
         H            1.178706834951    -0.710372031457    -0.376883588658     1.007825032230
         H           -2.608293165049    -0.927372031457    -1.976883588658     1.007825032230
         H           -1.535293165049    -2.294372031457    -2.024883588658     1.007825032230
         H            0.732029834951    -2.128052031457    -1.401553588658     1.007825032230
         C            1.624706834951     1.301627968543     2.444116411342    12.000000000000
         O            1.495706834951     1.596627968543     1.053116411342    15.994914619570
         H            2.388706834951     1.878627968543     0.773116411342     1.007825032230
         H            1.955706834951     2.196627968543     2.974116411342     1.007825032230
         H            0.648129834951     0.974417968543     2.830422411342     1.007825032230
         H            2.373643834951     0.506427968543     2.573517411342     1.007825032230

  Running in c1 symmetry.

  Rotational constants: A =      0.24704  B =      0.03783  C =      0.03489 [cm^-1]
  Rotational constants: A =   7406.00195  B =   1134.23920  C =   1045.93056 [MHz]
  Nuclear repulsion =  232.804034273106225

  Charge       = 0
  Multiplicity = 1
  Electrons    = 50
  Nalpha       = 25
  Nbeta        = 25

  ==> Algorithm <==

  SCF Algorithm Type is PK.
  DIIS enabled.
  MOM disabled.
  Fractional occupation disabled.
  Guess Type is SAD.
  Energy threshold   = 1.00e-06
  Density threshold  = 1.00e-10
  Integral threshold = 0.00e+00

  ==> Primary Basis <==

  Basis Set: CC-PVDZ
    Blend: CC-PVDZ
    Number of shells: 63
    Number of basis function: 129
    Number of Cartesian functions: 135
    Spherical Harmonics?: true
    Max angular momentum: 2

  ==> Pre-Iterations <==

   -------------------------------------------------------
    Irrep   Nso     Nmo     Nalpha   Nbeta   Ndocc  Nsocc
   -------------------------------------------------------
     A        129     129       0       0       0       0
   -------------------------------------------------------
    Total     129     129      25      25      25       0
   -------------------------------------------------------

  ==> Integral Setup <==

  Using integral reordering PK algorithm.
  Sizing the integral batches needed.
  Building batch lookup table.
   Calculation information:
      Number of atoms:                  15
      Number of AO shells:              63
      Number of primitives:            177
      Number of atomic orbitals:       135
      Number of basis functions:       129

      Integral cutoff                 1.00e-12
      Number of threads:                 1

	Batch   1 pq = [       0,    8385] index = [             0,35158305] size =     35158305
  Task number: 4
  Buffer size: 11059200
  Buffer per thread: 2
  We computed 1649758 shell quartets total.
  Whereas there are 2033136 unique shell quartets.

  ==> DiskJK: Disk-Based J/K Matrices <==

    J tasked:                  Yes
    K tasked:                  Yes
    wK tasked:                  No
    Memory [MiB]:              375
    Schwarz Cutoff:          1E-12

    OpenMP threads:              1

  Minimum eigenvalue in the overlap matrix is 4.6931916676E-03.
  Using Symmetric Orthogonalization.

  SCF Guess: Superposition of Atomic Densities via on-the-fly atomic UHF.

  ==> Iterations <==

                        Total Energy        Delta E     RMS |[F,P]|

   @RHF iter SAD:  -321.64973639448800   -3.21650e+02   0.00000e+00
   @RHF iter   1:  -322.81574769445569   -1.16601e+00   5.10852e-03 DIIS
   @RHF iter   2:  -322.97879199717443   -1.63044e-01   3.04651e-03 DIIS
   @RHF iter   3:  -323.03422362600787   -5.54316e-02   5.60902e-04 DIIS
   @RHF iter   4:  -323.03731098432854   -3.08736e-03   2.20946e-04 DIIS
   @RHF iter   5:  -323.03782741927745   -5.16435e-04   4.75681e-05 DIIS
   @RHF iter   6:  -323.03786298711157   -3.55678e-05   2.12862e-05 DIIS
   @RHF iter   7:  -323.03787051799077   -7.53088e-06   7.72633e-06 DIIS
   @RHF iter   8:  -323.03787193578279   -1.41779e-06   2.75181e-06 DIIS
   @RHF iter   9:  -323.03787211239262   -1.76610e-07   8.70827e-07 DIIS
   @RHF iter  10:  -323.03787212761461   -1.52220e-08   2.84092e-07 DIIS
   @RHF iter  11:  -323.03787212906735   -1.45275e-09   4.94569e-08 DIIS
   @RHF iter  12:  -323.03787212912044   -5.30918e-11   1.28832e-08 DIIS
   @RHF iter  13:  -323.03787212912329   -2.84217e-12   3.87851e-09 DIIS
   @RHF iter  14:  -323.03787212912391   -6.25278e-13   1.51287e-09 DIIS
   @RHF iter  15:  -323.03787212912312    7.95808e-13   5.36742e-10 DIIS
   @RHF iter  16:  -323.03787212912312    0.00000e+00   2.50232e-10 DIIS
   @RHF iter  17:  -323.03787212912425   -1.13687e-12   1.09651e-10 DIIS
   @RHF iter  18:  -323.03787212912397    2.84217e-13   3.63299e-11 DIIS
  Energy and wave function converged.

  ==> Post-Iterations <==

    Orbital Energies [Eh]
    ---------------------

    Doubly Occupied:

       1A    -20.541080     2A    -20.488628     3A    -15.578228
       4A    -11.334761     5A    -11.267791     6A    -11.229419
       7A     -1.354836     8A     -1.334600     9A     -1.208613
      10A     -0.986760    11A     -0.906961    12A     -0.793390
      13A     -0.718221    14A     -0.665755    15A     -0.642181
      16A     -0.606441    17A     -0.598430    18A     -0.573099
      19A     -0.555529    20A     -0.546581    21A     -0.509210
      22A     -0.485892    23A     -0.430956    24A     -0.395320
      25A     -0.391101

    Virtual:

      26A      0.169459    27A      0.189104    28A      0.210242
      29A      0.225029    30A      0.233645    31A      0.245539
      32A      0.266279    33A      0.277160    34A      0.285966
      35A      0.320224    36A      0.367197    37A      0.394902
      38A      0.473873    39A      0.562941    40A      0.630872
      41A      0.637743    42A      0.647155    43A      0.685788
      44A      0.706310    45A      0.728908    46A      0.745317
      47A      0.748857    48A      0.763071    49A      0.819737
      50A      0.845094    51A      0.871958    52A      0.882878
      53A      0.901131    54A      0.904588    55A      0.916382
      56A      0.931099    57A      0.976328    58A      1.017499
      59A      1.024357    60A      1.058577    61A      1.114049
      62A      1.136586    63A      1.148204    64A      1.164959
      65A      1.183094    66A      1.287664    67A      1.338092
      68A      1.347968    69A      1.381589    70A      1.393157
      71A      1.411022    72A      1.437511    73A      1.468947
      74A      1.480505    75A      1.519169    76A      1.617522
      77A      1.658468    78A      1.668762    79A      1.671752
      80A      1.676362    81A      1.732210    82A      1.833136
      83A      1.845352    84A      1.873146    85A      1.889176
      86A      1.905565    87A      1.914542    88A      1.928184
      89A      1.937797    90A      1.965596    91A      1.977977
      92A      1.997034    93A      2.037839    94A      2.053263
      95A      2.094303    96A      2.174973    97A      2.193117
      98A      2.216738    99A      2.290969   100A      2.300080
     101A      2.377438   102A      2.378423   103A      2.417290
     104A      2.461812   105A      2.488718   106A      2.492432
     107A      2.540371   108A      2.602731   109A      2.635772
     110A      2.741871   111A      2.753840   112A      2.760581
     113A      2.768694   114A      2.780618   115A      2.823375
     116A      2.891755   117A      3.006042   118A      3.108642
     119A      3.149395   120A      3.281089   121A      3.317959
     122A      3.374871   123A      3.468876   124A      3.519797
     125A      3.558065   126A      3.575223   127A      3.882994
     128A      3.925420   129A      4.087531

    Final Occupation by Irrep:
              A
    DOCC [    25 ]

  @RHF Final Energy:  -323.03787212912397

   => Energetics <=

    Nuclear Repulsion Energy =            232.8040342731062253
    One-Electron Energy =                -903.3962470771273274
    Two-Electron Energy =                 347.5543406748971051
    Total Energy =                       -323.0378721291239685

Computation Completed

Properties will be evaluated at   0.000000,   0.000000,   0.000000 [a0]

Properties computed using the SCF density matrix

  Nuclear Dipole Moment: [e a0]
     X:     5.0437      Y:    -2.3578      Z:     3.4409

  Electronic Dipole Moment: [e a0]
     X:    -4.4064      Y:     0.9900      Z:    -3.7135

  Dipole Moment: [e a0]
     X:     0.6374      Y:    -1.3678      Z:    -0.2725     Total:     1.5334

  Dipole Moment: [D]
     X:     1.6200      Y:    -3.4765      Z:    -0.6927     Total:     3.8975

*** tstop() called on ds3 at Mon Apr 27 16:55:16 2020
Module time:
	user time   =      12.71 seconds =       0.21 minutes
	system time =       5.33 seconds =       0.09 minutes
	total time  =         19 seconds =       0.32 minutes
Total time:
	user time   =      12.71 seconds =       0.21 minutes
	system time =       5.33 seconds =       0.09 minutes
	total time  =         19 seconds =       0.32 minutes
                                     G D M A

                                 by Anthony Stone

                           version 2.2.06, 22 June 2011

               Distributed Multipoles from Gaussian wavefunctions

Starting at 16:55:16 on 27 Apr 2020

Using SCF density matrix from file ./SSI/SSI-025GLN-036THR-1-dimer.test.28502.fchk

                         Distributed Multipole Analysis

Standard DMA

Positions and radii in angstrom
Multipole moments in atomic units, ea_0^k for rank k

C          x =  0.403707  y = -1.437372  z = -0.610884 angstrom
           Maximum rank =  0   Radius =  0.650 angstrom
                   Q00  =  -0.270154

C          x = -0.898293  y = -0.716372  z = -0.927884 angstrom
           Maximum rank =  0   Radius =  0.650 angstrom
                   Q00  =   0.821448

O          x = -1.160293  y =  0.388628  z = -0.460884 angstrom
           Maximum rank =  0   Radius =  0.650 angstrom
                   Q00  =  -0.784436

N          x = -1.738293  y = -1.355372  z = -1.715884 angstrom
           Maximum rank =  0   Radius =  0.650 angstrom
                   Q00  =  -0.517173

H          x =  0.239707  y = -2.025372  z =  0.291116 angstrom
           Maximum rank =  0   Radius =  0.325 angstrom
                   Q00  =   0.121064

H          x =  1.178707  y = -0.710372  z = -0.376884 angstrom
           Maximum rank =  0   Radius =  0.325 angstrom
                   Q00  =   0.135967

H          x = -2.608293  y = -0.927372  z = -1.976884 angstrom
           Maximum rank =  0   Radius =  0.325 angstrom
                   Q00  =   0.215147

H          x = -1.535293  y = -2.294372  z = -2.024884 angstrom
           Maximum rank =  0   Radius =  0.325 angstrom
                   Q00  =   0.196493

H          x =  0.732030  y = -2.128052  z = -1.401554 angstrom
           Maximum rank =  0   Radius =  0.325 angstrom
                   Q00  =   0.076815

C          x =  1.624707  y =  1.301628  z =  2.444116 angstrom
           Maximum rank =  0   Radius =  0.650 angstrom
                   Q00  =  -0.048877

O          x =  1.495707  y =  1.596628  z =  1.053116 angstrom
           Maximum rank =  0   Radius =  0.650 angstrom
                   Q00  =  -0.562908

H          x =  2.388707  y =  1.878628  z =  0.773116 angstrom
           Maximum rank =  0   Radius =  0.325 angstrom
                   Q00  =   0.368755

H          x =  1.955707  y =  2.196628  z =  2.974116 angstrom
           Maximum rank =  0   Radius =  0.325 angstrom
                   Q00  =   0.068751

H          x =  0.648130  y =  0.974418  z =  2.830422 angstrom
           Maximum rank =  0   Radius =  0.325 angstrom
                   Q00  =   0.123068

H          x =  2.373644  y =  0.506428  z =  2.573517 angstrom
           Maximum rank =  0   Radius =  0.325 angstrom
                   Q00  =   0.056038

Total multipoles referred to origin at
           x =   0.000000,  y =    0.000000,  z =    0.000000 angstrom
                   Q00  =  -0.000000

Finished at 16:55:16 on 27 Apr 2020

  DMA results are available in the Python driver through the
	  variable('DMA DISTRIBUTED MULTIPOLES')
  and
	  variable('DMA TOTAL MULTIPOLES')
  commands.

    Psi4 stopped on: Monday, 27 April 2020 04:55PM
    Psi4 wall time for execution: 0:00:18.99

*** Psi4 exiting successfully. Buy a developer a beer!
