                               Psi4 1.3.2 release

  ==> Input File <==

--------------------------------------------------------------------------
import numpy as np
set {scf_type pk
basis cc-pvdz
d_convergence 10
gdma_switch   0
gdma_limit    0
gdma_origin   [ 0.0,  0.0,  0.0 ]
}
molecule test {
    units Angstrom
    0 1
    --
    0 1
    C                0.847864392164354     1.036724533033058    -1.284226967228688
    C                0.552864392164354    -0.015275466966942    -2.354226967228688
    H                1.079864392164354     2.003724533033058    -1.730226967228688
    H               -0.035135607835646     1.168724533033058    -0.670226967228688
    H                1.679864392164354     0.712724533033058    -0.660226967228688
    H                0.462864392164354    -0.988275466966942    -1.875226967228688
    H                1.374622392164354    -0.058295466966942    -3.084200867228688
    H               -0.393850607835646     0.217724533033058    -2.863579867228689
    C               -0.470135607835646    -1.127275466966942     1.985773032771312
    O               -0.812135607835646     0.118724533033058     1.388773032771312
    H               -1.243135607835646     0.636724533033058     2.085773032771312
    H                0.123864392164354    -0.943275466966942     2.881773032771311
    H               -1.385768607835646    -1.666260466966942     2.270573032771312
    H                0.145578392164354    -1.707703466966942     1.282922032771312

}
e, wfn = energy('scf', return_wfn=True)
gdma(wfn)
dmavals = variable('DMA DISTRIBUTED MULTIPOLES')
charges = np.array(dmavals)
print(charges)
np.save('SSI-119THR-123THR-2-dimer.npy', np.array(charges))--------------------------------------------------------------------------

*** tstart() called on ds3
*** at Sun Apr 26 22:17:45 2020

   => Loading Basis Set <=

    Name: CC-PVDZ
    Role: ORBITAL
    Keyword: BASIS
    atoms 1-2, 9     entry C          line   138 file /theoryfs2/ds/metcalf/miniconda2/envs/tf2gpu/share/psi4/basis/cc-pvdz.gbs
    atoms 3-8, 11-14 entry H          line    22 file /theoryfs2/ds/metcalf/miniconda2/envs/tf2gpu/share/psi4/basis/cc-pvdz.gbs
    atoms 10         entry O          line   198 file /theoryfs2/ds/metcalf/miniconda2/envs/tf2gpu/share/psi4/basis/cc-pvdz.gbs

         ---------------------------------------------------------
                                   SCF
               by Justin Turney, Rob Parrish, Andy Simmonett
                          and Daniel G. A. Smith
                              RHF Reference
                        1 Threads,    500 MiB Core
         ---------------------------------------------------------

  ==> Geometry <==

    Molecular point group: c1
    Full point group: C1

    Geometry (in Angstrom), charge = 0, multiplicity = 1:

       Center              X                  Y                   Z               Mass
    ------------   -----------------  -----------------  -----------------  -----------------
         C            0.847864392164     1.036724533033    -1.284226967229    12.000000000000
         C            0.552864392164    -0.015275466967    -2.354226967229    12.000000000000
         H            1.079864392164     2.003724533033    -1.730226967229     1.007825032230
         H           -0.035135607836     1.168724533033    -0.670226967229     1.007825032230
         H            1.679864392164     0.712724533033    -0.660226967229     1.007825032230
         H            0.462864392164    -0.988275466967    -1.875226967229     1.007825032230
         H            1.374622392164    -0.058295466967    -3.084200867229     1.007825032230
         H           -0.393850607836     0.217724533033    -2.863579867229     1.007825032230
         C           -0.470135607836    -1.127275466967     1.985773032771    12.000000000000
         O           -0.812135607836     0.118724533033     1.388773032771    15.994914619570
         H           -1.243135607836     0.636724533033     2.085773032771     1.007825032230
         H            0.123864392164    -0.943275466967     2.881773032771     1.007825032230
         H           -1.385768607836    -1.666260466967     2.270573032771     1.007825032230
         H            0.145578392164    -1.707703466967     1.282922032771     1.007825032230

  Running in c1 symmetry.

  Rotational constants: A =      0.43464  B =      0.06514  C =      0.06094 [cm^-1]
  Rotational constants: A =  13030.14061  B =   1952.81902  C =   1827.08383 [MHz]
  Nuclear repulsion =  125.164408373806964

  Charge       = 0
  Multiplicity = 1
  Electrons    = 36
  Nalpha       = 18
  Nbeta        = 18

  ==> Algorithm <==

  SCF Algorithm Type is PK.
  DIIS enabled.
  MOM disabled.
  Fractional occupation disabled.
  Guess Type is SAD.
  Energy threshold   = 1.00e-06
  Density threshold  = 1.00e-10
  Integral threshold = 0.00e+00

  ==> Primary Basis <==

  Basis Set: CC-PVDZ
    Blend: CC-PVDZ
    Number of shells: 54
    Number of basis function: 106
    Number of Cartesian functions: 110
    Spherical Harmonics?: true
    Max angular momentum: 2

  ==> Pre-Iterations <==

   -------------------------------------------------------
    Irrep   Nso     Nmo     Nalpha   Nbeta   Ndocc  Nsocc
   -------------------------------------------------------
     A        106     106       0       0       0       0
   -------------------------------------------------------
    Total     106     106      18      18      18       0
   -------------------------------------------------------

  ==> Integral Setup <==

  Using in-core PK algorithm.
   Calculation information:
      Number of atoms:                  14
      Number of AO shells:              54
      Number of primitives:            138
      Number of atomic orbitals:       110
      Number of basis functions:       106

      Integral cutoff                 1.00e-12
      Number of threads:                 1

  Performing in-core PK
  Using 32165912 doubles for integral storage.
  We computed 937732 shell quartets total.
  Whereas there are 1103355 unique shell quartets.

  ==> DiskJK: Disk-Based J/K Matrices <==

    J tasked:                  Yes
    K tasked:                  Yes
    wK tasked:                  No
    Memory [MiB]:              375
    Schwarz Cutoff:          1E-12

    OpenMP threads:              1

  Minimum eigenvalue in the overlap matrix is 7.8942636156E-03.
  Using Symmetric Orthogonalization.

  SCF Guess: Superposition of Atomic Densities via on-the-fly atomic UHF.

  ==> Iterations <==

                        Total Energy        Delta E     RMS |[F,P]|

   @RHF iter SAD:  -193.06956585914742   -1.93070e+02   0.00000e+00
   @RHF iter   1:  -194.13572774464151   -1.06616e+00   4.69649e-03 DIIS
   @RHF iter   2:  -194.25447802179130   -1.18750e-01   2.26985e-03 DIIS
   @RHF iter   3:  -194.27933244402496   -2.48544e-02   4.32920e-04 DIIS
   @RHF iter   4:  -194.28102294320058   -1.69050e-03   1.38059e-04 DIIS
   @RHF iter   5:  -194.28114491126678   -1.21968e-04   2.78051e-05 DIIS
   @RHF iter   6:  -194.28115174830793   -6.83704e-06   5.06680e-06 DIIS
   @RHF iter   7:  -194.28115208169606   -3.33388e-07   1.08922e-06 DIIS
   @RHF iter   8:  -194.28115209718339   -1.54873e-08   3.78355e-07 DIIS
   @RHF iter   9:  -194.28115209884223   -1.65883e-09   8.98670e-08 DIIS
   @RHF iter  10:  -194.28115209896816   -1.25937e-10   1.77778e-08 DIIS
   @RHF iter  11:  -194.28115209897226   -4.09273e-12   4.52642e-09 DIIS
   @RHF iter  12:  -194.28115209897294   -6.82121e-13   1.09763e-09 DIIS
   @RHF iter  13:  -194.28115209897300   -5.68434e-14   2.39599e-10 DIIS
   @RHF iter  14:  -194.28115209897294    5.68434e-14   7.97617e-11 DIIS
  Energy and wave function converged.

  ==> Post-Iterations <==

    Orbital Energies [Eh]
    ---------------------

    Doubly Occupied:

       1A    -20.554601     2A    -11.279765     3A    -11.206461
       4A    -11.195893     5A     -1.352346     6A     -1.002355
       7A     -0.920930     8A     -0.821537     9A     -0.683531
      10A     -0.619339    11A     -0.593044    12A     -0.584370
      13A     -0.576750    14A     -0.503546    15A     -0.484150
      16A     -0.472605    17A     -0.463767    18A     -0.444972

    Virtual:

      19A      0.169023    20A      0.201620    21A      0.218537
      22A      0.250040    23A      0.253312    24A      0.262490
      25A      0.274753    26A      0.286460    27A      0.323019
      28A      0.334034    29A      0.365332    30A      0.411186
      31A      0.601526    32A      0.614693    33A      0.618733
      34A      0.633066    35A      0.652213    36A      0.694745
      37A      0.701263    38A      0.742728    39A      0.803826
      40A      0.857130    41A      0.860401    42A      0.889261
      43A      0.894725    44A      0.906023    45A      0.911561
      46A      0.916468    47A      0.942874    48A      0.956307
      49A      0.994117    50A      1.120216    51A      1.136408
      52A      1.142008    53A      1.151605    54A      1.181895
      55A      1.239218    56A      1.335721    57A      1.347392
      58A      1.462299    59A      1.494223    60A      1.518946
      61A      1.581735    62A      1.606852    63A      1.658648
      64A      1.673382    65A      1.695560    66A      1.757884
      67A      1.851956    68A      1.875939    69A      1.891434
      70A      1.902988    71A      1.907009    72A      1.921652
      73A      1.954847    74A      1.959694    75A      1.965876
      76A      1.975416    77A      1.976840    78A      1.988595
      79A      2.034422    80A      2.127287    81A      2.133808
      82A      2.179873    83A      2.280170    84A      2.309599
      85A      2.332725    86A      2.352975    87A      2.382773
      88A      2.465139    89A      2.478795    90A      2.496261
      91A      2.587700    92A      2.594277    93A      2.747792
      94A      2.752902    95A      2.762706    96A      2.780695
      97A      2.815147    98A      2.869172    99A      2.873142
     100A      2.970499   101A      2.979155   102A      3.303800
     103A      3.369520   104A      3.466291   105A      3.571875
     106A      4.087098

    Final Occupation by Irrep:
              A
    DOCC [    18 ]

  @RHF Final Energy:  -194.28115209897294

   => Energetics <=

    Nuclear Repulsion Energy =            125.1644083738069639
    One-Electron Energy =                -511.3711991438290738
    Two-Electron Energy =                 191.9256386710491711
    Total Energy =                       -194.2811520989729388

Computation Completed

Properties will be evaluated at   0.000000,   0.000000,   0.000000 [a0]

Properties computed using the SCF density matrix

  Nuclear Dipole Moment: [e a0]
     X:     1.6918      Y:    -0.5846      Z:    -2.2082

  Electronic Dipole Moment: [e a0]
     X:    -1.8917      Y:     0.3639      Z:     3.0461

  Dipole Moment: [e a0]
     X:    -0.2000      Y:    -0.2207      Z:     0.8379     Total:     0.8893

  Dipole Moment: [D]
     X:    -0.5083      Y:    -0.5610      Z:     2.1297     Total:     2.2603

*** tstop() called on ds3 at Sun Apr 26 22:17:51 2020
Module time:
	user time   =       5.85 seconds =       0.10 minutes
	system time =       0.11 seconds =       0.00 minutes
	total time  =          6 seconds =       0.10 minutes
Total time:
	user time   =       5.85 seconds =       0.10 minutes
	system time =       0.11 seconds =       0.00 minutes
	total time  =          6 seconds =       0.10 minutes
                                     G D M A

                                 by Anthony Stone

                           version 2.2.06, 22 June 2011

               Distributed Multipoles from Gaussian wavefunctions

Starting at 22:17:51 on 26 Apr 2020

Using SCF density matrix from file ./SSI/SSI-119THR-123THR-2-dimer.test.30010.fchk

                         Distributed Multipole Analysis

Standard DMA

Positions and radii in angstrom
Multipole moments in atomic units, ea_0^k for rank k

C          x =  0.847864  y =  1.036725  z = -1.284227 angstrom
           Maximum rank =  0   Radius =  0.650 angstrom
                   Q00  =  -0.227023

C          x =  0.552864  y = -0.015275  z = -2.354227 angstrom
           Maximum rank =  0   Radius =  0.650 angstrom
                   Q00  =  -0.241436

H          x =  1.079864  y =  2.003725  z = -1.730227 angstrom
           Maximum rank =  0   Radius =  0.325 angstrom
                   Q00  =   0.065092

H          x = -0.035136  y =  1.168725  z = -0.670227 angstrom
           Maximum rank =  0   Radius =  0.325 angstrom
                   Q00  =   0.102371

H          x =  1.679864  y =  0.712725  z = -0.660227 angstrom
           Maximum rank =  0   Radius =  0.325 angstrom
                   Q00  =   0.071653

H          x =  0.462864  y = -0.988275  z = -1.875227 angstrom
           Maximum rank =  0   Radius =  0.325 angstrom
                   Q00  =   0.074322

H          x =  1.374622  y = -0.058295  z = -3.084201 angstrom
           Maximum rank =  0   Radius =  0.325 angstrom
                   Q00  =   0.069420

H          x = -0.393851  y =  0.217725  z = -2.863580 angstrom
           Maximum rank =  0   Radius =  0.325 angstrom
                   Q00  =   0.076254

C          x = -0.470136  y = -1.127275  z =  1.985773 angstrom
           Maximum rank =  0   Radius =  0.650 angstrom
                   Q00  =  -0.045269

O          x = -0.812136  y =  0.118725  z =  1.388773 angstrom
           Maximum rank =  0   Radius =  0.650 angstrom
                   Q00  =  -0.578339

H          x = -1.243136  y =  0.636725  z =  2.085773 angstrom
           Maximum rank =  0   Radius =  0.325 angstrom
                   Q00  =   0.379111

H          x =  0.123864  y = -0.943275  z =  2.881773 angstrom
           Maximum rank =  0   Radius =  0.325 angstrom
                   Q00  =   0.066806

H          x = -1.385769  y = -1.666260  z =  2.270573 angstrom
           Maximum rank =  0   Radius =  0.325 angstrom
                   Q00  =   0.070970

H          x =  0.145578  y = -1.707703  z =  1.282922 angstrom
           Maximum rank =  0   Radius =  0.325 angstrom
                   Q00  =   0.116067

Total multipoles referred to origin at
           x =   0.000000,  y =    0.000000,  z =    0.000000 angstrom
                   Q00  =  -0.000000

Finished at 22:17:51 on 26 Apr 2020

  DMA results are available in the Python driver through the
	  variable('DMA DISTRIBUTED MULTIPOLES')
  and
	  variable('DMA TOTAL MULTIPOLES')
  commands.

    Psi4 stopped on: Sunday, 26 April 2020 10:17PM
    Psi4 wall time for execution: 0:00:06.32

*** Psi4 exiting successfully. Buy a developer a beer!
