                               Psi4 1.3.2 release

  ==> Input File <==

--------------------------------------------------------------------------
import numpy as np
set {scf_type pk
basis cc-pvdz
d_convergence 10
gdma_switch   0
gdma_limit    0
gdma_origin   [ 0.0,  0.0,  0.0 ]
}
molecule test {
    units Angstrom
    0 1
    --
    0 1
    C                0.781398746416244     1.513884680450591    -3.367062028926279
    C                2.223398746416244     1.270884680450590    -2.922062028926279
    H                0.758398746416244     1.863884680450590    -4.401062028926279
    H                0.211398746416244     0.587884680450590    -3.307062028926278
    H                0.299398746416245     2.241884680450590    -2.717062028926279
    H                2.253398746416245     1.124884680450591    -1.846062028926279
    H                2.860718746416244     2.126864680450590    -3.188752028926279
    H                2.623538746416244     0.365334680450590    -3.401512028926279
    C               -0.040601253583755     2.128884680450590     2.348937971073722
    C                0.106398746416245    -0.519115319549409    -0.398062028926279
    C                0.297398746416245     0.674884680450590     0.307937971073721
    C               -0.607601253583755    -1.566115319549409     0.189937971073721
    C               -0.221601253583755     0.834884680450590     1.593937971073721
    C               -1.130601253583756    -1.420115319549409     1.472937971073721
    C               -0.936601253583756    -0.223115319549409     2.167937971073721
    O               -0.794601253583756    -2.739115319549409    -0.481062028926279
    H                0.518398746416245    -0.642115319549410    -1.386062028926279
    H                0.847398746416245     1.478884680450590    -0.144062028926279
    H               -0.402601253583756    -2.720115319549410    -1.361062028926279
    H               -1.678601253583756    -2.235115319549410     1.922937971073721
    H                0.923398746416244     2.577884680450591     2.101937971073721
    H               -0.019601253583755     1.878884680450591     3.407937971073721
    H               -1.344601253583755    -0.116115319549409     3.164937971073721
    H               -0.854871253583755     2.850364680450590     2.186370971073721

}
e, wfn = energy('scf', return_wfn=True)
gdma(wfn)
dmavals = variable('DMA DISTRIBUTED MULTIPOLES')
charges = np.array(dmavals)
print(charges)
np.save('SSI-034LEU-038TYR-1-dimer.npy', np.array(charges))--------------------------------------------------------------------------

*** tstart() called on ds3
*** at Mon Apr 27 16:47:47 2020

   => Loading Basis Set <=

    Name: CC-PVDZ
    Role: ORBITAL
    Keyword: BASIS
    atoms 1-2, 9-15  entry C          line   138 file /theoryfs2/ds/metcalf/miniconda2/envs/tf2gpu/share/psi4/basis/cc-pvdz.gbs
    atoms 3-8, 17-24 entry H          line    22 file /theoryfs2/ds/metcalf/miniconda2/envs/tf2gpu/share/psi4/basis/cc-pvdz.gbs
    atoms 16         entry O          line   198 file /theoryfs2/ds/metcalf/miniconda2/envs/tf2gpu/share/psi4/basis/cc-pvdz.gbs

         ---------------------------------------------------------
                                   SCF
               by Justin Turney, Rob Parrish, Andy Simmonett
                          and Daniel G. A. Smith
                              RHF Reference
                        1 Threads,    500 MiB Core
         ---------------------------------------------------------

  ==> Geometry <==

    Molecular point group: c1
    Full point group: C1

    Geometry (in Angstrom), charge = 0, multiplicity = 1:

       Center              X                  Y                   Z               Mass
    ------------   -----------------  -----------------  -----------------  -----------------
         C            0.781398746416     1.513884680451    -3.367062028926    12.000000000000
         C            2.223398746416     1.270884680451    -2.922062028926    12.000000000000
         H            0.758398746416     1.863884680451    -4.401062028926     1.007825032230
         H            0.211398746416     0.587884680451    -3.307062028926     1.007825032230
         H            0.299398746416     2.241884680451    -2.717062028926     1.007825032230
         H            2.253398746416     1.124884680451    -1.846062028926     1.007825032230
         H            2.860718746416     2.126864680451    -3.188752028926     1.007825032230
         H            2.623538746416     0.365334680451    -3.401512028926     1.007825032230
         C           -0.040601253584     2.128884680451     2.348937971074    12.000000000000
         C            0.106398746416    -0.519115319549    -0.398062028926    12.000000000000
         C            0.297398746416     0.674884680451     0.307937971074    12.000000000000
         C           -0.607601253584    -1.566115319549     0.189937971074    12.000000000000
         C           -0.221601253584     0.834884680451     1.593937971074    12.000000000000
         C           -1.130601253584    -1.420115319549     1.472937971074    12.000000000000
         C           -0.936601253584    -0.223115319549     2.167937971074    12.000000000000
         O           -0.794601253584    -2.739115319549    -0.481062028926    15.994914619570
         H            0.518398746416    -0.642115319549    -1.386062028926     1.007825032230
         H            0.847398746416     1.478884680451    -0.144062028926     1.007825032230
         H           -0.402601253584    -2.720115319549    -1.361062028926     1.007825032230
         H           -1.678601253584    -2.235115319549     1.922937971074     1.007825032230
         H            0.923398746416     2.577884680451     2.101937971074     1.007825032230
         H           -0.019601253584     1.878884680451     3.407937971074     1.007825032230
         H           -1.344601253584    -0.116115319549     3.164937971074     1.007825032230
         H           -0.854871253584     2.850364680451     2.186370971074     1.007825032230

  Running in c1 symmetry.

  Rotational constants: A =      0.04555  B =      0.02558  C =      0.01718 [cm^-1]
  Rotational constants: A =   1365.62867  B =    766.81469  C =    515.16819 [MHz]
  Nuclear repulsion =  495.581618923106475

  Charge       = 0
  Multiplicity = 1
  Electrons    = 76
  Nalpha       = 38
  Nbeta        = 38

  ==> Algorithm <==

  SCF Algorithm Type is PK.
  DIIS enabled.
  MOM disabled.
  Fractional occupation disabled.
  Guess Type is SAD.
  Energy threshold   = 1.00e-06
  Density threshold  = 1.00e-10
  Integral threshold = 0.00e+00

  ==> Primary Basis <==

  Basis Set: CC-PVDZ
    Blend: CC-PVDZ
    Number of shells: 102
    Number of basis function: 210
    Number of Cartesian functions: 220
    Spherical Harmonics?: true
    Max angular momentum: 2

  ==> Pre-Iterations <==

   -------------------------------------------------------
    Irrep   Nso     Nmo     Nalpha   Nbeta   Ndocc  Nsocc
   -------------------------------------------------------
     A        210     210       0       0       0       0
   -------------------------------------------------------
    Total     210     210      38      38      38       0
   -------------------------------------------------------

  ==> Integral Setup <==

  Using integral reordering PK algorithm.
  Sizing the integral batches needed.
  Building batch lookup table.
   Calculation information:
      Number of atoms:                  24
      Number of AO shells:             102
      Number of primitives:            290
      Number of atomic orbitals:       220
      Number of basis functions:       210

      Integral cutoff                 1.00e-12
      Number of threads:                 1

	Batch   1 pq = [       0,    9405] index = [             0,44231715] size =     44231715
	Batch   2 pq = [    9405,   13301] index = [      44231715,88464951] size =     44233236
	Batch   3 pq = [   13301,   16290] index = [      88464951,132690195] size =     44225244
	Batch   4 pq = [   16290,   18810] index = [     132690195,176917455] size =     44227260
	Batch   5 pq = [   18810,   21030] index = [     176917455,221140965] size =     44223510
	Batch   6 pq = [   21030,   22155] index = [     221140965,245433090] size =     24292125
  Task number: 23
  Buffer size: 11059200
  Buffer per thread: 2
  We computed 11765727 shell quartets total.
  Whereas there are 13799631 unique shell quartets.

  ==> DiskJK: Disk-Based J/K Matrices <==

    J tasked:                  Yes
    K tasked:                  Yes
    wK tasked:                  No
    Memory [MiB]:              375
    Schwarz Cutoff:          1E-12

    OpenMP threads:              1

  Minimum eigenvalue in the overlap matrix is 3.2332987209E-04.
  Using Symmetric Orthogonalization.

  SCF Guess: Superposition of Atomic Densities via on-the-fly atomic UHF.

  ==> Iterations <==

                        Total Energy        Delta E     RMS |[F,P]|

   @RHF iter SAD:  -422.67342303492916   -4.22673e+02   0.00000e+00
   @RHF iter   1:  -423.60165096631704   -9.28228e-01   2.96429e-03 DIIS
   @RHF iter   2:  -423.81734633705270   -2.15695e-01   1.24225e-03 DIIS
   @RHF iter   3:  -423.85144459326057   -3.40983e-02   2.85179e-04 DIIS
   @RHF iter   4:  -423.85432096262082   -2.87637e-03   1.18197e-04 DIIS
   @RHF iter   5:  -423.85467927774096   -3.58315e-04   2.05062e-05 DIIS
   @RHF iter   6:  -423.85469663347840   -1.73557e-05   6.38520e-06 DIIS
   @RHF iter   7:  -423.85469828507530   -1.65160e-06   2.13539e-06 DIIS
   @RHF iter   8:  -423.85469852822382   -2.43149e-07   8.02101e-07 DIIS
   @RHF iter   9:  -423.85469857078999   -4.25662e-08   3.34349e-07 DIIS
   @RHF iter  10:  -423.85469857951290   -8.72291e-09   1.44126e-07 DIIS
   @RHF iter  11:  -423.85469858228362   -2.77072e-09   6.33863e-08 DIIS
   @RHF iter  12:  -423.85469858274587   -4.62251e-10   2.92195e-08 DIIS
   @RHF iter  13:  -423.85469858282426   -7.83871e-11   8.32531e-09 DIIS
   @RHF iter  14:  -423.85469858282869   -4.43379e-12   2.24922e-09 DIIS
   @RHF iter  15:  -423.85469858282869    0.00000e+00   7.54497e-10 DIIS
   @RHF iter  16:  -423.85469858283011   -1.42109e-12   2.89589e-10 DIIS
   @RHF iter  17:  -423.85469858282823    1.87583e-12   1.31566e-10 DIIS
   @RHF iter  18:  -423.85469858283108   -2.84217e-12   6.74960e-11 DIIS
  Energy and wave function converged.

  ==> Post-Iterations <==

    Orbital Energies [Eh]
    ---------------------

    Doubly Occupied:

       1A    -20.583005     2A    -11.299939     3A    -11.239216
       4A    -11.238916     5A    -11.233973     6A    -11.233698
       7A    -11.230906     8A    -11.228187     9A    -11.224993
      10A    -11.222569    11A     -1.398643    12A     -1.147865
      13A     -1.036283    14A     -1.025719    15A     -1.015069
      16A     -0.925584    17A     -0.845269    18A     -0.843522
      19A     -0.801010    20A     -0.731394    21A     -0.666661
      22A     -0.642819    23A     -0.613056    24A     -0.606614
      25A     -0.599795    26A     -0.585602    27A     -0.580789
      28A     -0.571305    29A     -0.565496    30A     -0.526408
      31A     -0.507790    32A     -0.497482    33A     -0.494751
      34A     -0.490441    35A     -0.483417    36A     -0.465178
      37A     -0.336862    38A     -0.301066

    Virtual:

      39A      0.128171    40A      0.153082    41A      0.167641
      42A      0.182219    43A      0.200207    44A      0.216568
      45A      0.233198    46A      0.237020    47A      0.247924
      48A      0.258172    49A      0.266689    50A      0.276269
      51A      0.285807    52A      0.292858    53A      0.323095
      54A      0.338429    55A      0.379281    56A      0.386828
      57A      0.396409    58A      0.433096    59A      0.450337
      60A      0.483191    61A      0.499402    62A      0.505282
      63A      0.596339    64A      0.601812    65A      0.607180
      66A      0.634677    67A      0.643678    68A      0.645481
      69A      0.657185    70A      0.668706    71A      0.691023
      72A      0.699151    73A      0.712119    74A      0.718741
      75A      0.734170    76A      0.756984    77A      0.769763
      78A      0.782453    79A      0.788947    80A      0.798197
      81A      0.805873    82A      0.834641    83A      0.845419
      84A      0.848616    85A      0.857503    86A      0.867557
      87A      0.879249    88A      0.884859    89A      0.899285
      90A      0.903635    91A      0.909645    92A      0.913953
      93A      0.933600    94A      0.936094    95A      0.941791
      96A      0.953756    97A      0.962271    98A      0.988925
      99A      0.997050   100A      1.023549   101A      1.052152
     102A      1.060035   103A      1.108660   104A      1.116641
     105A      1.133701   106A      1.143392   107A      1.146450
     108A      1.199646   109A      1.208631   110A      1.243421
     111A      1.247856   112A      1.256665   113A      1.276704
     114A      1.285760   115A      1.305091   116A      1.311292
     117A      1.323761   118A      1.360167   119A      1.368881
     120A      1.384540   121A      1.469561   122A      1.469936
     123A      1.488144   124A      1.505720   125A      1.545909
     126A      1.552525   127A      1.586462   128A      1.616891
     129A      1.622798   130A      1.683579   131A      1.687039
     132A      1.698959   133A      1.708151   134A      1.734782
     135A      1.749713   136A      1.779327   137A      1.801306
     138A      1.803313   139A      1.855990   140A      1.870168
     141A      1.875044   142A      1.889844   143A      1.895763
     144A      1.906076   145A      1.911273   146A      1.919600
     147A      1.923523   148A      1.934138   149A      1.940126
     150A      1.946444   151A      1.951284   152A      1.961574
     153A      1.966598   154A      1.975149   155A      1.984926
     156A      2.008193   157A      2.043422   158A      2.048574
     159A      2.057022   160A      2.067099   161A      2.071105
     162A      2.122887   163A      2.129725   164A      2.141522
     165A      2.155468   166A      2.185023   167A      2.217217
     168A      2.239154   169A      2.268356   170A      2.278801
     171A      2.290525   172A      2.311947   173A      2.323159
     174A      2.339843   175A      2.365934   176A      2.428007
     177A      2.437145   178A      2.443524   179A      2.468982
     180A      2.480647   181A      2.491968   182A      2.538049
     183A      2.543912   184A      2.582178   185A      2.585726
     186A      2.605919   187A      2.637618   188A      2.760193
     189A      2.765135   190A      2.776563   191A      2.786116
     192A      2.792954   193A      2.820763   194A      2.840600
     195A      2.850933   196A      2.868336   197A      2.905730
     198A      2.941638   199A      2.957102   200A      2.969950
     201A      3.015080   202A      3.085884   203A      3.102600
     204A      3.247545   205A      3.285402   206A      3.346254
     207A      3.572265   208A      3.670263   209A      3.960840
     210A      4.191603

    Final Occupation by Irrep:
              A
    DOCC [    38 ]

  @RHF Final Energy:  -423.85469858283108

   => Energetics <=

    Nuclear Repulsion Energy =            495.5816189231064754
    One-Electron Energy =               -1556.7900488183036032
    Two-Electron Energy =                 637.3537313123661079
    Total Energy =                       -423.8546985828311335

Computation Completed

Properties will be evaluated at   0.000000,   0.000000,   0.000000 [a0]

Properties computed using the SCF density matrix

  Nuclear Dipole Moment: [e a0]
     X:     6.5545      Y:    10.6583      Z:    -8.4101

  Electronic Dipole Moment: [e a0]
     X:    -6.2811      Y:   -10.2931      Z:     8.0873

  Dipole Moment: [e a0]
     X:     0.2734      Y:     0.3652      Z:    -0.3228     Total:     0.5588

  Dipole Moment: [D]
     X:     0.6948      Y:     0.9282      Z:    -0.8205     Total:     1.4204

*** tstop() called on ds3 at Mon Apr 27 16:50:02 2020
Module time:
	user time   =      96.49 seconds =       1.61 minutes
	system time =      45.14 seconds =       0.75 minutes
	total time  =        135 seconds =       2.25 minutes
Total time:
	user time   =      96.49 seconds =       1.61 minutes
	system time =      45.14 seconds =       0.75 minutes
	total time  =        135 seconds =       2.25 minutes
                                     G D M A

                                 by Anthony Stone

                           version 2.2.06, 22 June 2011

               Distributed Multipoles from Gaussian wavefunctions

Starting at 16:50:2 on 27 Apr 2020

Using SCF density matrix from file ./SSI/SSI-034LEU-038TYR-1-dimer.test.28101.fchk

                         Distributed Multipole Analysis

Standard DMA

Positions and radii in angstrom
Multipole moments in atomic units, ea_0^k for rank k

C          x =  0.781399  y =  1.513885  z = -3.367062 angstrom
           Maximum rank =  0   Radius =  0.650 angstrom
                   Q00  =  -0.234506

C          x =  2.223399  y =  1.270885  z = -2.922062 angstrom
           Maximum rank =  0   Radius =  0.650 angstrom
                   Q00  =  -0.241381

H          x =  0.758399  y =  1.863885  z = -4.401062 angstrom
           Maximum rank =  0   Radius =  0.325 angstrom
                   Q00  =   0.083517

H          x =  0.211399  y =  0.587885  z = -3.307062 angstrom
           Maximum rank =  0   Radius =  0.325 angstrom
                   Q00  =   0.072357

H          x =  0.299399  y =  2.241885  z = -2.717062 angstrom
           Maximum rank =  0   Radius =  0.325 angstrom
                   Q00  =   0.082418

H          x =  2.253399  y =  1.124885  z = -1.846062 angstrom
           Maximum rank =  0   Radius =  0.325 angstrom
                   Q00  =   0.076646

H          x =  2.860719  y =  2.126865  z = -3.188752 angstrom
           Maximum rank =  0   Radius =  0.325 angstrom
                   Q00  =   0.083969

H          x =  2.623539  y =  0.365335  z = -3.401512 angstrom
           Maximum rank =  0   Radius =  0.325 angstrom
                   Q00  =   0.076837

C          x = -0.040601  y =  2.128885  z =  2.348938 angstrom
           Maximum rank =  0   Radius =  0.650 angstrom
                   Q00  =  -0.197195

C          x =  0.106399  y = -0.519115  z = -0.398062 angstrom
           Maximum rank =  0   Radius =  0.650 angstrom
                   Q00  =  -0.202448

C          x =  0.297399  y =  0.674885  z =  0.307938 angstrom
           Maximum rank =  0   Radius =  0.650 angstrom
                   Q00  =  -0.031534

C          x = -0.607601  y = -1.566115  z =  0.189938 angstrom
           Maximum rank =  0   Radius =  0.650 angstrom
                   Q00  =   0.336894

C          x = -0.221601  y =  0.834885  z =  1.593938 angstrom
           Maximum rank =  0   Radius =  0.650 angstrom
                   Q00  =  -0.125999

C          x = -1.130601  y = -1.420115  z =  1.472938 angstrom
           Maximum rank =  0   Radius =  0.650 angstrom
                   Q00  =  -0.112715

C          x = -0.936601  y = -0.223115  z =  2.167938 angstrom
           Maximum rank =  0   Radius =  0.650 angstrom
                   Q00  =   0.026370

O          x = -0.794601  y = -2.739115  z = -0.481062 angstrom
           Maximum rank =  0   Radius =  0.650 angstrom
                   Q00  =  -0.680433

H          x =  0.518399  y = -0.642115  z = -1.386062 angstrom
           Maximum rank =  0   Radius =  0.325 angstrom
                   Q00  =   0.073498

H          x =  0.847399  y =  1.478885  z = -0.144062 angstrom
           Maximum rank =  0   Radius =  0.325 angstrom
                   Q00  =   0.067748

H          x = -0.402601  y = -2.720115  z = -1.361062 angstrom
           Maximum rank =  0   Radius =  0.325 angstrom
                   Q00  =   0.406142

H          x = -1.678601  y = -2.235115  z =  1.922938 angstrom
           Maximum rank =  0   Radius =  0.325 angstrom
                   Q00  =   0.082288

H          x =  0.923399  y =  2.577885  z =  2.101938 angstrom
           Maximum rank =  0   Radius =  0.325 angstrom
                   Q00  =   0.097552

H          x = -0.019601  y =  1.878885  z =  3.407938 angstrom
           Maximum rank =  0   Radius =  0.325 angstrom
                   Q00  =   0.094160

H          x = -1.344601  y = -0.116115  z =  3.164938 angstrom
           Maximum rank =  0   Radius =  0.325 angstrom
                   Q00  =   0.064724

H          x = -0.854871  y =  2.850365  z =  2.186371 angstrom
           Maximum rank =  0   Radius =  0.325 angstrom
                   Q00  =   0.101092

Total multipoles referred to origin at
           x =   0.000000,  y =    0.000000,  z =    0.000000 angstrom
                   Q00  =  -0.000000

Finished at 16:50:2 on 27 Apr 2020

  DMA results are available in the Python driver through the
	  variable('DMA DISTRIBUTED MULTIPOLES')
  and
	  variable('DMA TOTAL MULTIPOLES')
  commands.

    Psi4 stopped on: Monday, 27 April 2020 04:50PM
    Psi4 wall time for execution: 0:02:15.77

*** Psi4 exiting successfully. Buy a developer a beer!
