                               Psi4 1.3.2 release

  ==> Input File <==

--------------------------------------------------------------------------
import numpy as np
set {scf_type pk
basis cc-pvdz
d_convergence 10
gdma_switch   0
gdma_limit    0
gdma_origin   [ 0.0,  0.0,  0.0 ]
}
molecule test {
    units Angstrom
    0 1
    --
    0 1
    C               -0.561855024706532     0.990380804011142    -0.545435895927050
    C               -1.664855024706531     1.666380804011142    -1.361435895927049
    C                0.799144975293469     1.561380804011142    -0.939435895927050
    C               -0.807855024706532     1.213380804011142     0.945564104072950
    H               -0.569855024706531    -0.071619195988858    -0.761435895927050
    H               -1.391855024706532     1.629380804011142    -2.412435895927049
    H               -1.668855024706532     2.722380804011141    -1.081435895927049
    H                0.830144975293468     2.633380804011141    -0.735435895927050
    H                1.582144975293469     1.065380804011142    -0.365435895927050
    H                0.985144975293468     1.390380804011142    -1.999435895927050
    H               -1.703855024706531     0.693380804011142     1.275564104072951
    H                0.036144975293469     0.830380804011142     1.518564104072951
    H               -0.909855024706532     2.278380804011142     1.152564104072951
    H               -2.684705024706531     1.274630804011142    -1.233235895927050
    C                0.645144975293468    -2.333619195988859     0.370564104072950
    C                1.508144975293469    -2.979619195988858     1.456564104072951
    H               -0.131855024706531    -3.025619195988859     0.037564104072950
    H                0.173144975293469    -1.443619195988859     0.777564104072950
    H                1.270144975293468    -2.038619195988859    -0.470435895927049
    H                2.389144975293469    -2.357619195988859     1.613564104072950
    H                1.807524975293468    -3.991919195988859     1.147354104072950
    H                0.965204975293469    -2.997059195988859     2.413074104072951

}
e, wfn = energy('scf', return_wfn=True)
gdma(wfn)
dmavals = variable('DMA DISTRIBUTED MULTIPOLES')
charges = np.array(dmavals)
print(charges)
np.save('SSI-026LEU-135ALA-1-dimer.npy', np.array(charges))--------------------------------------------------------------------------

*** tstart() called on ds3
*** at Tue Apr 28 09:47:09 2020

   => Loading Basis Set <=

    Name: CC-PVDZ
    Role: ORBITAL
    Keyword: BASIS
    atoms 1-4, 15-16  entry C          line   138 file /theoryfs2/ds/metcalf/miniconda2/envs/tf2gpu/share/psi4/basis/cc-pvdz.gbs
    atoms 5-14, 17-22 entry H          line    22 file /theoryfs2/ds/metcalf/miniconda2/envs/tf2gpu/share/psi4/basis/cc-pvdz.gbs

         ---------------------------------------------------------
                                   SCF
               by Justin Turney, Rob Parrish, Andy Simmonett
                          and Daniel G. A. Smith
                              RHF Reference
                        1 Threads,    500 MiB Core
         ---------------------------------------------------------

  ==> Geometry <==

    Molecular point group: c1
    Full point group: C1

    Geometry (in Angstrom), charge = 0, multiplicity = 1:

       Center              X                  Y                   Z               Mass
    ------------   -----------------  -----------------  -----------------  -----------------
         C           -0.561855024707     0.990380804011    -0.545435895927    12.000000000000
         C           -1.664855024707     1.666380804011    -1.361435895927    12.000000000000
         C            0.799144975293     1.561380804011    -0.939435895927    12.000000000000
         C           -0.807855024707     1.213380804011     0.945564104073    12.000000000000
         H           -0.569855024707    -0.071619195989    -0.761435895927     1.007825032230
         H           -1.391855024707     1.629380804011    -2.412435895927     1.007825032230
         H           -1.668855024707     2.722380804011    -1.081435895927     1.007825032230
         H            0.830144975293     2.633380804011    -0.735435895927     1.007825032230
         H            1.582144975293     1.065380804011    -0.365435895927     1.007825032230
         H            0.985144975293     1.390380804011    -1.999435895927     1.007825032230
         H           -1.703855024707     0.693380804011     1.275564104073     1.007825032230
         H            0.036144975293     0.830380804011     1.518564104073     1.007825032230
         H           -0.909855024707     2.278380804011     1.152564104073     1.007825032230
         H           -2.684705024707     1.274630804011    -1.233235895927     1.007825032230
         C            0.645144975293    -2.333619195989     0.370564104073    12.000000000000
         C            1.508144975293    -2.979619195989     1.456564104073    12.000000000000
         H           -0.131855024707    -3.025619195989     0.037564104073     1.007825032230
         H            0.173144975293    -1.443619195989     0.777564104073     1.007825032230
         H            1.270144975293    -2.038619195989    -0.470435895927     1.007825032230
         H            2.389144975293    -2.357619195989     1.613564104073     1.007825032230
         H            1.807524975293    -3.991919195989     1.147354104073     1.007825032230
         H            0.965204975293    -2.997059195989     2.413074104073     1.007825032230

  Running in c1 symmetry.

  Rotational constants: A =      0.16115  B =      0.03363  C =      0.03288 [cm^-1]
  Rotational constants: A =   4831.08973  B =   1008.17606  C =    985.80601 [MHz]
  Nuclear repulsion =  247.647984979628376

  Charge       = 0
  Multiplicity = 1
  Electrons    = 52
  Nalpha       = 26
  Nbeta        = 26

  ==> Algorithm <==

  SCF Algorithm Type is PK.
  DIIS enabled.
  MOM disabled.
  Fractional occupation disabled.
  Guess Type is SAD.
  Energy threshold   = 1.00e-06
  Density threshold  = 1.00e-10
  Integral threshold = 0.00e+00

  ==> Primary Basis <==

  Basis Set: CC-PVDZ
    Blend: CC-PVDZ
    Number of shells: 84
    Number of basis function: 164
    Number of Cartesian functions: 170
    Spherical Harmonics?: true
    Max angular momentum: 2

  ==> Pre-Iterations <==

   -------------------------------------------------------
    Irrep   Nso     Nmo     Nalpha   Nbeta   Ndocc  Nsocc
   -------------------------------------------------------
     A        164     164       0       0       0       0
   -------------------------------------------------------
    Total     164     164      26      26      26       0
   -------------------------------------------------------

  ==> Integral Setup <==

  Using integral reordering PK algorithm.
  Sizing the integral batches needed.
  Building batch lookup table.
   Calculation information:
      Number of atoms:                  22
      Number of AO shells:              84
      Number of primitives:            212
      Number of atomic orbitals:       170
      Number of basis functions:       164

      Integral cutoff                 1.00e-12
      Number of threads:                 1

	Batch   1 pq = [       0,    9405] index = [             0,44231715] size =     44231715
	Batch   2 pq = [    9405,   13530] index = [      44231715,91537215] size =     47305500
  Task number: 9
  Buffer size: 11059200
  Buffer per thread: 2
  We computed 5807392 shell quartets total.
  Whereas there are 6374235 unique shell quartets.

  ==> DiskJK: Disk-Based J/K Matrices <==

    J tasked:                  Yes
    K tasked:                  Yes
    wK tasked:                  No
    Memory [MiB]:              375
    Schwarz Cutoff:          1E-12

    OpenMP threads:              1

  Minimum eigenvalue in the overlap matrix is 4.4396491377E-03.
  Using Symmetric Orthogonalization.

  SCF Guess: Superposition of Atomic Densities via on-the-fly atomic UHF.

  ==> Iterations <==

                        Total Energy        Delta E     RMS |[F,P]|

   @RHF iter SAD:  -235.47146094555839   -2.35471e+02   0.00000e+00
   @RHF iter   1:  -236.31014762676352   -8.38687e-01   3.53473e-03 DIIS
   @RHF iter   2:  -236.50114065953323   -1.90993e-01   1.52764e-03 DIIS
   @RHF iter   3:  -236.53483348564723   -3.36928e-02   3.14726e-04 DIIS
   @RHF iter   4:  -236.53747588774479   -2.64240e-03   6.97389e-05 DIIS
   @RHF iter   5:  -236.53756269006027   -8.68023e-05   1.58953e-05 DIIS
   @RHF iter   6:  -236.53756846547563   -5.77542e-06   2.78022e-06 DIIS
   @RHF iter   7:  -236.53756866241639   -1.96941e-07   6.66123e-07 DIIS
   @RHF iter   8:  -236.53756867540415   -1.29878e-08   1.59994e-07 DIIS
   @RHF iter   9:  -236.53756867613859   -7.34445e-10   4.60780e-08 DIIS
   @RHF iter  10:  -236.53756867620677   -6.81837e-11   1.00076e-08 DIIS
   @RHF iter  11:  -236.53756867621004   -3.26850e-12   2.03351e-09 DIIS
   @RHF iter  12:  -236.53756867621036   -3.12639e-13   3.89651e-10 DIIS
   @RHF iter  13:  -236.53756867621144   -1.08002e-12   8.11246e-11 DIIS
  Energy and wave function converged.

  ==> Post-Iterations <==

    Orbital Energies [Eh]
    ---------------------

    Doubly Occupied:

       1A    -11.221336     2A    -11.219356     3A    -11.216114
       4A    -11.214025     5A    -11.212873     6A    -11.212662
       7A     -1.083470     8A     -1.018691     9A     -0.927341
      10A     -0.924623    11A     -0.837198    12A     -0.766225
      13A     -0.634747    14A     -0.601470    15A     -0.597470
      16A     -0.591458    17A     -0.585248    18A     -0.536674
      19A     -0.528030    20A     -0.508660    21A     -0.499829
      22A     -0.488276    23A     -0.483968    24A     -0.460094
      25A     -0.458614    26A     -0.454663

    Virtual:

      27A      0.166982    28A      0.195334    29A      0.215435
      30A      0.221945    31A      0.237802    32A      0.239762
      33A      0.249468    34A      0.260064    35A      0.267895
      36A      0.273882    37A      0.293083    38A      0.302133
      39A      0.308329    40A      0.311312    41A      0.328825
      42A      0.336517    43A      0.362115    44A      0.404159
      45A      0.409483    46A      0.419473    47A      0.562319
      48A      0.578183    49A      0.595380    50A      0.599257
      51A      0.611409    52A      0.623442    53A      0.633378
      54A      0.667614    55A      0.693276    56A      0.754552
      57A      0.757335    58A      0.780745    59A      0.796338
      60A      0.836006    61A      0.857097    62A      0.875283
      63A      0.876209    64A      0.885525    65A      0.889104
      66A      0.890791    67A      0.897890    68A      0.901464
      69A      0.908438    70A      0.917117    71A      0.919498
      72A      0.933476    73A      0.936751    74A      0.953203
      75A      0.959481    76A      0.970416    77A      0.985070
      78A      0.999799    79A      1.007960    80A      1.062956
      81A      1.122720    82A      1.127800    83A      1.134592
      84A      1.150807    85A      1.168496    86A      1.287210
      87A      1.371461    88A      1.400060    89A      1.425381
      90A      1.482383    91A      1.487449    92A      1.539654
      93A      1.570606    94A      1.598578    95A      1.652772
      96A      1.660280    97A      1.680070    98A      1.683810
      99A      1.694149   100A      1.705747   101A      1.715689
     102A      1.723426   103A      1.736653   104A      1.836390
     105A      1.842482   106A      1.858118   107A      1.866146
     108A      1.880232   109A      1.910252   110A      1.926227
     111A      1.934073   112A      1.941728   113A      1.948699
     114A      1.949415   115A      1.958527   116A      1.961898
     117A      1.970644   118A      1.983940   119A      1.994970
     120A      2.011059   121A      2.022598   122A      2.037410
     123A      2.069437   124A      2.087715   125A      2.117346
     126A      2.128498   127A      2.133082   128A      2.146132
     129A      2.152898   130A      2.252314   131A      2.270745
     132A      2.296292   133A      2.299542   134A      2.314357
     135A      2.328718   136A      2.345392   137A      2.365173
     138A      2.394524   139A      2.446180   140A      2.458520
     141A      2.490654   142A      2.568305   143A      2.576030
     144A      2.590411   145A      2.613693   146A      2.639929
     147A      2.707410   148A      2.733610   149A      2.758174
     150A      2.764238   151A      2.786903   152A      2.794421
     153A      2.796177   154A      2.820043   155A      2.832939
     156A      2.841893   157A      2.849471   158A      2.858496
     159A      2.875494   160A      2.951183   161A      2.971117
     162A      3.018799   163A      3.043155   164A      3.144263

    Final Occupation by Irrep:
              A
    DOCC [    26 ]

  @RHF Final Energy:  -236.53756867621144

   => Energetics <=

    Nuclear Repulsion Energy =            247.6479849796283759
    One-Electron Energy =                -807.8048760854360353
    Two-Electron Energy =                 323.6193224295961954
    Total Energy =                       -236.5375686762114356

Computation Completed

Properties will be evaluated at   0.000000,   0.000000,   0.000000 [a0]

Properties computed using the SCF density matrix

  Nuclear Dipole Moment: [e a0]
     X:     0.9168      Y:    -1.3203      Z:     0.8217

  Electronic Dipole Moment: [e a0]
     X:    -0.9122      Y:     1.2881      Z:    -0.8332

  Dipole Moment: [e a0]
     X:     0.0046      Y:    -0.0323      Z:    -0.0115     Total:     0.0346

  Dipole Moment: [D]
     X:     0.0117      Y:    -0.0820      Z:    -0.0292     Total:     0.0878

*** tstop() called on ds3 at Tue Apr 28 09:47:47 2020
Module time:
	user time   =      29.30 seconds =       0.49 minutes
	system time =      10.46 seconds =       0.17 minutes
	total time  =         38 seconds =       0.63 minutes
Total time:
	user time   =      29.30 seconds =       0.49 minutes
	system time =      10.46 seconds =       0.17 minutes
	total time  =         38 seconds =       0.63 minutes
                                     G D M A

                                 by Anthony Stone

                           version 2.2.06, 22 June 2011

               Distributed Multipoles from Gaussian wavefunctions

Starting at 9:47:47 on 28 Apr 2020

Using SCF density matrix from file ./SSI/SSI-026LEU-135ALA-1-dimer.test.28976.fchk

                         Distributed Multipole Analysis

Standard DMA

Positions and radii in angstrom
Multipole moments in atomic units, ea_0^k for rank k

C          x = -0.561855  y =  0.990381  z = -0.545436 angstrom
           Maximum rank =  0   Radius =  0.650 angstrom
                   Q00  =  -0.004761

C          x = -1.664855  y =  1.666381  z = -1.361436 angstrom
           Maximum rank =  0   Radius =  0.650 angstrom
                   Q00  =  -0.231369

C          x =  0.799145  y =  1.561381  z = -0.939436 angstrom
           Maximum rank =  0   Radius =  0.650 angstrom
                   Q00  =  -0.248071

C          x = -0.807855  y =  1.213381  z =  0.945564 angstrom
           Maximum rank =  0   Radius =  0.650 angstrom
                   Q00  =  -0.245572

H          x = -0.569855  y = -0.071619  z = -0.761436 angstrom
           Maximum rank =  0   Radius =  0.325 angstrom
                   Q00  =   0.023283

H          x = -1.391855  y =  1.629381  z = -2.412436 angstrom
           Maximum rank =  0   Radius =  0.325 angstrom
                   Q00  =   0.077543

H          x = -1.668855  y =  2.722381  z = -1.081436 angstrom
           Maximum rank =  0   Radius =  0.325 angstrom
                   Q00  =   0.068218

H          x =  0.830145  y =  2.633381  z = -0.735436 angstrom
           Maximum rank =  0   Radius =  0.325 angstrom
                   Q00  =   0.075852

H          x =  1.582145  y =  1.065381  z = -0.365436 angstrom
           Maximum rank =  0   Radius =  0.325 angstrom
                   Q00  =   0.081459

H          x =  0.985145  y =  1.390381  z = -1.999436 angstrom
           Maximum rank =  0   Radius =  0.325 angstrom
                   Q00  =   0.080976

H          x = -1.703855  y =  0.693381  z =  1.275564 angstrom
           Maximum rank =  0   Radius =  0.325 angstrom
                   Q00  =   0.081784

H          x =  0.036145  y =  0.830381  z =  1.518564 angstrom
           Maximum rank =  0   Radius =  0.325 angstrom
                   Q00  =   0.075024

H          x = -0.909855  y =  2.278381  z =  1.152564 angstrom
           Maximum rank =  0   Radius =  0.325 angstrom
                   Q00  =   0.078110

H          x = -2.684705  y =  1.274631  z = -1.233236 angstrom
           Maximum rank =  0   Radius =  0.325 angstrom
                   Q00  =   0.085470

C          x =  0.645145  y = -2.333619  z =  0.370564 angstrom
           Maximum rank =  0   Radius =  0.650 angstrom
                   Q00  =  -0.230157

C          x =  1.508145  y = -2.979619  z =  1.456564 angstrom
           Maximum rank =  0   Radius =  0.650 angstrom
                   Q00  =  -0.243240

H          x = -0.131855  y = -3.025619  z =  0.037564 angstrom
           Maximum rank =  0   Radius =  0.325 angstrom
                   Q00  =   0.079409

H          x =  0.173145  y = -1.443619  z =  0.777564 angstrom
           Maximum rank =  0   Radius =  0.325 angstrom
                   Q00  =   0.081881

H          x =  1.270145  y = -2.038619  z = -0.470436 angstrom
           Maximum rank =  0   Radius =  0.325 angstrom
                   Q00  =   0.077419

H          x =  2.389145  y = -2.357619  z =  1.613564 angstrom
           Maximum rank =  0   Radius =  0.325 angstrom
                   Q00  =   0.077394

H          x =  1.807525  y = -3.991919  z =  1.147354 angstrom
           Maximum rank =  0   Radius =  0.325 angstrom
                   Q00  =   0.081119

H          x =  0.965205  y = -2.997059  z =  2.413074 angstrom
           Maximum rank =  0   Radius =  0.325 angstrom
                   Q00  =   0.078227

Total multipoles referred to origin at
           x =   0.000000,  y =    0.000000,  z =    0.000000 angstrom
                   Q00  =  -0.000000

Finished at 9:47:47 on 28 Apr 2020

  DMA results are available in the Python driver through the
	  variable('DMA DISTRIBUTED MULTIPOLES')
  and
	  variable('DMA TOTAL MULTIPOLES')
  commands.

    Psi4 stopped on: Tuesday, 28 April 2020 09:47AM
    Psi4 wall time for execution: 0:00:38.62

*** Psi4 exiting successfully. Buy a developer a beer!
