                               Psi4 1.3.2 release

  ==> Input File <==

--------------------------------------------------------------------------
import numpy as np
set {scf_type pk
basis cc-pvdz
d_convergence 10
gdma_switch   0
gdma_limit    0
gdma_origin   [ 0.0,  0.0,  0.0 ]
}
molecule test {
    units Angstrom
    0 1
    --
    0 1
    C               -0.447595099366866    -2.555545682561433     1.519918515264989
    C               -0.265595099366866     1.190454317438567     0.851918515264989
    C               -0.044595099366866    -0.063545682561433     1.424918515264989
    C               -1.139595099366866     1.319454317438567    -0.227081484735011
    C               -0.719595099366866    -1.187545682561433     0.942918515264989
    C               -1.807595099366866     0.209454317438567    -0.726081484735011
    C               -1.600595099366866    -1.035545682561433    -0.138081484735011
    O               -1.348595099366866     2.540454317438567    -0.791081484735011
    H                0.259404900633134     2.055454317438567     1.233918515264989
    H                0.654404900633134    -0.161545682561433     2.246918515264989
    H               -0.807595099366866     3.226454317438567    -0.381081484735011
    H               -2.492595099366866     0.321454317438567    -1.555081484735011
    H               -1.392595099366866    -3.072545682561433     1.693918515264989
    H                0.058404900633134    -2.445545682561433     2.479918515264989
    H               -2.154595099366866    -1.884545682561433    -0.511081484735011
    H                0.188074900633134    -3.149025682561433     0.846318515264989
    C                2.953404900633134     0.057454317438567    -0.691081484735011
    C                3.679404900633134    -0.724545682561433    -1.785081484735011
    H                3.657404900633134     0.409454317438567     0.063918515264989
    H                2.440404900633133     0.913454317438567    -1.130081484735011
    H                2.210404900633133    -0.584545682561433    -0.219081484735011
    H                2.957404900633134    -0.992545682561433    -2.553081484735011
    H                4.129894900633134    -1.646295682561433    -1.388281484735011
    H                4.459644900633133    -0.089535682561433    -2.230081484735011

}
e, wfn = energy('scf', return_wfn=True)
gdma(wfn)
dmavals = variable('DMA DISTRIBUTED MULTIPOLES')
charges = np.array(dmavals)
print(charges)
np.save('SSI-043TYR-049THR-1-dimer.npy', np.array(charges))--------------------------------------------------------------------------

*** tstart() called on ds3
*** at Sun Apr 26 23:05:54 2020

   => Loading Basis Set <=

    Name: CC-PVDZ
    Role: ORBITAL
    Keyword: BASIS
    atoms 1-7, 17-18  entry C          line   138 file /theoryfs2/ds/metcalf/miniconda2/envs/tf2gpu/share/psi4/basis/cc-pvdz.gbs
    atoms 8           entry O          line   198 file /theoryfs2/ds/metcalf/miniconda2/envs/tf2gpu/share/psi4/basis/cc-pvdz.gbs
    atoms 9-16, 19-24 entry H          line    22 file /theoryfs2/ds/metcalf/miniconda2/envs/tf2gpu/share/psi4/basis/cc-pvdz.gbs

         ---------------------------------------------------------
                                   SCF
               by Justin Turney, Rob Parrish, Andy Simmonett
                          and Daniel G. A. Smith
                              RHF Reference
                        1 Threads,    500 MiB Core
         ---------------------------------------------------------

  ==> Geometry <==

    Molecular point group: c1
    Full point group: C1

    Geometry (in Angstrom), charge = 0, multiplicity = 1:

       Center              X                  Y                   Z               Mass
    ------------   -----------------  -----------------  -----------------  -----------------
         C           -0.447595099367    -2.555545682561     1.519918515265    12.000000000000
         C           -0.265595099367     1.190454317439     0.851918515265    12.000000000000
         C           -0.044595099367    -0.063545682561     1.424918515265    12.000000000000
         C           -1.139595099367     1.319454317439    -0.227081484735    12.000000000000
         C           -0.719595099367    -1.187545682561     0.942918515265    12.000000000000
         C           -1.807595099367     0.209454317439    -0.726081484735    12.000000000000
         C           -1.600595099367    -1.035545682561    -0.138081484735    12.000000000000
         O           -1.348595099367     2.540454317439    -0.791081484735    15.994914619570
         H            0.259404900633     2.055454317439     1.233918515265     1.007825032230
         H            0.654404900633    -0.161545682561     2.246918515265     1.007825032230
         H           -0.807595099367     3.226454317439    -0.381081484735     1.007825032230
         H           -2.492595099367     0.321454317439    -1.555081484735     1.007825032230
         H           -1.392595099367    -3.072545682561     1.693918515265     1.007825032230
         H            0.058404900633    -2.445545682561     2.479918515265     1.007825032230
         H           -2.154595099367    -1.884545682561    -0.511081484735     1.007825032230
         H            0.188074900633    -3.149025682561     0.846318515265     1.007825032230
         C            2.953404900633     0.057454317439    -0.691081484735    12.000000000000
         C            3.679404900633    -0.724545682561    -1.785081484735    12.000000000000
         H            3.657404900633     0.409454317439     0.063918515265     1.007825032230
         H            2.440404900633     0.913454317439    -1.130081484735     1.007825032230
         H            2.210404900633    -0.584545682561    -0.219081484735     1.007825032230
         H            2.957404900633    -0.992545682561    -2.553081484735     1.007825032230
         H            4.129894900633    -1.646295682561    -1.388281484735     1.007825032230
         H            4.459644900633    -0.089535682561    -2.230081484735     1.007825032230

  Running in c1 symmetry.

  Rotational constants: A =      0.03929  B =      0.02767  C =      0.01966 [cm^-1]
  Rotational constants: A =   1177.97590  B =    829.39806  C =    589.49095 [MHz]
  Nuclear repulsion =  498.081429626982469

  Charge       = 0
  Multiplicity = 1
  Electrons    = 76
  Nalpha       = 38
  Nbeta        = 38

  ==> Algorithm <==

  SCF Algorithm Type is PK.
  DIIS enabled.
  MOM disabled.
  Fractional occupation disabled.
  Guess Type is SAD.
  Energy threshold   = 1.00e-06
  Density threshold  = 1.00e-10
  Integral threshold = 0.00e+00

  ==> Primary Basis <==

  Basis Set: CC-PVDZ
    Blend: CC-PVDZ
    Number of shells: 102
    Number of basis function: 210
    Number of Cartesian functions: 220
    Spherical Harmonics?: true
    Max angular momentum: 2

  ==> Pre-Iterations <==

   -------------------------------------------------------
    Irrep   Nso     Nmo     Nalpha   Nbeta   Ndocc  Nsocc
   -------------------------------------------------------
     A        210     210       0       0       0       0
   -------------------------------------------------------
    Total     210     210      38      38      38       0
   -------------------------------------------------------

  ==> Integral Setup <==

  Using integral reordering PK algorithm.
  Sizing the integral batches needed.
  Building batch lookup table.
   Calculation information:
      Number of atoms:                  24
      Number of AO shells:             102
      Number of primitives:            290
      Number of atomic orbitals:       220
      Number of basis functions:       210

      Integral cutoff                 1.00e-12
      Number of threads:                 1

	Batch   1 pq = [       0,    9405] index = [             0,44231715] size =     44231715
	Batch   2 pq = [    9405,   13301] index = [      44231715,88464951] size =     44233236
	Batch   3 pq = [   13301,   16290] index = [      88464951,132690195] size =     44225244
	Batch   4 pq = [   16290,   18810] index = [     132690195,176917455] size =     44227260
	Batch   5 pq = [   18810,   21030] index = [     176917455,221140965] size =     44223510
	Batch   6 pq = [   21030,   22155] index = [     221140965,245433090] size =     24292125
  Task number: 23
  Buffer size: 11059200
  Buffer per thread: 2
  We computed 12269946 shell quartets total.
  Whereas there are 13799631 unique shell quartets.

  ==> DiskJK: Disk-Based J/K Matrices <==

    J tasked:                  Yes
    K tasked:                  Yes
    wK tasked:                  No
    Memory [MiB]:              375
    Schwarz Cutoff:          1E-12

    OpenMP threads:              1

  Minimum eigenvalue in the overlap matrix is 3.2918953720E-04.
  Using Symmetric Orthogonalization.

  SCF Guess: Superposition of Atomic Densities via on-the-fly atomic UHF.

  ==> Iterations <==

                        Total Energy        Delta E     RMS |[F,P]|

   @RHF iter SAD:  -422.65123496654564   -4.22651e+02   0.00000e+00
   @RHF iter   1:  -423.60258708929700   -9.51352e-01   2.97704e-03 DIIS
   @RHF iter   2:  -423.81885872706818   -2.16272e-01   1.25252e-03 DIIS
   @RHF iter   3:  -423.85348632133258   -3.46276e-02   2.80996e-04 DIIS
   @RHF iter   4:  -423.85632201780379   -2.83570e-03   1.14622e-04 DIIS
   @RHF iter   5:  -423.85665938824093   -3.37370e-04   2.09341e-05 DIIS
   @RHF iter   6:  -423.85667724254392   -1.78543e-05   6.45488e-06 DIIS
   @RHF iter   7:  -423.85667899553391   -1.75299e-06   2.21033e-06 DIIS
   @RHF iter   8:  -423.85667927641987   -2.80886e-07   8.65388e-07 DIIS
   @RHF iter   9:  -423.85667933452379   -5.81039e-08   3.91250e-07 DIIS
   @RHF iter  10:  -423.85667934809186   -1.35681e-08   1.70827e-07 DIIS
   @RHF iter  11:  -423.85667935229912   -4.20727e-09   7.11666e-08 DIIS
   @RHF iter  12:  -423.85667935284852   -5.49392e-10   3.00142e-08 DIIS
   @RHF iter  13:  -423.85667935292207   -7.35554e-11   8.28947e-09 DIIS
   @RHF iter  14:  -423.85667935292673   -4.66116e-12   2.37088e-09 DIIS
   @RHF iter  15:  -423.85667935292645    2.84217e-13   9.31687e-10 DIIS
   @RHF iter  16:  -423.85667935292764   -1.19371e-12   4.05912e-10 DIIS
   @RHF iter  17:  -423.85667935292804   -3.97904e-13   1.85306e-10 DIIS
   @RHF iter  18:  -423.85667935292736    6.82121e-13   8.45770e-11 DIIS
  Energy and wave function converged.

  ==> Post-Iterations <==

    Orbital Energies [Eh]
    ---------------------

    Doubly Occupied:

       1A    -20.582719     2A    -11.299115     3A    -11.239626
       4A    -11.238953     5A    -11.234333     6A    -11.232876
       7A    -11.230517     8A    -11.228778     9A    -11.214183
      10A    -11.209697    11A     -1.399690    12A     -1.149056
      13A     -1.036543    14A     -1.017528    15A     -1.012559
      16A     -0.925495    17A     -0.843896    18A     -0.830884
      19A     -0.801430    20A     -0.731291    21A     -0.667157
      22A     -0.641334    23A     -0.604664    24A     -0.594495
      25A     -0.591982    26A     -0.587281    27A     -0.585795
      28A     -0.571312    29A     -0.567973    30A     -0.526588
      31A     -0.496229    32A     -0.495311    33A     -0.485533
      34A     -0.482458    35A     -0.480121    36A     -0.462855
      37A     -0.337879    38A     -0.300613

    Virtual:

      39A      0.128740    40A      0.156121    41A      0.172713
      42A      0.179792    43A      0.197710    44A      0.214357
      45A      0.217794    46A      0.248698    47A      0.252696
      48A      0.260528    49A      0.263632    50A      0.271814
      51A      0.278212    52A      0.291078    53A      0.293927
      54A      0.327265    55A      0.369063    56A      0.372077
      57A      0.399355    58A      0.430499    59A      0.453531
      60A      0.477768    61A      0.495697    62A      0.512144
      63A      0.583558    64A      0.600707    65A      0.603043
      66A      0.616898    67A      0.638059    68A      0.644364
      69A      0.653744    70A      0.672404    71A      0.677827
      72A      0.693639    73A      0.704547    74A      0.724273
      75A      0.735494    76A      0.737553    77A      0.761131
      78A      0.774103    79A      0.783150    80A      0.791432
      81A      0.809672    82A      0.833117    83A      0.848041
      84A      0.857845    85A      0.877378    86A      0.883598
      87A      0.887633    88A      0.893401    89A      0.897567
      90A      0.899533    91A      0.906328    92A      0.919263
      93A      0.922027    94A      0.926968    95A      0.942827
      96A      0.944061    97A      0.945669    98A      0.968776
      99A      1.007240   100A      1.019207   101A      1.044849
     102A      1.064034   103A      1.124242   104A      1.126665
     105A      1.135081   106A      1.144861   107A      1.152287
     108A      1.177519   109A      1.209521   110A      1.228429
     111A      1.242039   112A      1.257101   113A      1.271368
     114A      1.288897   115A      1.297033   116A      1.305852
     117A      1.315881   118A      1.349299   119A      1.362469
     120A      1.390674   121A      1.479754   122A      1.480264
     123A      1.484531   124A      1.495043   125A      1.541443
     126A      1.563380   127A      1.588029   128A      1.611205
     129A      1.620775   130A      1.676072   131A      1.685650
     132A      1.699006   133A      1.700776   134A      1.734498
     135A      1.740994   136A      1.781240   137A      1.798201
     138A      1.807511   139A      1.862726   140A      1.871524
     141A      1.878977   142A      1.880059   143A      1.897198
     144A      1.907083   145A      1.908512   146A      1.915151
     147A      1.921120   148A      1.939669   149A      1.946737
     150A      1.951596   151A      1.957371   152A      1.963188
     153A      1.970154   154A      1.983776   155A      1.990096
     156A      2.009513   157A      2.035880   158A      2.051225
     159A      2.065533   160A      2.066713   161A      2.080810
     162A      2.106961   163A      2.118267   164A      2.130643
     165A      2.146540   166A      2.173460   167A      2.199897
     168A      2.214371   169A      2.260225   170A      2.268810
     171A      2.296694   172A      2.307159   173A      2.319684
     174A      2.343989   175A      2.368207   176A      2.411296
     177A      2.452404   178A      2.462971   179A      2.467716
     180A      2.477590   181A      2.493802   182A      2.522659
     183A      2.539605   184A      2.565791   185A      2.583114
     186A      2.610135   187A      2.645802   188A      2.743035
     189A      2.768622   190A      2.770576   191A      2.784136
     192A      2.798571   193A      2.807769   194A      2.834211
     195A      2.856856   196A      2.862907   197A      2.904939
     198A      2.951847   199A      2.960811   200A      2.981875
     201A      3.005366   202A      3.085985   203A      3.106528
     204A      3.249864   205A      3.274191   206A      3.347456
     207A      3.574354   208A      3.674367   209A      3.965782
     210A      4.191496

    Final Occupation by Irrep:
              A
    DOCC [    38 ]

  @RHF Final Energy:  -423.85667935292736

   => Energetics <=

    Nuclear Repulsion Energy =            498.0814296269824695
    One-Electron Energy =               -1561.9987160092719023
    Two-Electron Energy =                 640.0606070293620178
    Total Energy =                       -423.8566793529273582

Computation Completed

Properties will be evaluated at   0.000000,   0.000000,   0.000000 [a0]

Properties computed using the SCF density matrix

  Nuclear Dipole Moment: [e a0]
     X:    13.2757      Y:    -6.6437      Z:    -1.3190

  Electronic Dipole Moment: [e a0]
     X:   -12.9628      Y:     6.6966      Z:     1.7240

  Dipole Moment: [e a0]
     X:     0.3128      Y:     0.0529      Z:     0.4050     Total:     0.5145

  Dipole Moment: [D]
     X:     0.7951      Y:     0.1345      Z:     1.0295     Total:     1.3077

*** tstop() called on ds3 at Sun Apr 26 23:08:19 2020
Module time:
	user time   =      89.76 seconds =       1.50 minutes
	system time =      36.67 seconds =       0.61 minutes
	total time  =        145 seconds =       2.42 minutes
Total time:
	user time   =      89.76 seconds =       1.50 minutes
	system time =      36.67 seconds =       0.61 minutes
	total time  =        145 seconds =       2.42 minutes
                                     G D M A

                                 by Anthony Stone

                           version 2.2.06, 22 June 2011

               Distributed Multipoles from Gaussian wavefunctions

Starting at 23:8:19 on 26 Apr 2020

Using SCF density matrix from file ./SSI/SSI-043TYR-049THR-1-dimer.test.24380.fchk

                         Distributed Multipole Analysis

Standard DMA

Positions and radii in angstrom
Multipole moments in atomic units, ea_0^k for rank k

C          x = -0.447595  y = -2.555546  z =  1.519919 angstrom
           Maximum rank =  0   Radius =  0.650 angstrom
                   Q00  =  -0.196470

C          x = -0.265595  y =  1.190454  z =  0.851919 angstrom
           Maximum rank =  0   Radius =  0.650 angstrom
                   Q00  =  -0.179592

C          x = -0.044595  y = -0.063546  z =  1.424919 angstrom
           Maximum rank =  0   Radius =  0.650 angstrom
                   Q00  =  -0.058888

C          x = -1.139595  y =  1.319454  z = -0.227081 angstrom
           Maximum rank =  0   Radius =  0.650 angstrom
                   Q00  =   0.348634

C          x = -0.719595  y = -1.187546  z =  0.942919 angstrom
           Maximum rank =  0   Radius =  0.650 angstrom
                   Q00  =  -0.134896

C          x = -1.807595  y =  0.209454  z = -0.726081 angstrom
           Maximum rank =  0   Radius =  0.650 angstrom
                   Q00  =  -0.110562

C          x = -1.600595  y = -1.035546  z = -0.138081 angstrom
           Maximum rank =  0   Radius =  0.650 angstrom
                   Q00  =   0.024156

O          x = -1.348595  y =  2.540454  z = -0.791081 angstrom
           Maximum rank =  0   Radius =  0.650 angstrom
                   Q00  =  -0.674718

H          x =  0.259405  y =  2.055454  z =  1.233919 angstrom
           Maximum rank =  0   Radius =  0.325 angstrom
                   Q00  =   0.071699

H          x =  0.654405  y = -0.161546  z =  2.246919 angstrom
           Maximum rank =  0   Radius =  0.325 angstrom
                   Q00  =   0.071023

H          x = -0.807595  y =  3.226454  z = -0.381081 angstrom
           Maximum rank =  0   Radius =  0.325 angstrom
                   Q00  =   0.407104

H          x = -2.492595  y =  0.321454  z = -1.555081 angstrom
           Maximum rank =  0   Radius =  0.325 angstrom
                   Q00  =   0.081465

H          x = -1.392595  y = -3.072546  z =  1.693919 angstrom
           Maximum rank =  0   Radius =  0.325 angstrom
                   Q00  =   0.097628

H          x =  0.058405  y = -2.445546  z =  2.479919 angstrom
           Maximum rank =  0   Radius =  0.325 angstrom
                   Q00  =   0.095412

H          x = -2.154595  y = -1.884546  z = -0.511081 angstrom
           Maximum rank =  0   Radius =  0.325 angstrom
                   Q00  =   0.062843

H          x =  0.188075  y = -3.149026  z =  0.846319 angstrom
           Maximum rank =  0   Radius =  0.325 angstrom
                   Q00  =   0.097594

C          x =  2.953405  y =  0.057454  z = -0.691081 angstrom
           Maximum rank =  0   Radius =  0.650 angstrom
                   Q00  =  -0.222913

C          x =  3.679405  y = -0.724546  z = -1.785081 angstrom
           Maximum rank =  0   Radius =  0.650 angstrom
                   Q00  =  -0.246827

H          x =  3.657405  y =  0.409454  z =  0.063919 angstrom
           Maximum rank =  0   Radius =  0.325 angstrom
                   Q00  =   0.070506

H          x =  2.440405  y =  0.913454  z = -1.130081 angstrom
           Maximum rank =  0   Radius =  0.325 angstrom
                   Q00  =   0.079132

H          x =  2.210405  y = -0.584546  z = -0.219081 angstrom
           Maximum rank =  0   Radius =  0.325 angstrom
                   Q00  =   0.086610

H          x =  2.957405  y = -0.992546  z = -2.553081 angstrom
           Maximum rank =  0   Radius =  0.325 angstrom
                   Q00  =   0.080171

H          x =  4.129895  y = -1.646296  z = -1.388281 angstrom
           Maximum rank =  0   Radius =  0.325 angstrom
                   Q00  =   0.076526

H          x =  4.459645  y = -0.089536  z = -2.230081 angstrom
           Maximum rank =  0   Radius =  0.325 angstrom
                   Q00  =   0.074361

Total multipoles referred to origin at
           x =   0.000000,  y =    0.000000,  z =    0.000000 angstrom
                   Q00  =  -0.000000

Finished at 23:8:19 on 26 Apr 2020

  DMA results are available in the Python driver through the
	  variable('DMA DISTRIBUTED MULTIPOLES')
  and
	  variable('DMA TOTAL MULTIPOLES')
  commands.

    Psi4 stopped on: Sunday, 26 April 2020 11:08PM
    Psi4 wall time for execution: 0:02:25.53

*** Psi4 exiting successfully. Buy a developer a beer!
