                               Psi4 1.3.2 release

  ==> Input File <==

--------------------------------------------------------------------------
import numpy as np
set {scf_type pk
basis cc-pvdz
d_convergence 10
gdma_switch   0
gdma_limit    0
gdma_origin   [ 0.0,  0.0,  0.0 ]
}
molecule test {
    units Angstrom
    0 1
    --
    0 1
    C                1.758242999173191     2.869587916535416    -0.982030876433270
    C                0.760242999173191    -0.615412083464585    -0.868030876433270
    C                1.096242999173191     1.539587916535415    -1.163030876433270
    C                0.053242999173191     1.165587916535415    -1.951030876433270
    N                1.514242999173191     0.405587916535415    -0.497030876433270
    N               -0.138757000826809    -0.184412083464585    -1.747030876433270
    H                0.884242999173191    -1.639412083464585    -0.534030876433270
    H               -0.821757000826809    -0.770412083464585    -2.213030876433270
    H               -0.515757000826809     1.806587916535416    -2.602030876433270
    H                2.563242999173191     2.957587916535415    -1.701030876433270
    H                2.217242999173191     2.842587916535415     0.002969123566730
    H                1.086622999173191     3.738237916535415    -1.048185876433270
    C               -1.366757000826809    -1.470412083464585     1.743969123566730
    C               -1.746757000826809    -2.917412083464584     2.074969123566730
    C               -1.552757000826809    -0.486412083464585     2.900969123566730
    H               -0.320757000826809    -1.441412083464585     1.441969123566730
    H               -1.976757000826809    -1.125412083464585     0.907969123566730
    H               -2.746757000826809    -2.916412083464585     2.507969123566730
    H               -0.884757000826809    -0.736412083464585     3.721969123566730
    H               -1.273757000826809     0.500587916535415     2.535969123566729
    H               -1.041218000826809    -3.343912083464584     2.803194123566730
    H               -1.813127000826809    -3.531290083464585     1.164612123566730
    H               -2.581617000826809    -0.427464083464585     3.285650723566730

}
e, wfn = energy('scf', return_wfn=True)
gdma(wfn)
dmavals = variable('DMA DISTRIBUTED MULTIPOLES')
charges = np.array(dmavals)
print(charges)
np.save('SSI-196HIE-221MET-1-dimer.npy', np.array(charges))--------------------------------------------------------------------------

*** tstart() called on ds3
*** at Mon Apr 27 01:23:45 2020

   => Loading Basis Set <=

    Name: CC-PVDZ
    Role: ORBITAL
    Keyword: BASIS
    atoms 1-4, 13-15  entry C          line   138 file /theoryfs2/ds/metcalf/miniconda2/envs/tf2gpu/share/psi4/basis/cc-pvdz.gbs
    atoms 5-6         entry N          line   168 file /theoryfs2/ds/metcalf/miniconda2/envs/tf2gpu/share/psi4/basis/cc-pvdz.gbs
    atoms 7-12, 16-23 entry H          line    22 file /theoryfs2/ds/metcalf/miniconda2/envs/tf2gpu/share/psi4/basis/cc-pvdz.gbs

         ---------------------------------------------------------
                                   SCF
               by Justin Turney, Rob Parrish, Andy Simmonett
                          and Daniel G. A. Smith
                              RHF Reference
                        1 Threads,    500 MiB Core
         ---------------------------------------------------------

  ==> Geometry <==

    Molecular point group: c1
    Full point group: C1

    Geometry (in Angstrom), charge = 0, multiplicity = 1:

       Center              X                  Y                   Z               Mass
    ------------   -----------------  -----------------  -----------------  -----------------
         C            1.758242999173     2.869587916535    -0.982030876433    12.000000000000
         C            0.760242999173    -0.615412083465    -0.868030876433    12.000000000000
         C            1.096242999173     1.539587916535    -1.163030876433    12.000000000000
         C            0.053242999173     1.165587916535    -1.951030876433    12.000000000000
         N            1.514242999173     0.405587916535    -0.497030876433    14.003074004430
         N           -0.138757000827    -0.184412083465    -1.747030876433    14.003074004430
         H            0.884242999173    -1.639412083465    -0.534030876433     1.007825032230
         H           -0.821757000827    -0.770412083465    -2.213030876433     1.007825032230
         H           -0.515757000827     1.806587916535    -2.602030876433     1.007825032230
         H            2.563242999173     2.957587916535    -1.701030876433     1.007825032230
         H            2.217242999173     2.842587916535     0.002969123567     1.007825032230
         H            1.086622999173     3.738237916535    -1.048185876433     1.007825032230
         C           -1.366757000827    -1.470412083465     1.743969123567    12.000000000000
         C           -1.746757000827    -2.917412083465     2.074969123567    12.000000000000
         C           -1.552757000827    -0.486412083465     2.900969123567    12.000000000000
         H           -0.320757000827    -1.441412083465     1.441969123567     1.007825032230
         H           -1.976757000827    -1.125412083465     0.907969123567     1.007825032230
         H           -2.746757000827    -2.916412083465     2.507969123567     1.007825032230
         H           -0.884757000827    -0.736412083465     3.721969123567     1.007825032230
         H           -1.273757000827     0.500587916535     2.535969123567     1.007825032230
         H           -1.041218000827    -3.343912083465     2.803194123567     1.007825032230
         H           -1.813127000827    -3.531290083465     1.164612123567     1.007825032230
         H           -2.581617000827    -0.427464083465     3.285650723567     1.007825032230

  Running in c1 symmetry.

  Rotational constants: A =      0.08918  B =      0.02055  C =      0.01857 [cm^-1]
  Rotational constants: A =   2673.50975  B =    616.08304  C =    556.73384 [MHz]
  Nuclear repulsion =  427.608993468169956

  Charge       = 0
  Multiplicity = 1
  Electrons    = 70
  Nalpha       = 35
  Nbeta        = 35

  ==> Algorithm <==

  SCF Algorithm Type is PK.
  DIIS enabled.
  MOM disabled.
  Fractional occupation disabled.
  Guess Type is SAD.
  Energy threshold   = 1.00e-06
  Density threshold  = 1.00e-10
  Integral threshold = 0.00e+00

  ==> Primary Basis <==

  Basis Set: CC-PVDZ
    Blend: CC-PVDZ
    Number of shells: 96
    Number of basis function: 196
    Number of Cartesian functions: 205
    Spherical Harmonics?: true
    Max angular momentum: 2

  ==> Pre-Iterations <==

   -------------------------------------------------------
    Irrep   Nso     Nmo     Nalpha   Nbeta   Ndocc  Nsocc
   -------------------------------------------------------
     A        196     196       0       0       0       0
   -------------------------------------------------------
    Total     196     196      35      35      35       0
   -------------------------------------------------------

  ==> Integral Setup <==

  Using integral reordering PK algorithm.
  Sizing the integral batches needed.
  Building batch lookup table.
   Calculation information:
      Number of atoms:                  23
      Number of AO shells:              96
      Number of primitives:            268
      Number of atomic orbitals:       205
      Number of basis functions:       196

      Integral cutoff                 1.00e-12
      Number of threads:                 1

	Batch   1 pq = [       0,    9405] index = [             0,44231715] size =     44231715
	Batch   2 pq = [    9405,   13301] index = [      44231715,88464951] size =     44233236
	Batch   3 pq = [   13301,   16290] index = [      88464951,132690195] size =     44225244
	Batch   4 pq = [   16290,   18810] index = [     132690195,176917455] size =     44227260
	Batch   5 pq = [   18810,   19306] index = [     176917455,186370471] size =      9453016
  Task number: 17
  Buffer size: 11059200
  Buffer per thread: 2
  We computed 8683309 shell quartets total.
  Whereas there are 10841496 unique shell quartets.

  ==> DiskJK: Disk-Based J/K Matrices <==

    J tasked:                  Yes
    K tasked:                  Yes
    wK tasked:                  No
    Memory [MiB]:              375
    Schwarz Cutoff:          1E-12

    OpenMP threads:              1

  Minimum eigenvalue in the overlap matrix is 1.1933958583E-03.
  Using Symmetric Orthogonalization.

  SCF Guess: Superposition of Atomic Densities via on-the-fly atomic UHF.

  ==> Iterations <==

                        Total Energy        Delta E     RMS |[F,P]|

   @RHF iter SAD:  -381.22317273784813   -3.81223e+02   0.00000e+00
   @RHF iter   1:  -381.89147124253128   -6.68299e-01   3.13932e-03 DIIS
   @RHF iter   2:  -382.09011329564322   -1.98642e-01   1.56687e-03 DIIS
   @RHF iter   3:  -382.13528175708780   -4.51685e-02   3.97479e-04 DIIS
   @RHF iter   4:  -382.13911931091650   -3.83755e-03   1.69357e-04 DIIS
   @RHF iter   5:  -382.13973898700789   -6.19676e-04   2.50359e-05 DIIS
   @RHF iter   6:  -382.13976182285546   -2.28358e-05   1.02793e-05 DIIS
   @RHF iter   7:  -382.13976538583387   -3.56298e-06   3.42515e-06 DIIS
   @RHF iter   8:  -382.13976607185845   -6.86025e-07   1.45030e-06 DIIS
   @RHF iter   9:  -382.13976622504640   -1.53188e-07   5.18350e-07 DIIS
   @RHF iter  10:  -382.13976624227007   -1.72237e-08   1.53653e-07 DIIS
   @RHF iter  11:  -382.13976624406507   -1.79500e-09   6.63735e-08 DIIS
   @RHF iter  12:  -382.13976624429296   -2.27885e-10   2.81440e-08 DIIS
   @RHF iter  13:  -382.13976624433582   -4.28599e-11   8.82811e-09 DIIS
   @RHF iter  14:  -382.13976624433849   -2.67164e-12   2.94002e-09 DIIS
   @RHF iter  15:  -382.13976624434127   -2.78533e-12   1.12627e-09 DIIS
   @RHF iter  16:  -382.13976624434252   -1.25056e-12   4.09394e-10 DIIS
   @RHF iter  17:  -382.13976624434167    8.52651e-13   1.40204e-10 DIIS
   @RHF iter  18:  -382.13976624434156    1.13687e-13   4.21849e-11 DIIS
  Energy and wave function converged.

  ==> Post-Iterations <==

    Orbital Energies [Eh]
    ---------------------

    Doubly Occupied:

       1A    -15.619673     2A    -15.526850     3A    -11.291223
       4A    -11.248344     5A    -11.241099     6A    -11.221533
       7A    -11.218427     8A    -11.217825     9A    -11.211859
      10A     -1.340819    11A     -1.153271    12A     -1.050141
      13A     -1.030512    14A     -0.941813    15A     -0.923858
      16A     -0.816628    17A     -0.795202    18A     -0.762020
      19A     -0.740339    20A     -0.625052    21A     -0.610424
      22A     -0.604438    23A     -0.597010    24A     -0.588612
      25A     -0.553131    26A     -0.547968    27A     -0.539027
      28A     -0.532068    29A     -0.521733    30A     -0.469155
      31A     -0.467389    32A     -0.465850    33A     -0.409235
      34A     -0.377890    35A     -0.307774

    Virtual:

      36A      0.162735    37A      0.185021    38A      0.190948
      39A      0.202039    40A      0.215510    41A      0.228171
      42A      0.236924    43A      0.240079    44A      0.246721
      45A      0.258480    46A      0.273026    47A      0.276029
      48A      0.291318    49A      0.300084    50A      0.303738
      51A      0.328030    52A      0.362490    53A      0.378423
      54A      0.403289    55A      0.415126    56A      0.433682
      57A      0.479566    58A      0.486439    59A      0.573415
      60A      0.598942    61A      0.603766    62A      0.613718
      63A      0.623501    64A      0.624325    65A      0.639914
      66A      0.645183    67A      0.667807    68A      0.708946
      69A      0.740162    70A      0.755185    71A      0.770778
      72A      0.784439    73A      0.808375    74A      0.812553
      75A      0.820616    76A      0.842353    77A      0.856107
      78A      0.881921    79A      0.883290    80A      0.888757
      81A      0.893225    82A      0.898145    83A      0.901781
      84A      0.905407    85A      0.911347    86A      0.917257
      87A      0.919263    88A      0.932792    89A      0.952861
      90A      0.971531    91A      0.972280    92A      0.978714
      93A      1.003004    94A      1.029717    95A      1.081643
      96A      1.098990    97A      1.101133    98A      1.124557
      99A      1.135696   100A      1.151152   101A      1.164483
     102A      1.188511   103A      1.220654   104A      1.245582
     105A      1.273853   106A      1.303216   107A      1.324379
     108A      1.346506   109A      1.384499   110A      1.430909
     111A      1.450151   112A      1.466314   113A      1.469087
     114A      1.503946   115A      1.513394   116A      1.533722
     117A      1.570926   118A      1.620585   119A      1.636058
     120A      1.652557   121A      1.674769   122A      1.695153
     123A      1.697186   124A      1.703296   125A      1.730132
     126A      1.793588   127A      1.810856   128A      1.835976
     129A      1.848690   130A      1.867112   131A      1.877566
     132A      1.894071   133A      1.904109   134A      1.910809
     135A      1.914388   136A      1.928983   137A      1.938972
     138A      1.945680   139A      1.958120   140A      1.962579
     141A      1.975612   142A      1.984226   143A      1.985902
     144A      1.991078   145A      2.000801   146A      2.009241
     147A      2.040585   148A      2.048007   149A      2.099593
     150A      2.123777   151A      2.131734   152A      2.153129
     153A      2.156706   154A      2.209549   155A      2.225221
     156A      2.247407   157A      2.283265   158A      2.305056
     159A      2.306846   160A      2.344423   161A      2.350230
     162A      2.367026   163A      2.377460   164A      2.430309
     165A      2.452320   166A      2.483869   167A      2.501418
     168A      2.537328   169A      2.561773   170A      2.580375
     171A      2.605437   172A      2.615472   173A      2.637731
     174A      2.684679   175A      2.734030   176A      2.754109
     177A      2.761950   178A      2.768743   179A      2.785824
     180A      2.789149   181A      2.799343   182A      2.822394
     183A      2.845560   184A      2.862459   185A      2.892657
     186A      2.911688   187A      2.935782   188A      2.967137
     189A      2.983719   190A      2.987989   191A      3.064021
     192A      3.078748   193A      3.166925   194A      3.236470
     195A      3.476205   196A      3.806846

    Final Occupation by Irrep:
              A
    DOCC [    35 ]

  @RHF Final Energy:  -382.13976624434156

   => Energetics <=

    Nuclear Repulsion Energy =            427.6089934681699560
    One-Electron Energy =               -1364.3611381163700571
    Two-Electron Energy =                 554.6123784038585427
    Total Energy =                       -382.1397662443415584

Computation Completed

Properties will be evaluated at   0.000000,   0.000000,   0.000000 [a0]

Properties computed using the SCF density matrix

  Nuclear Dipole Moment: [e a0]
     X:    -6.7771      Y:    -3.8317      Z:     9.6380

  Electronic Dipole Moment: [e a0]
     X:     5.8390      Y:     3.4849      Z:   -10.4485

  Dipole Moment: [e a0]
     X:    -0.9382      Y:    -0.3467      Z:    -0.8104     Total:     1.2873

  Dipole Moment: [D]
     X:    -2.3846      Y:    -0.8813      Z:    -2.0599     Total:     3.2720

*** tstop() called on ds3 at Mon Apr 27 01:25:06 2020
Module time:
	user time   =      54.77 seconds =       0.91 minutes
	system time =      27.52 seconds =       0.46 minutes
	total time  =         81 seconds =       1.35 minutes
Total time:
	user time   =      54.77 seconds =       0.91 minutes
	system time =      27.52 seconds =       0.46 minutes
	total time  =         81 seconds =       1.35 minutes
                                     G D M A

                                 by Anthony Stone

                           version 2.2.06, 22 June 2011

               Distributed Multipoles from Gaussian wavefunctions

Starting at 1:25:6 on 27 Apr 2020

Using SCF density matrix from file ./SSI/SSI-196HIE-221MET-1-dimer.test.12514.fchk

                         Distributed Multipole Analysis

Standard DMA

Positions and radii in angstrom
Multipole moments in atomic units, ea_0^k for rank k

C          x =  1.758243  y =  2.869588  z = -0.982031 angstrom
           Maximum rank =  0   Radius =  0.650 angstrom
                   Q00  =  -0.201440

C          x =  0.760243  y = -0.615412  z = -0.868031 angstrom
           Maximum rank =  0   Radius =  0.650 angstrom
                   Q00  =   0.473325

C          x =  1.096243  y =  1.539588  z = -1.163031 angstrom
           Maximum rank =  0   Radius =  0.650 angstrom
                   Q00  =   0.229432

C          x =  0.053243  y =  1.165588  z = -1.951031 angstrom
           Maximum rank =  0   Radius =  0.650 angstrom
                   Q00  =  -0.000710

N          x =  1.514243  y =  0.405588  z = -0.497031 angstrom
           Maximum rank =  0   Radius =  0.650 angstrom
                   Q00  =  -0.779785

N          x = -0.138757  y = -0.184412  z = -1.747031 angstrom
           Maximum rank =  0   Radius =  0.650 angstrom
                   Q00  =  -0.484533

H          x =  0.884243  y = -1.639412  z = -0.534031 angstrom
           Maximum rank =  0   Radius =  0.325 angstrom
                   Q00  =   0.124231

H          x = -0.821757  y = -0.770412  z = -2.213031 angstrom
           Maximum rank =  0   Radius =  0.325 angstrom
                   Q00  =   0.218939

H          x = -0.515757  y =  1.806588  z = -2.602031 angstrom
           Maximum rank =  0   Radius =  0.325 angstrom
                   Q00  =   0.099338

H          x =  2.563243  y =  2.957588  z = -1.701031 angstrom
           Maximum rank =  0   Radius =  0.325 angstrom
                   Q00  =   0.106838

H          x =  2.217243  y =  2.842588  z =  0.002969 angstrom
           Maximum rank =  0   Radius =  0.325 angstrom
                   Q00  =   0.119618

H          x =  1.086623  y =  3.738238  z = -1.048186 angstrom
           Maximum rank =  0   Radius =  0.325 angstrom
                   Q00  =   0.095826

C          x = -1.366757  y = -1.470412  z =  1.743969 angstrom
           Maximum rank =  0   Radius =  0.650 angstrom
                   Q00  =  -0.068926

C          x = -1.746757  y = -2.917412  z =  2.074969 angstrom
           Maximum rank =  0   Radius =  0.650 angstrom
                   Q00  =  -0.239911

C          x = -1.552757  y = -0.486412  z =  2.900969 angstrom
           Maximum rank =  0   Radius =  0.650 angstrom
                   Q00  =  -0.253688

H          x = -0.320757  y = -1.441412  z =  1.441969 angstrom
           Maximum rank =  0   Radius =  0.325 angstrom
                   Q00  =   0.051338

H          x = -1.976757  y = -1.125412  z =  0.907969 angstrom
           Maximum rank =  0   Radius =  0.325 angstrom
                   Q00  =   0.035811

H          x = -2.746757  y = -2.916412  z =  2.507969 angstrom
           Maximum rank =  0   Radius =  0.325 angstrom
                   Q00  =   0.075267

H          x = -0.884757  y = -0.736412  z =  3.721969 angstrom
           Maximum rank =  0   Radius =  0.325 angstrom
                   Q00  =   0.078221

H          x = -1.273757  y =  0.500588  z =  2.535969 angstrom
           Maximum rank =  0   Radius =  0.325 angstrom
                   Q00  =   0.090121

H          x = -1.041218  y = -3.343912  z =  2.803194 angstrom
           Maximum rank =  0   Radius =  0.325 angstrom
                   Q00  =   0.080382

H          x = -1.813127  y = -3.531290  z =  1.164612 angstrom
           Maximum rank =  0   Radius =  0.325 angstrom
                   Q00  =   0.075619

H          x = -2.581617  y = -0.427464  z =  3.285651 angstrom
           Maximum rank =  0   Radius =  0.325 angstrom
                   Q00  =   0.074687

Total multipoles referred to origin at
           x =   0.000000,  y =    0.000000,  z =    0.000000 angstrom
                   Q00  =  -0.000000

Finished at 1:25:6 on 27 Apr 2020

  DMA results are available in the Python driver through the
	  variable('DMA DISTRIBUTED MULTIPOLES')
  and
	  variable('DMA TOTAL MULTIPOLES')
  commands.

    Psi4 stopped on: Monday, 27 April 2020 01:25AM
    Psi4 wall time for execution: 0:01:20.27

*** Psi4 exiting successfully. Buy a developer a beer!
