                               Psi4 1.3.2 release

  ==> Input File <==

--------------------------------------------------------------------------
import numpy as np
set {scf_type pk
basis cc-pvdz
d_convergence 10
gdma_switch   0
gdma_limit    0
gdma_origin   [ 0.0,  0.0,  0.0 ]
}
molecule test {
    units Angstrom
    0 1
    --
    0 1
    C                0.168531191481722     1.649563953621097     3.124750127166235
    C                0.886531191481722     0.537563953621097     3.889750127166235
    C                1.283531191481722     2.298563953621097     2.290750127166235
    H               -0.238468808518278     2.367563953621097     3.839750127166234
    H               -0.631468808518278     1.252563953621097     2.502750127166235
    H                0.339531191481722     0.246563953621097     4.786750127166235
    H                1.032531191481722    -0.322436046378903     3.236750127166235
    H                1.397531191481722     1.752563953621097     1.352750127166235
    H                1.857426191481722     0.991994953621097     4.136440127166235
    H                2.180433191481722     2.150451953621097     2.910130127166235
    H                1.049069191481722     3.351123953621097     2.073600127166235
    C               -1.008468808518278     2.095563953621097    -2.138249872833765
    C               -0.846468808518278     0.332563953621097    -0.350249872833765
    C               -0.644468808518278     0.718563953621097    -1.666249872833765
    C               -0.525468808518278    -0.970436046378903     0.042750127166235
    C               -0.126468808518278    -0.208436046378903    -2.566249872833765
    C                0.001531191481722    -1.884436046378903    -0.880249872833765
    C                0.206531191481722    -1.489436046378903    -2.181249872833765
    O                0.299531191481722    -3.156436046378904    -0.516249872833765
    H               -1.275468808518278     1.029563953621097     0.356750127166235
    H               -0.698468808518278    -1.278436046378903     1.063750127166235
    H               -0.339468808518278     2.372563953621097    -2.947249872833765
    H               -0.890468808518278     2.812563953621097    -1.324249872833765
    H                0.024531191481722     0.082563953621097    -3.598249872833765
    H                0.608531191481722    -2.191436046378903    -2.896249872833765
    H                0.066531191481722    -3.327436046378903     0.401750127166235
    H               -2.036162808518278     2.135851953621097    -2.528409872833765

}
e, wfn = energy('scf', return_wfn=True)
gdma(wfn)
dmavals = variable('DMA DISTRIBUTED MULTIPOLES')
charges = np.array(dmavals)
print(charges)
np.save('SSI-057PRO-063TYR-1-dimer.npy', np.array(charges))--------------------------------------------------------------------------

*** tstart() called on ds3
*** at Tue Apr 28 04:04:11 2020

   => Loading Basis Set <=

    Name: CC-PVDZ
    Role: ORBITAL
    Keyword: BASIS
    atoms 1-3, 12-18  entry C          line   138 file /theoryfs2/ds/metcalf/miniconda2/envs/tf2gpu/share/psi4/basis/cc-pvdz.gbs
    atoms 4-11, 20-27 entry H          line    22 file /theoryfs2/ds/metcalf/miniconda2/envs/tf2gpu/share/psi4/basis/cc-pvdz.gbs
    atoms 19          entry O          line   198 file /theoryfs2/ds/metcalf/miniconda2/envs/tf2gpu/share/psi4/basis/cc-pvdz.gbs

         ---------------------------------------------------------
                                   SCF
               by Justin Turney, Rob Parrish, Andy Simmonett
                          and Daniel G. A. Smith
                              RHF Reference
                        1 Threads,    500 MiB Core
         ---------------------------------------------------------

  ==> Geometry <==

    Molecular point group: c1
    Full point group: C1

    Geometry (in Angstrom), charge = 0, multiplicity = 1:

       Center              X                  Y                   Z               Mass
    ------------   -----------------  -----------------  -----------------  -----------------
         C            0.168531191482     1.649563953621     3.124750127166    12.000000000000
         C            0.886531191482     0.537563953621     3.889750127166    12.000000000000
         C            1.283531191482     2.298563953621     2.290750127166    12.000000000000
         H           -0.238468808518     2.367563953621     3.839750127166     1.007825032230
         H           -0.631468808518     1.252563953621     2.502750127166     1.007825032230
         H            0.339531191482     0.246563953621     4.786750127166     1.007825032230
         H            1.032531191482    -0.322436046379     3.236750127166     1.007825032230
         H            1.397531191482     1.752563953621     1.352750127166     1.007825032230
         H            1.857426191482     0.991994953621     4.136440127166     1.007825032230
         H            2.180433191482     2.150451953621     2.910130127166     1.007825032230
         H            1.049069191482     3.351123953621     2.073600127166     1.007825032230
         C           -1.008468808518     2.095563953621    -2.138249872834    12.000000000000
         C           -0.846468808518     0.332563953621    -0.350249872834    12.000000000000
         C           -0.644468808518     0.718563953621    -1.666249872834    12.000000000000
         C           -0.525468808518    -0.970436046379     0.042750127166    12.000000000000
         C           -0.126468808518    -0.208436046379    -2.566249872834    12.000000000000
         C            0.001531191482    -1.884436046379    -0.880249872834    12.000000000000
         C            0.206531191482    -1.489436046379    -2.181249872834    12.000000000000
         O            0.299531191482    -3.156436046379    -0.516249872834    15.994914619570
         H           -1.275468808518     1.029563953621     0.356750127166     1.007825032230
         H           -0.698468808518    -1.278436046379     1.063750127166     1.007825032230
         H           -0.339468808518     2.372563953621    -2.947249872834     1.007825032230
         H           -0.890468808518     2.812563953621    -1.324249872834     1.007825032230
         H            0.024531191482     0.082563953621    -3.598249872834     1.007825032230
         H            0.608531191482    -2.191436046379    -2.896249872834     1.007825032230
         H            0.066531191482    -3.327436046379     0.401750127166     1.007825032230
         H           -2.036162808518     2.135851953621    -2.528409872834     1.007825032230

  Running in c1 symmetry.

  Rotational constants: A =      0.03980  B =      0.01883  C =      0.01372 [cm^-1]
  Rotational constants: A =   1193.31810  B =    564.36233  C =    411.41078 [MHz]
  Nuclear repulsion =  579.661042666278718

  Charge       = 0
  Multiplicity = 1
  Electrons    = 84
  Nalpha       = 42
  Nbeta        = 42

  ==> Algorithm <==

  SCF Algorithm Type is PK.
  DIIS enabled.
  MOM disabled.
  Fractional occupation disabled.
  Guess Type is SAD.
  Energy threshold   = 1.00e-06
  Density threshold  = 1.00e-10
  Integral threshold = 0.00e+00

  ==> Primary Basis <==

  Basis Set: CC-PVDZ
    Blend: CC-PVDZ
    Number of shells: 114
    Number of basis function: 234
    Number of Cartesian functions: 245
    Spherical Harmonics?: true
    Max angular momentum: 2

  ==> Pre-Iterations <==

   -------------------------------------------------------
    Irrep   Nso     Nmo     Nalpha   Nbeta   Ndocc  Nsocc
   -------------------------------------------------------
     A        234     234       0       0       0       0
   -------------------------------------------------------
    Total     234     234      42      42      42       0
   -------------------------------------------------------

  ==> Integral Setup <==

  Using integral reordering PK algorithm.
  Sizing the integral batches needed.
  Building batch lookup table.
   Calculation information:
      Number of atoms:                  27
      Number of AO shells:             114
      Number of primitives:            322
      Number of atomic orbitals:       245
      Number of basis functions:       234

      Integral cutoff                 1.00e-12
      Number of threads:                 1

	Batch   1 pq = [       0,    9405] index = [             0,44231715] size =     44231715
	Batch   2 pq = [    9405,   13301] index = [      44231715,88464951] size =     44233236
	Batch   3 pq = [   13301,   16290] index = [      88464951,132690195] size =     44225244
	Batch   4 pq = [   16290,   18810] index = [     132690195,176917455] size =     44227260
	Batch   5 pq = [   18810,   21030] index = [     176917455,221140965] size =     44223510
	Batch   6 pq = [   21030,   23037] index = [     221140965,265363203] size =     44222238
	Batch   7 pq = [   23037,   24883] index = [     265363203,309594286] size =     44231083
	Batch   8 pq = [   24883,   26601] index = [     309594286,353819901] size =     44225615
	Batch   9 pq = [   26601,   27495] index = [     353819901,378001260] size =     24181359
  Task number: 35
  Buffer size: 11059200
  Buffer per thread: 2
  We computed 19732895 shell quartets total.
  Whereas there are 21487290 unique shell quartets.

  ==> DiskJK: Disk-Based J/K Matrices <==

    J tasked:                  Yes
    K tasked:                  Yes
    wK tasked:                  No
    Memory [MiB]:              375
    Schwarz Cutoff:          1E-12

    OpenMP threads:              1

  Minimum eigenvalue in the overlap matrix is 3.1272699969E-04.
  Using Symmetric Orthogonalization.

  SCF Guess: Superposition of Atomic Densities via on-the-fly atomic UHF.

  ==> Iterations <==

                        Total Energy        Delta E     RMS |[F,P]|

   @RHF iter SAD:  -461.85970329295861   -4.61860e+02   0.00000e+00
   @RHF iter   1:  -462.58803549948732   -7.28332e-01   2.84632e-03 DIIS
   @RHF iter   2:  -462.83307118979633   -2.45036e-01   1.22114e-03 DIIS
   @RHF iter   3:  -462.87430487033794   -4.12337e-02   2.70467e-04 DIIS
   @RHF iter   4:  -462.87757272531030   -3.26785e-03   1.04283e-04 DIIS
   @RHF iter   5:  -462.87792049910985   -3.47774e-04   2.05290e-05 DIIS
   @RHF iter   6:  -462.87794033428401   -1.98352e-05   6.35330e-06 DIIS
   @RHF iter   7:  -462.87794239151361   -2.05723e-06   1.89593e-06 DIIS
   @RHF iter   8:  -462.87794265416073   -2.62647e-07   7.27143e-07 DIIS
   @RHF iter   9:  -462.87794270008965   -4.59289e-08   3.35864e-07 DIIS
   @RHF iter  10:  -462.87794271017594   -1.00863e-08   1.41591e-07 DIIS
   @RHF iter  11:  -462.87794271355108   -3.37513e-09   5.96196e-08 DIIS
   @RHF iter  12:  -462.87794271411212   -5.61045e-10   2.59576e-08 DIIS
   @RHF iter  13:  -462.87794271418221   -7.00879e-11   8.28843e-09 DIIS
   @RHF iter  14:  -462.87794271418227   -5.68434e-14   2.03247e-09 DIIS
   @RHF iter  15:  -462.87794271418556   -3.29692e-12   7.62726e-10 DIIS
   @RHF iter  16:  -462.87794271418477    7.95808e-13   2.94895e-10 DIIS
   @RHF iter  17:  -462.87794271418409    6.82121e-13   1.40703e-10 DIIS
   @RHF iter  18:  -462.87794271418011    3.97904e-12   7.05953e-11 DIIS
  Energy and wave function converged.

  ==> Post-Iterations <==

    Orbital Energies [Eh]
    ---------------------

    Doubly Occupied:

       1A    -20.584617     2A    -11.298523     3A    -11.239101
       4A    -11.235274     5A    -11.234879     6A    -11.231008
       7A    -11.226744     8A    -11.226568     9A    -11.219700
      10A    -11.216636    11A    -11.214824    12A     -1.403832
      13A     -1.154152    14A     -1.062882    15A     -1.040556
      16A     -1.018888    17A     -0.927420    18A     -0.913884
      19A     -0.846797    20A     -0.803712    21A     -0.800356
      22A     -0.734173    23A     -0.669819    24A     -0.641879
      25A     -0.637452    26A     -0.611422    27A     -0.608675
      28A     -0.589213    29A     -0.586638    30A     -0.571477
      31A     -0.568357    32A     -0.541645    33A     -0.528867
      34A     -0.513281    35A     -0.498351    36A     -0.487748
      37A     -0.480999    38A     -0.471695    39A     -0.467792
      40A     -0.460324    41A     -0.339890    42A     -0.301900

    Virtual:

      43A      0.129332    44A      0.153297    45A      0.167970
      46A      0.180866    47A      0.201105    48A      0.207735
      49A      0.219338    50A      0.226921    51A      0.234478
      52A      0.252732    53A      0.262629    54A      0.266365
      55A      0.283550    56A      0.286107    57A      0.298748
      58A      0.312468    59A      0.325320    60A      0.340726
      61A      0.363703    62A      0.378660    63A      0.404136
      64A      0.424731    65A      0.436530    66A      0.458730
      67A      0.491306    68A      0.505122    69A      0.506176
      70A      0.572840    71A      0.598488    72A      0.608036
      73A      0.625369    74A      0.632118    75A      0.639053
      76A      0.661369    77A      0.666544    78A      0.669451
      79A      0.681399    80A      0.697058    81A      0.706743
      82A      0.730710    83A      0.740793    84A      0.753385
      85A      0.773585    86A      0.774798    87A      0.788344
      88A      0.798467    89A      0.807581    90A      0.816264
      91A      0.837227    92A      0.840968    93A      0.851519
      94A      0.858790    95A      0.867011    96A      0.876979
      97A      0.879573    98A      0.890672    99A      0.895252
     100A      0.900971   101A      0.902506   102A      0.915872
     103A      0.919942   104A      0.924655   105A      0.940498
     106A      0.945048   107A      0.948515   108A      0.956915
     109A      0.973456   110A      0.978774   111A      1.012213
     112A      1.020273   113A      1.037377   114A      1.056342
     115A      1.085775   116A      1.116310   117A      1.142069
     118A      1.146154   119A      1.146851   120A      1.191332
     121A      1.205905   122A      1.228255   123A      1.248567
     124A      1.251388   125A      1.268195   126A      1.285171
     127A      1.304128   128A      1.313996   129A      1.330977
     130A      1.360498   131A      1.366984   132A      1.381411
     133A      1.393826   134A      1.453278   135A      1.478660
     136A      1.493507   137A      1.512150   138A      1.538207
     139A      1.565680   140A      1.603622   141A      1.612263
     142A      1.618489   143A      1.625049   144A      1.629882
     145A      1.679705   146A      1.706011   147A      1.725194
     148A      1.731899   149A      1.739540   150A      1.751518
     151A      1.787413   152A      1.789741   153A      1.808788
     154A      1.811242   155A      1.863213   156A      1.873068
     157A      1.878109   158A      1.886686   159A      1.901369
     160A      1.907911   161A      1.917676   162A      1.920693
     163A      1.924651   164A      1.930183   165A      1.932605
     166A      1.946088   167A      1.956390   168A      1.972848
     169A      1.976708   170A      1.981086   171A      1.993712
     172A      2.000287   173A      2.017271   174A      2.022035
     175A      2.044856   176A      2.052452   177A      2.066953
     178A      2.073615   179A      2.082058   180A      2.100948
     181A      2.131437   182A      2.144021   183A      2.156640
     184A      2.167696   185A      2.193840   186A      2.216142
     187A      2.220857   188A      2.231033   189A      2.273286
     190A      2.285341   191A      2.293081   192A      2.306019
     193A      2.326996   194A      2.347045   195A      2.368432
     196A      2.423388   197A      2.435387   198A      2.460586
     199A      2.462451   200A      2.480021   201A      2.486150
     202A      2.499179   203A      2.538134   204A      2.550353
     205A      2.554199   206A      2.609799   207A      2.632160
     208A      2.641699   209A      2.683629   210A      2.753203
     211A      2.764485   212A      2.776031   213A      2.782676
     214A      2.796486   215A      2.805261   216A      2.818630
     217A      2.843248   218A      2.852871   219A      2.861901
     220A      2.906625   221A      2.922477   222A      2.943802
     223A      2.970835   224A      3.009384   225A      3.047265
     226A      3.099412   227A      3.126737   228A      3.253874
     229A      3.294256   230A      3.350314   231A      3.581452
     232A      3.692332   233A      3.966225   234A      4.204472

    Final Occupation by Irrep:
              A
    DOCC [    42 ]

  @RHF Final Energy:  -462.87794271418011

   => Energetics <=

    Nuclear Repulsion Energy =            579.6610426662787177
    One-Electron Energy =               -1776.6540729085756993
    Two-Electron Energy =                 734.1150875281168737
    Total Energy =                       -462.8779427141801079

Computation Completed

Properties will be evaluated at   0.000000,   0.000000,   0.000000 [a0]

Properties computed using the SCF density matrix

  Nuclear Dipole Moment: [e a0]
     X:     2.2946      Y:    12.5715      Z:    12.5285

  Electronic Dipole Moment: [e a0]
     X:    -2.5606      Y:   -12.3363      Z:   -12.1623

  Dipole Moment: [e a0]
     X:    -0.2660      Y:     0.2352      Z:     0.3662     Total:     0.5101

  Dipole Moment: [D]
     X:    -0.6762      Y:     0.5979      Z:     0.9308     Total:     1.2965

*** tstop() called on ds3 at Tue Apr 28 04:11:24 2020
Module time:
	user time   =     142.51 seconds =       2.38 minutes
	system time =      68.46 seconds =       1.14 minutes
	total time  =        433 seconds =       7.22 minutes
Total time:
	user time   =     142.51 seconds =       2.38 minutes
	system time =      68.46 seconds =       1.14 minutes
	total time  =        433 seconds =       7.22 minutes
                                     G D M A

                                 by Anthony Stone

                           version 2.2.06, 22 June 2011

               Distributed Multipoles from Gaussian wavefunctions

Starting at 4:11:25 on 28 Apr 2020

Using SCF density matrix from file ./SSI/SSI-057PRO-063TYR-1-dimer.test.27228.fchk

                         Distributed Multipole Analysis

Standard DMA

Positions and radii in angstrom
Multipole moments in atomic units, ea_0^k for rank k

C          x =  0.168531  y =  1.649564  z =  3.124750 angstrom
           Maximum rank =  0   Radius =  0.650 angstrom
                   Q00  =  -0.109076

C          x =  0.886531  y =  0.537564  z =  3.889750 angstrom
           Maximum rank =  0   Radius =  0.650 angstrom
                   Q00  =  -0.218992

C          x =  1.283531  y =  2.298564  z =  2.290750 angstrom
           Maximum rank =  0   Radius =  0.650 angstrom
                   Q00  =  -0.197146

H          x = -0.238469  y =  2.367564  z =  3.839750 angstrom
           Maximum rank =  0   Radius =  0.325 angstrom
                   Q00  =   0.051766

H          x = -0.631469  y =  1.252564  z =  2.502750 angstrom
           Maximum rank =  0   Radius =  0.325 angstrom
                   Q00  =   0.051056

H          x =  0.339531  y =  0.246564  z =  4.786750 angstrom
           Maximum rank =  0   Radius =  0.325 angstrom
                   Q00  =   0.080978

H          x =  1.032531  y = -0.322436  z =  3.236750 angstrom
           Maximum rank =  0   Radius =  0.325 angstrom
                   Q00  =   0.075528

H          x =  1.397531  y =  1.752564  z =  1.352750 angstrom
           Maximum rank =  0   Radius =  0.325 angstrom
                   Q00  =   0.090077

H          x =  1.857426  y =  0.991995  z =  4.136440 angstrom
           Maximum rank =  0   Radius =  0.325 angstrom
                   Q00  =   0.055792

H          x =  2.180433  y =  2.150452  z =  2.910130 angstrom
           Maximum rank =  0   Radius =  0.325 angstrom
                   Q00  =   0.051882

H          x =  1.049069  y =  3.351124  z =  2.073600 angstrom
           Maximum rank =  0   Radius =  0.325 angstrom
                   Q00  =   0.068652

C          x = -1.008469  y =  2.095564  z = -2.138250 angstrom
           Maximum rank =  0   Radius =  0.650 angstrom
                   Q00  =  -0.196437

C          x = -0.846469  y =  0.332564  z = -0.350250 angstrom
           Maximum rank =  0   Radius =  0.650 angstrom
                   Q00  =  -0.063720

C          x = -0.644469  y =  0.718564  z = -1.666250 angstrom
           Maximum rank =  0   Radius =  0.650 angstrom
                   Q00  =  -0.131784

C          x = -0.525469  y = -0.970436  z =  0.042750 angstrom
           Maximum rank =  0   Radius =  0.650 angstrom
                   Q00  =  -0.196684

C          x = -0.126469  y = -0.208436  z = -2.566250 angstrom
           Maximum rank =  0   Radius =  0.650 angstrom
                   Q00  =   0.062206

C          x =  0.001531  y = -1.884436  z = -0.880250 angstrom
           Maximum rank =  0   Radius =  0.650 angstrom
                   Q00  =   0.330641

C          x =  0.206531  y = -1.489436  z = -2.181250 angstrom
           Maximum rank =  0   Radius =  0.650 angstrom
                   Q00  =  -0.111832

O          x =  0.299531  y = -3.156436  z = -0.516250 angstrom
           Maximum rank =  0   Radius =  0.650 angstrom
                   Q00  =  -0.673217

H          x = -1.275469  y =  1.029564  z =  0.356750 angstrom
           Maximum rank =  0   Radius =  0.325 angstrom
                   Q00  =   0.071223

H          x = -0.698469  y = -1.278436  z =  1.063750 angstrom
           Maximum rank =  0   Radius =  0.325 angstrom
                   Q00  =   0.073223

H          x = -0.339469  y =  2.372564  z = -2.947250 angstrom
           Maximum rank =  0   Radius =  0.325 angstrom
                   Q00  =   0.096457

H          x = -0.890469  y =  2.812564  z = -1.324250 angstrom
           Maximum rank =  0   Radius =  0.325 angstrom
                   Q00  =   0.097602

H          x =  0.024531  y =  0.082564  z = -3.598250 angstrom
           Maximum rank =  0   Radius =  0.325 angstrom
                   Q00  =   0.059183

H          x =  0.608531  y = -2.191436  z = -2.896250 angstrom
           Maximum rank =  0   Radius =  0.325 angstrom
                   Q00  =   0.078849

H          x =  0.066531  y = -3.327436  z =  0.401750 angstrom
           Maximum rank =  0   Radius =  0.325 angstrom
                   Q00  =   0.405621

H          x = -2.036163  y =  2.135852  z = -2.528410 angstrom
           Maximum rank =  0   Radius =  0.325 angstrom
                   Q00  =   0.098150

Total multipoles referred to origin at
           x =   0.000000,  y =    0.000000,  z =    0.000000 angstrom
                   Q00  =  -0.000000

Finished at 4:11:25 on 28 Apr 2020

  DMA results are available in the Python driver through the
	  variable('DMA DISTRIBUTED MULTIPOLES')
  and
	  variable('DMA TOTAL MULTIPOLES')
  commands.

    Psi4 stopped on: Tuesday, 28 April 2020 04:11AM
    Psi4 wall time for execution: 0:07:13.40

*** Psi4 exiting successfully. Buy a developer a beer!
