                               Psi4 1.3.2 release

  ==> Input File <==

--------------------------------------------------------------------------
import numpy as np
set {scf_type pk
basis cc-pvdz
d_convergence 10
gdma_switch   0
gdma_limit    0
gdma_origin   [ 0.0,  0.0,  0.0 ]
}
molecule test {
    units Angstrom
    0 1
    --
    0 1
    C               -0.845183494561835    -0.708856913433980    -3.158793953137470
    C               -0.964183494561835    -0.283856913433980    -0.546793953137470
    C               -1.467183494561835    -0.132856913433980    -1.883793953137470
    C               -1.876183494561835     0.366143086566020     0.329206046862530
    C               -2.629183494561835     0.578143086566020    -1.773793953137470
    C                0.354816505438165    -0.863856913433980     1.387206046862530
    C               -0.569183494561835    -0.200856913433980     2.224206046862530
    C                0.170816505438165    -0.904856913433980     0.003206046862530
    C               -1.694183494561835     0.422143086566020     1.701206046862530
    N               -2.878183494561835     0.879143086566020    -0.448793953137470
    H                1.222816505438165    -1.352856913433980     1.803206046862530
    H               -0.404183494561835    -0.174856913433980     3.292206046862530
    H                0.904816505438165    -1.411856913433980    -0.611793953137470
    H               -2.422183494561835     0.938143086566020     2.315206046862530
    H                0.235816505438165    -0.781856913433980    -2.994793953137470
    H               -1.024183494561835     0.008143086566020    -3.960793953137470
    H               -3.203183494561835     0.816143086566020    -2.664793953137470
    H               -3.674183494561836     1.400143086566020    -0.097793953137470
    H               -1.264383494561835    -1.674956913433980    -3.476563953137470
    C                3.699816505438165     0.528143086566020     1.351206046862530
    C                3.991816505438164    -0.946856913433980     0.996206046862530
    C                3.494816505438165     1.168143086566020    -0.026793953137470
    H                4.508816505438165     1.036143086566020     1.885206046862530
    H                2.785816505438164     0.587143086566020     1.935206046862530
    H                4.441816505438164    -1.482856913433980     1.832206046862530
    H                3.071816505438164    -1.454856913433980     0.695206046862530
    H                2.492816505438165     0.928143086566020    -0.379793953137470
    H                4.679466505438166    -0.812756913433980     0.148176046862530
    H                4.189956505438165     0.615943086566020    -0.676283953137470
    H                3.602556505438165     2.261943086566020     0.018156046862530

}
e, wfn = energy('scf', return_wfn=True)
gdma(wfn)
dmavals = variable('DMA DISTRIBUTED MULTIPOLES')
charges = np.array(dmavals)
print(charges)
np.save('SSI-237TRP-246PRO-1-dimer.npy', np.array(charges))--------------------------------------------------------------------------

*** tstart() called on ds3
*** at Tue Apr 28 09:02:13 2020

   => Loading Basis Set <=

    Name: CC-PVDZ
    Role: ORBITAL
    Keyword: BASIS
    atoms 1-9, 20-22   entry C          line   138 file /theoryfs2/ds/metcalf/miniconda2/envs/tf2gpu/share/psi4/basis/cc-pvdz.gbs
    atoms 10           entry N          line   168 file /theoryfs2/ds/metcalf/miniconda2/envs/tf2gpu/share/psi4/basis/cc-pvdz.gbs
    atoms 11-19, 23-30 entry H          line    22 file /theoryfs2/ds/metcalf/miniconda2/envs/tf2gpu/share/psi4/basis/cc-pvdz.gbs

         ---------------------------------------------------------
                                   SCF
               by Justin Turney, Rob Parrish, Andy Simmonett
                          and Daniel G. A. Smith
                              RHF Reference
                        1 Threads,    500 MiB Core
         ---------------------------------------------------------

  ==> Geometry <==

    Molecular point group: c1
    Full point group: C1

    Geometry (in Angstrom), charge = 0, multiplicity = 1:

       Center              X                  Y                   Z               Mass
    ------------   -----------------  -----------------  -----------------  -----------------
         C           -0.845183494562    -0.708856913434    -3.158793953137    12.000000000000
         C           -0.964183494562    -0.283856913434    -0.546793953137    12.000000000000
         C           -1.467183494562    -0.132856913434    -1.883793953137    12.000000000000
         C           -1.876183494562     0.366143086566     0.329206046863    12.000000000000
         C           -2.629183494562     0.578143086566    -1.773793953137    12.000000000000
         C            0.354816505438    -0.863856913434     1.387206046863    12.000000000000
         C           -0.569183494562    -0.200856913434     2.224206046863    12.000000000000
         C            0.170816505438    -0.904856913434     0.003206046863    12.000000000000
         C           -1.694183494562     0.422143086566     1.701206046863    12.000000000000
         N           -2.878183494562     0.879143086566    -0.448793953137    14.003074004430
         H            1.222816505438    -1.352856913434     1.803206046863     1.007825032230
         H           -0.404183494562    -0.174856913434     3.292206046863     1.007825032230
         H            0.904816505438    -1.411856913434    -0.611793953137     1.007825032230
         H           -2.422183494562     0.938143086566     2.315206046863     1.007825032230
         H            0.235816505438    -0.781856913434    -2.994793953137     1.007825032230
         H           -1.024183494562     0.008143086566    -3.960793953137     1.007825032230
         H           -3.203183494562     0.816143086566    -2.664793953137     1.007825032230
         H           -3.674183494562     1.400143086566    -0.097793953137     1.007825032230
         H           -1.264383494562    -1.674956913434    -3.476563953137     1.007825032230
         C            3.699816505438     0.528143086566     1.351206046863    12.000000000000
         C            3.991816505438    -0.946856913434     0.996206046863    12.000000000000
         C            3.494816505438     1.168143086566    -0.026793953137    12.000000000000
         H            4.508816505438     1.036143086566     1.885206046863     1.007825032230
         H            2.785816505438     0.587143086566     1.935206046863     1.007825032230
         H            4.441816505438    -1.482856913434     1.832206046863     1.007825032230
         H            3.071816505438    -1.454856913434     0.695206046863     1.007825032230
         H            2.492816505438     0.928143086566    -0.379793953137     1.007825032230
         H            4.679466505438    -0.812756913434     0.148176046863     1.007825032230
         H            4.189956505438     0.615943086566    -0.676283953137     1.007825032230
         H            3.602556505438     2.261943086566     0.018156046863     1.007825032230

  Running in c1 symmetry.

  Rotational constants: A =      0.03777  B =      0.01447  C =      0.01188 [cm^-1]
  Rotational constants: A =   1132.24462  B =    433.81830  C =    356.25184 [MHz]
  Nuclear repulsion =  749.668148192290573

  Charge       = 0
  Multiplicity = 1
  Electrons    = 96
  Nalpha       = 48
  Nbeta        = 48

  ==> Algorithm <==

  SCF Algorithm Type is PK.
  DIIS enabled.
  MOM disabled.
  Fractional occupation disabled.
  Guess Type is SAD.
  Energy threshold   = 1.00e-06
  Density threshold  = 1.00e-10
  Integral threshold = 0.00e+00

  ==> Primary Basis <==

  Basis Set: CC-PVDZ
    Blend: CC-PVDZ
    Number of shells: 129
    Number of basis function: 267
    Number of Cartesian functions: 280
    Spherical Harmonics?: true
    Max angular momentum: 2

  ==> Pre-Iterations <==

   -------------------------------------------------------
    Irrep   Nso     Nmo     Nalpha   Nbeta   Ndocc  Nsocc
   -------------------------------------------------------
     A        267     267       0       0       0       0
   -------------------------------------------------------
    Total     267     267      48      48      48       0
   -------------------------------------------------------

  ==> Integral Setup <==

  Using integral reordering PK algorithm.
  Sizing the integral batches needed.
  Building batch lookup table.
   Calculation information:
      Number of atoms:                  30
      Number of AO shells:             129
      Number of primitives:            371
      Number of atomic orbitals:       280
      Number of basis functions:       267

      Integral cutoff                 1.00e-12
      Number of threads:                 1

	Batch   1 pq = [       0,    9405] index = [             0,44231715] size =     44231715
	Batch   2 pq = [    9405,   13301] index = [      44231715,88464951] size =     44233236
	Batch   3 pq = [   13301,   16290] index = [      88464951,132690195] size =     44225244
	Batch   4 pq = [   16290,   18810] index = [     132690195,176917455] size =     44227260
	Batch   5 pq = [   18810,   21030] index = [     176917455,221140965] size =     44223510
	Batch   6 pq = [   21030,   23037] index = [     221140965,265363203] size =     44222238
	Batch   7 pq = [   23037,   24883] index = [     265363203,309594286] size =     44231083
	Batch   8 pq = [   24883,   26601] index = [     309594286,353819901] size =     44225615
	Batch   9 pq = [   26601,   28214] index = [     353819901,398029005] size =     44209104
	Batch  10 pq = [   28214,   29740] index = [     398029005,442248670] size =     44219665
	Batch  11 pq = [   29740,   31191] index = [     442248670,486454836] size =     44206166
	Batch  12 pq = [   31191,   32578] index = [     486454836,530679331] size =     44224495
	Batch  13 pq = [   32578,   33908] index = [     530679331,574893186] size =     44213855
	Batch  14 pq = [   33908,   35188] index = [     574893186,619115266] size =     44222080
	Batch  15 pq = [   35188,   35778] index = [     619115266,640050531] size =     20935265
  Task number: 58
  Buffer size: 11059200
  Buffer per thread: 2
  We computed 35029019 shell quartets total.
  Whereas there are 35158305 unique shell quartets.

  ==> DiskJK: Disk-Based J/K Matrices <==

    J tasked:                  Yes
    K tasked:                  Yes
    wK tasked:                  No
    Memory [MiB]:              375
    Schwarz Cutoff:          1E-12

    OpenMP threads:              1

  Minimum eigenvalue in the overlap matrix is 2.4856079636E-04.
  Using Symmetric Orthogonalization.

  SCF Guess: Superposition of Atomic Densities via on-the-fly atomic UHF.

  ==> Iterations <==

                        Total Energy        Delta E     RMS |[F,P]|

   @RHF iter SAD:  -518.04534915970976   -5.18045e+02   0.00000e+00
   @RHF iter   1:  -518.47459767111798   -4.29249e-01   2.47897e-03 DIIS
   @RHF iter   2:  -518.72921665980846   -2.54619e-01   1.10653e-03 DIIS
   @RHF iter   3:  -518.77546940253592   -4.62527e-02   2.88291e-04 DIIS
   @RHF iter   4:  -518.77966130317952   -4.19190e-03   1.29694e-04 DIIS
   @RHF iter   5:  -518.78033436865496   -6.73065e-04   1.96611e-05 DIIS
   @RHF iter   6:  -518.78036572305029   -3.13544e-05   8.74101e-06 DIIS
   @RHF iter   7:  -518.78037213250036   -6.40945e-06   3.47379e-06 DIIS
   @RHF iter   8:  -518.78037376909651   -1.63660e-06   1.45241e-06 DIIS
   @RHF iter   9:  -518.78037412129788   -3.52201e-07   6.29674e-07 DIIS
   @RHF iter  10:  -518.78037419390694   -7.26091e-08   2.78807e-07 DIIS
   @RHF iter  11:  -518.78037421102715   -1.71202e-08   1.10403e-07 DIIS
   @RHF iter  12:  -518.78037421361375   -2.58660e-09   4.17375e-08 DIIS
   @RHF iter  13:  -518.78037421383294   -2.19188e-10   1.15704e-08 DIIS
   @RHF iter  14:  -518.78037421385932   -2.63753e-11   4.46493e-09 DIIS
   @RHF iter  15:  -518.78037421386080   -1.47793e-12   2.33355e-09 DIIS
   @RHF iter  16:  -518.78037421385818    2.61480e-12   1.04075e-09 DIIS
   @RHF iter  17:  -518.78037421385989   -1.70530e-12   4.88762e-10 DIIS
   @RHF iter  18:  -518.78037421386102   -1.13687e-12   1.78122e-10 DIIS
   @RHF iter  19:  -518.78037421385670    4.32010e-12   6.66504e-11 DIIS
  Energy and wave function converged.

  ==> Post-Iterations <==

    Orbital Energies [Eh]
    ---------------------

    Doubly Occupied:

       1A    -15.604716     2A    -11.266309     3A    -11.264588
       4A    -11.233447     5A    -11.233167     6A    -11.231843
       7A    -11.231655     8A    -11.223739     9A    -11.223029
      10A    -11.220574    11A    -11.211929    12A    -11.210101
      13A    -11.204977    14A     -1.295075    15A     -1.127078
      16A     -1.071410    17A     -1.052938    18A     -0.997694
      19A     -0.984992    20A     -0.931708    21A     -0.904362
      22A     -0.838046    23A     -0.806262    24A     -0.792490
      25A     -0.753346    26A     -0.721033    27A     -0.665963
      28A     -0.642431    29A     -0.626346    30A     -0.604010
      31A     -0.602813    32A     -0.592649    33A     -0.590030
      34A     -0.566160    35A     -0.552841    36A     -0.535060
      37A     -0.532127    38A     -0.526805    39A     -0.504655
      40A     -0.494069    41A     -0.474384    42A     -0.471177
      43A     -0.464509    44A     -0.459641    45A     -0.449314
      46A     -0.375052    47A     -0.295535    48A     -0.275660

    Virtual:

      49A      0.121771    50A      0.166330    51A      0.180350
      52A      0.181330    53A      0.196377    54A      0.210680
      55A      0.216564    56A      0.221753    57A      0.228577
      58A      0.242505    59A      0.243972    60A      0.255963
      61A      0.273303    62A      0.277050    63A      0.281177
      64A      0.292763    65A      0.306897    66A      0.326367
      67A      0.333637    68A      0.353870    69A      0.367232
      70A      0.373697    71A      0.394224    72A      0.400406
      73A      0.423231    74A      0.425857    75A      0.459961
      76A      0.467924    77A      0.478123    78A      0.507981
      79A      0.525485    80A      0.577082    81A      0.598540
      82A      0.617466    83A      0.620826    84A      0.626814
      85A      0.635179    86A      0.642617    87A      0.649936
      88A      0.659113    89A      0.683862    90A      0.690758
      91A      0.703206    92A      0.716704    93A      0.729060
      94A      0.729685    95A      0.741766    96A      0.746544
      97A      0.758251    98A      0.760687    99A      0.773422
     100A      0.782725   101A      0.792624   102A      0.797064
     103A      0.813611   104A      0.832780   105A      0.847492
     106A      0.856083   107A      0.863327   108A      0.867230
     109A      0.876390   110A      0.878619   111A      0.886572
     112A      0.894357   113A      0.895299   114A      0.908626
     115A      0.914688   116A      0.927803   117A      0.933510
     118A      0.939374   119A      0.942651   120A      0.949372
     121A      0.954496   122A      0.976498   123A      0.983931
     124A      0.990564   125A      1.004678   126A      1.007808
     127A      1.019225   128A      1.035105   129A      1.060544
     130A      1.073524   131A      1.089264   132A      1.107201
     133A      1.128132   134A      1.141494   135A      1.143618
     136A      1.147565   137A      1.163809   138A      1.187047
     139A      1.211241   140A      1.223579   141A      1.235341
     142A      1.239058   143A      1.248060   144A      1.272171
     145A      1.276650   146A      1.288897   147A      1.297249
     148A      1.329784   149A      1.334281   150A      1.356639
     151A      1.360839   152A      1.383389   153A      1.427060
     154A      1.444405   155A      1.479875   156A      1.507675
     157A      1.517079   158A      1.533548   159A      1.568918
     160A      1.594562   161A      1.607226   162A      1.620778
     163A      1.624943   164A      1.635732   165A      1.640354
     166A      1.654559   167A      1.691659   168A      1.696679
     169A      1.734220   170A      1.744527   171A      1.756243
     172A      1.769939   173A      1.776845   174A      1.789713
     175A      1.805260   176A      1.816805   177A      1.823455
     178A      1.837322   179A      1.849069   180A      1.867942
     181A      1.884850   182A      1.889080   183A      1.901566
     184A      1.905027   185A      1.908856   186A      1.914511
     187A      1.925037   188A      1.926136   189A      1.935755
     190A      1.949058   191A      1.952068   192A      1.956499
     193A      1.974446   194A      1.986330   195A      1.993718
     196A      2.001893   197A      2.006184   198A      2.027321
     199A      2.035901   200A      2.044603   201A      2.067277
     202A      2.072769   203A      2.081948   204A      2.087949
     205A      2.097723   206A      2.115170   207A      2.118553
     208A      2.129172   209A      2.145934   210A      2.149424
     211A      2.157744   212A      2.169224   213A      2.178156
     214A      2.192473   215A      2.231122   216A      2.244772
     217A      2.256695   218A      2.272154   219A      2.295451
     220A      2.304325   221A      2.325598   222A      2.338307
     223A      2.350039   224A      2.356613   225A      2.384413
     226A      2.401769   227A      2.430533   228A      2.441667
     229A      2.458133   230A      2.472712   231A      2.503022
     232A      2.528988   233A      2.562518   234A      2.573945
     235A      2.595005   236A      2.620048   237A      2.648124
     238A      2.657872   239A      2.677308   240A      2.687881
     241A      2.716689   242A      2.763411   243A      2.765737
     244A      2.776281   245A      2.781534   246A      2.787188
     247A      2.806166   248A      2.823412   249A      2.834862
     250A      2.842829   251A      2.863976   252A      2.873263
     253A      2.889201   254A      2.911184   255A      2.932566
     256A      2.956041   257A      2.962971   258A      3.004062
     259A      3.035226   260A      3.049622   261A      3.071418
     262A      3.100657   263A      3.199884   264A      3.285499
     265A      3.367544   266A      3.738106   267A      3.939976

    Final Occupation by Irrep:
              A
    DOCC [    48 ]

  @RHF Final Energy:  -518.78037421385670

   => Energetics <=

    Nuclear Repulsion Energy =            749.6681481922905732
    One-Electron Energy =               -2189.0215691594521559
    Two-Electron Energy =                 920.5730467533048795
    Total Energy =                       -518.7803742138567031

Computation Completed

Properties will be evaluated at   0.000000,   0.000000,   0.000000 [a0]

Properties computed using the SCF density matrix

  Nuclear Dipole Moment: [e a0]
     X:    18.8929      Y:    -0.5228      Z:    -0.8779

  Electronic Dipole Moment: [e a0]
     X:   -19.7173      Y:     0.9149      Z:     0.6945

  Dipole Moment: [e a0]
     X:    -0.8244      Y:     0.3920      Z:    -0.1834     Total:     0.9311

  Dipole Moment: [D]
     X:    -2.0953      Y:     0.9965      Z:    -0.4662     Total:     2.3666

*** tstop() called on ds3 at Tue Apr 28 09:14:28 2020
Module time:
	user time   =     273.20 seconds =       4.55 minutes
	system time =     111.83 seconds =       1.86 minutes
	total time  =        735 seconds =      12.25 minutes
Total time:
	user time   =     273.20 seconds =       4.55 minutes
	system time =     111.83 seconds =       1.86 minutes
	total time  =        735 seconds =      12.25 minutes
                                     G D M A

                                 by Anthony Stone

                           version 2.2.06, 22 June 2011

               Distributed Multipoles from Gaussian wavefunctions

Starting at 9:14:28 on 28 Apr 2020

Using SCF density matrix from file ./SSI/SSI-237TRP-246PRO-1-dimer.test.9335.fchk

                         Distributed Multipole Analysis

Standard DMA

Positions and radii in angstrom
Multipole moments in atomic units, ea_0^k for rank k

C          x = -0.845183  y = -0.708857  z = -3.158794 angstrom
           Maximum rank =  0   Radius =  0.650 angstrom
                   Q00  =  -0.211417

C          x = -0.964183  y = -0.283857  z = -0.546794 angstrom
           Maximum rank =  0   Radius =  0.650 angstrom
                   Q00  =  -0.036063

C          x = -1.467183  y = -0.132857  z = -1.883794 angstrom
           Maximum rank =  0   Radius =  0.650 angstrom
                   Q00  =  -0.140185

C          x = -1.876183  y =  0.366143  z =  0.329206 angstrom
           Maximum rank =  0   Radius =  0.650 angstrom
                   Q00  =   0.288567

C          x = -2.629183  y =  0.578143  z = -1.773794 angstrom
           Maximum rank =  0   Radius =  0.650 angstrom
                   Q00  =   0.077767

C          x =  0.354817  y = -0.863857  z =  1.387206 angstrom
           Maximum rank =  0   Radius =  0.650 angstrom
                   Q00  =  -0.088675

C          x = -0.569183  y = -0.200857  z =  2.224206 angstrom
           Maximum rank =  0   Radius =  0.650 angstrom
                   Q00  =  -0.073080

C          x =  0.170817  y = -0.904857  z =  0.003206 angstrom
           Maximum rank =  0   Radius =  0.650 angstrom
                   Q00  =  -0.111678

C          x = -1.694183  y =  0.422143  z =  1.701206 angstrom
           Maximum rank =  0   Radius =  0.650 angstrom
                   Q00  =  -0.120448

N          x = -2.878183  y =  0.879143  z = -0.448794 angstrom
           Maximum rank =  0   Radius =  0.650 angstrom
                   Q00  =  -0.496622

H          x =  1.222817  y = -1.352857  z =  1.803206 angstrom
           Maximum rank =  0   Radius =  0.325 angstrom
                   Q00  =   0.062336

H          x = -0.404183  y = -0.174857  z =  3.292206 angstrom
           Maximum rank =  0   Radius =  0.325 angstrom
                   Q00  =   0.066827

H          x =  0.904817  y = -1.411857  z = -0.611794 angstrom
           Maximum rank =  0   Radius =  0.325 angstrom
                   Q00  =   0.071275

H          x = -2.422183  y =  0.938143  z =  2.315206 angstrom
           Maximum rank =  0   Radius =  0.325 angstrom
                   Q00  =   0.075436

H          x =  0.235817  y = -0.781857  z = -2.994794 angstrom
           Maximum rank =  0   Radius =  0.325 angstrom
                   Q00  =   0.105796

H          x = -1.024183  y =  0.008143  z = -3.960794 angstrom
           Maximum rank =  0   Radius =  0.325 angstrom
                   Q00  =   0.102791

H          x = -3.203183  y =  0.816143  z = -2.664794 angstrom
           Maximum rank =  0   Radius =  0.325 angstrom
                   Q00  =   0.103613

H          x = -3.674183  y =  1.400143  z = -0.097794 angstrom
           Maximum rank =  0   Radius =  0.325 angstrom
                   Q00  =   0.219050

H          x = -1.264383  y = -1.674957  z = -3.476564 angstrom
           Maximum rank =  0   Radius =  0.325 angstrom
                   Q00  =   0.103946

C          x =  3.699817  y =  0.528143  z =  1.351206 angstrom
           Maximum rank =  0   Radius =  0.650 angstrom
                   Q00  =  -0.104529

C          x =  3.991817  y = -0.946857  z =  0.996206 angstrom
           Maximum rank =  0   Radius =  0.650 angstrom
                   Q00  =  -0.222981

C          x =  3.494817  y =  1.168143  z = -0.026794 angstrom
           Maximum rank =  0   Radius =  0.650 angstrom
                   Q00  =  -0.202163

H          x =  4.508817  y =  1.036143  z =  1.885206 angstrom
           Maximum rank =  0   Radius =  0.325 angstrom
                   Q00  =   0.054957

H          x =  2.785817  y =  0.587143  z =  1.935206 angstrom
           Maximum rank =  0   Radius =  0.325 angstrom
                   Q00  =   0.062016

H          x =  4.441817  y = -1.482857  z =  1.832206 angstrom
           Maximum rank =  0   Radius =  0.325 angstrom
                   Q00  =   0.082413

H          x =  3.071817  y = -1.454857  z =  0.695206 angstrom
           Maximum rank =  0   Radius =  0.325 angstrom
                   Q00  =   0.077482

H          x =  2.492817  y =  0.928143  z = -0.379794 angstrom
           Maximum rank =  0   Radius =  0.325 angstrom
                   Q00  =   0.089758

H          x =  4.679467  y = -0.812757  z =  0.148176 angstrom
           Maximum rank =  0   Radius =  0.325 angstrom
                   Q00  =   0.052056

H          x =  4.189957  y =  0.615943  z = -0.676284 angstrom
           Maximum rank =  0   Radius =  0.325 angstrom
                   Q00  =   0.042036

H          x =  3.602557  y =  2.261943  z =  0.018156 angstrom
           Maximum rank =  0   Radius =  0.325 angstrom
                   Q00  =   0.069719

Total multipoles referred to origin at
           x =   0.000000,  y =    0.000000,  z =    0.000000 angstrom
                   Q00  =  -0.000000

Finished at 9:14:28 on 28 Apr 2020

  DMA results are available in the Python driver through the
	  variable('DMA DISTRIBUTED MULTIPOLES')
  and
	  variable('DMA TOTAL MULTIPOLES')
  commands.

    Psi4 stopped on: Tuesday, 28 April 2020 09:14AM
    Psi4 wall time for execution: 0:12:15.20

*** Psi4 exiting successfully. Buy a developer a beer!
