                               Psi4 1.3.2 release

  ==> Input File <==

--------------------------------------------------------------------------
import numpy as np
set {scf_type pk
basis cc-pvdz
d_convergence 10
gdma_switch   0
gdma_limit    0
gdma_origin   [ 0.0,  0.0,  0.0 ]
}
molecule test {
    units Angstrom
    0 1
    --
    0 1
    C               -0.916100949394939    -2.615976709002751    -0.255731830785023
    C                0.846899050605061     0.133023290997249     1.346268169214977
    C                0.031899050605061    -1.521976709002751     0.143268169214977
    C                1.175899050605062    -1.094976709002751    -0.451731830785023
    N               -0.146100949394939    -0.739976709002751     1.265268169214977
    N                1.664899050605062    -0.065976709002751     0.320268169214977
    H                0.965899050605061     0.880023290997249     2.122268169214977
    H                2.519899050605062     0.448023290997249     0.133268169214977
    H                1.611899050605061    -1.489976709002751    -1.358731830785023
    H               -1.163100949394938    -3.194976709002751     0.633268169214977
    H               -0.407100949394939    -3.273976709002751    -0.960731830785023
    H               -1.842950949394939    -2.252416709002750    -0.723467830785023
    C               -0.971100949394939     2.149023290997249    -0.595731830785023
    C               -1.461100949394939     3.274023290997249    -1.500731830785023
    H               -0.591100949394939     2.536023290997249     0.348268169214977
    H               -1.800100949394938     1.484023290997249    -0.370731830785023
    H               -0.200100949394939     1.572023290997249    -1.099731830785023
    H               -2.317100949394939     3.729023290997249    -1.009731830785023
    H               -0.686840949394939     4.045433290997249    -1.625013830785023
    H               -1.789270949394939     2.867403290997249    -2.468700830785023

}
e, wfn = energy('scf', return_wfn=True)
gdma(wfn)
dmavals = variable('DMA DISTRIBUTED MULTIPOLES')
charges = np.array(dmavals)
print(charges)
np.save('SSI-096HIE-132VAL-1-dimer.npy', np.array(charges))--------------------------------------------------------------------------

*** tstart() called on ds3
*** at Mon Apr 27 08:14:45 2020

   => Loading Basis Set <=

    Name: CC-PVDZ
    Role: ORBITAL
    Keyword: BASIS
    atoms 1-4, 13-14  entry C          line   138 file /theoryfs2/ds/metcalf/miniconda2/envs/tf2gpu/share/psi4/basis/cc-pvdz.gbs
    atoms 5-6         entry N          line   168 file /theoryfs2/ds/metcalf/miniconda2/envs/tf2gpu/share/psi4/basis/cc-pvdz.gbs
    atoms 7-12, 15-20 entry H          line    22 file /theoryfs2/ds/metcalf/miniconda2/envs/tf2gpu/share/psi4/basis/cc-pvdz.gbs

         ---------------------------------------------------------
                                   SCF
               by Justin Turney, Rob Parrish, Andy Simmonett
                          and Daniel G. A. Smith
                              RHF Reference
                        1 Threads,    500 MiB Core
         ---------------------------------------------------------

  ==> Geometry <==

    Molecular point group: c1
    Full point group: C1

    Geometry (in Angstrom), charge = 0, multiplicity = 1:

       Center              X                  Y                   Z               Mass
    ------------   -----------------  -----------------  -----------------  -----------------
         C           -0.916100949395    -2.615976709003    -0.255731830785    12.000000000000
         C            0.846899050605     0.133023290997     1.346268169215    12.000000000000
         C            0.031899050605    -1.521976709003     0.143268169215    12.000000000000
         C            1.175899050605    -1.094976709003    -0.451731830785    12.000000000000
         N           -0.146100949395    -0.739976709003     1.265268169215    14.003074004430
         N            1.664899050605    -0.065976709003     0.320268169215    14.003074004430
         H            0.965899050605     0.880023290997     2.122268169215     1.007825032230
         H            2.519899050605     0.448023290997     0.133268169215     1.007825032230
         H            1.611899050605    -1.489976709003    -1.358731830785     1.007825032230
         H           -1.163100949395    -3.194976709003     0.633268169215     1.007825032230
         H           -0.407100949395    -3.273976709003    -0.960731830785     1.007825032230
         H           -1.842950949395    -2.252416709003    -0.723467830785     1.007825032230
         C           -0.971100949395     2.149023290997    -0.595731830785    12.000000000000
         C           -1.461100949395     3.274023290997    -1.500731830785    12.000000000000
         H           -0.591100949395     2.536023290997     0.348268169215     1.007825032230
         H           -1.800100949395     1.484023290997    -0.370731830785     1.007825032230
         H           -0.200100949395     1.572023290997    -1.099731830785     1.007825032230
         H           -2.317100949395     3.729023290997    -1.009731830785     1.007825032230
         H           -0.686840949395     4.045433290997    -1.625013830785     1.007825032230
         H           -1.789270949395     2.867403290997    -2.468700830785     1.007825032230

  Running in c1 symmetry.

  Rotational constants: A =      0.09008  B =      0.03349  C =      0.02913 [cm^-1]
  Rotational constants: A =   2700.50065  B =   1003.89290  C =    873.15756 [MHz]
  Nuclear repulsion =  361.609200979794537

  Charge       = 0
  Multiplicity = 1
  Electrons    = 62
  Nalpha       = 31
  Nbeta        = 31

  ==> Algorithm <==

  SCF Algorithm Type is PK.
  DIIS enabled.
  MOM disabled.
  Fractional occupation disabled.
  Guess Type is SAD.
  Energy threshold   = 1.00e-06
  Density threshold  = 1.00e-10
  Integral threshold = 0.00e+00

  ==> Primary Basis <==

  Basis Set: CC-PVDZ
    Blend: CC-PVDZ
    Number of shells: 84
    Number of basis function: 172
    Number of Cartesian functions: 180
    Spherical Harmonics?: true
    Max angular momentum: 2

  ==> Pre-Iterations <==

   -------------------------------------------------------
    Irrep   Nso     Nmo     Nalpha   Nbeta   Ndocc  Nsocc
   -------------------------------------------------------
     A        172     172       0       0       0       0
   -------------------------------------------------------
    Total     172     172      31      31      31       0
   -------------------------------------------------------

  ==> Integral Setup <==

  Using integral reordering PK algorithm.
  Sizing the integral batches needed.
  Building batch lookup table.
   Calculation information:
      Number of atoms:                  20
      Number of AO shells:              84
      Number of primitives:            236
      Number of atomic orbitals:       180
      Number of basis functions:       172

      Integral cutoff                 1.00e-12
      Number of threads:                 1

	Batch   1 pq = [       0,    9405] index = [             0,44231715] size =     44231715
	Batch   2 pq = [    9405,   13301] index = [      44231715,88464951] size =     44233236
	Batch   3 pq = [   13301,   14878] index = [      88464951,110684881] size =     22219930
  Task number: 11
  Buffer size: 11059200
  Buffer per thread: 2
  We computed 5604649 shell quartets total.
  Whereas there are 6374235 unique shell quartets.

  ==> DiskJK: Disk-Based J/K Matrices <==

    J tasked:                  Yes
    K tasked:                  Yes
    wK tasked:                  No
    Memory [MiB]:              375
    Schwarz Cutoff:          1E-12

    OpenMP threads:              1

  Minimum eigenvalue in the overlap matrix is 1.1492063692E-03.
  Using Symmetric Orthogonalization.

  SCF Guess: Superposition of Atomic Densities via on-the-fly atomic UHF.

  ==> Iterations <==

                        Total Energy        Delta E     RMS |[F,P]|

   @RHF iter SAD:  -342.23748158885184   -3.42237e+02   0.00000e+00
   @RHF iter   1:  -342.88538757661252   -6.47906e-01   3.37733e-03 DIIS
   @RHF iter   2:  -343.05873654637014   -1.73349e-01   1.71164e-03 DIIS
   @RHF iter   3:  -343.09969397754185   -4.09574e-02   4.37025e-04 DIIS
   @RHF iter   4:  -343.10319264526152   -3.49867e-03   1.81851e-04 DIIS
   @RHF iter   5:  -343.10375815739962   -5.65512e-04   2.67554e-05 DIIS
   @RHF iter   6:  -343.10377932373302   -2.11663e-05   1.15629e-05 DIIS
   @RHF iter   7:  -343.10378281942735   -3.49569e-06   4.05382e-06 DIIS
   @RHF iter   8:  -343.10378357482938   -7.55402e-07   1.61311e-06 DIIS
   @RHF iter   9:  -343.10378373670386   -1.61874e-07   5.70259e-07 DIIS
   @RHF iter  10:  -343.10378375179550   -1.50916e-08   1.76894e-07 DIIS
   @RHF iter  11:  -343.10378375350831   -1.71281e-09   7.89817e-08 DIIS
   @RHF iter  12:  -343.10378375374745   -2.39140e-10   3.13841e-08 DIIS
   @RHF iter  13:  -343.10378375379065   -4.32010e-11   8.84689e-09 DIIS
   @RHF iter  14:  -343.10378375379537   -4.71800e-12   3.26616e-09 DIIS
   @RHF iter  15:  -343.10378375379685   -1.47793e-12   1.31879e-09 DIIS
   @RHF iter  16:  -343.10378375379418    2.67164e-12   4.07106e-10 DIIS
   @RHF iter  17:  -343.10378375379588   -1.70530e-12   1.17358e-10 DIIS
   @RHF iter  18:  -343.10378375379378    2.10321e-12   4.49220e-11 DIIS
  Energy and wave function converged.

  ==> Post-Iterations <==

    Orbital Energies [Eh]
    ---------------------

    Doubly Occupied:

       1A    -15.619757     2A    -15.525865     3A    -11.291611
       4A    -11.249569     5A    -11.240917     6A    -11.223920
       7A    -11.212716     8A    -11.205366     9A     -1.341818
      10A     -1.152124    11A     -1.030780    12A     -1.012339
      13A     -0.940269    14A     -0.829491    15A     -0.816878
      16A     -0.762372    17A     -0.740059    18A     -0.609453
      19A     -0.605317    20A     -0.596644    21A     -0.592541
      22A     -0.589566    23A     -0.552356    24A     -0.539878
      25A     -0.521633    26A     -0.492447    27A     -0.480547
      28A     -0.475093    29A     -0.408016    30A     -0.376728
      31A     -0.309368

    Virtual:

      32A      0.169652    33A      0.187726    34A      0.193125
      35A      0.201701    36A      0.215553    37A      0.223199
      38A      0.237912    39A      0.262206    40A      0.267307
      41A      0.269305    42A      0.280686    43A      0.290972
      44A      0.312982    45A      0.320289    46A      0.376759
      47A      0.392346    48A      0.396464    49A      0.422417
      50A      0.484912    51A      0.491850    52A      0.597928
      53A      0.601168    54A      0.606899    55A      0.619473
      56A      0.627724    57A      0.645432    58A      0.661147
      59A      0.672697    60A      0.680788    61A      0.720580
      62A      0.751702    63A      0.766184    64A      0.799176
      65A      0.812640    66A      0.820515    67A      0.838713
      68A      0.861222    69A      0.881438    70A      0.895185
      71A      0.896759    72A      0.900646    73A      0.903407
      74A      0.917846    75A      0.924276    76A      0.937425
      77A      0.940632    78A      0.964677    79A      0.975524
      80A      0.984107    81A      1.016880    82A      1.027742
      83A      1.068907    84A      1.093334    85A      1.112785
      86A      1.131063    87A      1.144162    88A      1.151548
      89A      1.162024    90A      1.187643    91A      1.243088
      92A      1.275865    93A      1.284013    94A      1.321237
      95A      1.330081    96A      1.361650    97A      1.423192
      98A      1.439412    99A      1.480149   100A      1.488720
     101A      1.505939   102A      1.533935   103A      1.575786
     104A      1.592725   105A      1.601437   106A      1.647455
     107A      1.684131   108A      1.691820   109A      1.704318
     110A      1.752556   111A      1.772676   112A      1.810152
     113A      1.824916   114A      1.854723   115A      1.881017
     116A      1.886769   117A      1.900021   118A      1.920811
     119A      1.929251   120A      1.942879   121A      1.950948
     122A      1.960102   123A      1.962253   124A      1.970279
     125A      1.980334   126A      1.990032   127A      2.010908
     128A      2.036370   129A      2.058268   130A      2.100569
     131A      2.107326   132A      2.135110   133A      2.141584
     134A      2.147277   135A      2.201937   136A      2.221868
     137A      2.230744   138A      2.304006   139A      2.318690
     140A      2.351126   141A      2.371396   142A      2.403083
     143A      2.439009   144A      2.458609   145A      2.463869
     146A      2.495113   147A      2.501799   148A      2.554357
     149A      2.569752   150A      2.592975   151A      2.613025
     152A      2.693809   153A      2.727387   154A      2.752408
     155A      2.775194   156A      2.781344   157A      2.794662
     158A      2.808467   159A      2.831407   160A      2.857244
     161A      2.865898   162A      2.873643   163A      2.897216
     164A      2.925597   165A      2.958686   166A      2.976345
     167A      3.000129   168A      3.075098   169A      3.167905
     170A      3.237546   171A      3.478613   172A      3.806203

    Final Occupation by Irrep:
              A
    DOCC [    31 ]

  @RHF Final Energy:  -343.10378375379378

   => Energetics <=

    Nuclear Repulsion Energy =            361.6092009797945366
    One-Electron Energy =               -1180.7350926864125995
    Two-Electron Energy =                 476.0221079528242853
    Total Energy =                       -343.1037837537937776

Computation Completed

Properties will be evaluated at   0.000000,   0.000000,   0.000000 [a0]

Properties computed using the SCF density matrix

  Nuclear Dipole Moment: [e a0]
     X:    -5.3480      Y:     6.8933      Z:    -5.9854

  Electronic Dipole Moment: [e a0]
     X:     6.4883      Y:    -6.5257      Z:     5.4728

  Dipole Moment: [e a0]
     X:     1.1404      Y:     0.3676      Z:    -0.5126     Total:     1.3032

  Dipole Moment: [D]
     X:     2.8985      Y:     0.9344      Z:    -1.3030     Total:     3.3124

*** tstop() called on ds3 at Mon Apr 27 08:17:28 2020
Module time:
	user time   =      38.76 seconds =       0.65 minutes
	system time =      15.01 seconds =       0.25 minutes
	total time  =        163 seconds =       2.72 minutes
Total time:
	user time   =      38.76 seconds =       0.65 minutes
	system time =      15.01 seconds =       0.25 minutes
	total time  =        163 seconds =       2.72 minutes
                                     G D M A

                                 by Anthony Stone

                           version 2.2.06, 22 June 2011

               Distributed Multipoles from Gaussian wavefunctions

Starting at 8:17:28 on 27 Apr 2020

Using SCF density matrix from file ./SSI/SSI-096HIE-132VAL-1-dimer.test.798.fchk

                         Distributed Multipole Analysis

Standard DMA

Positions and radii in angstrom
Multipole moments in atomic units, ea_0^k for rank k

C          x = -0.916101  y = -2.615977  z = -0.255732 angstrom
           Maximum rank =  0   Radius =  0.650 angstrom
                   Q00  =  -0.193643

C          x =  0.846899  y =  0.133023  z =  1.346268 angstrom
           Maximum rank =  0   Radius =  0.650 angstrom
                   Q00  =   0.470201

C          x =  0.031899  y = -1.521977  z =  0.143268 angstrom
           Maximum rank =  0   Radius =  0.650 angstrom
                   Q00  =   0.233342

C          x =  1.175899  y = -1.094977  z = -0.451732 angstrom
           Maximum rank =  0   Radius =  0.650 angstrom
                   Q00  =  -0.008805

N          x = -0.146101  y = -0.739977  z =  1.265268 angstrom
           Maximum rank =  0   Radius =  0.650 angstrom
                   Q00  =  -0.774867

N          x =  1.664899  y = -0.065977  z =  0.320268 angstrom
           Maximum rank =  0   Radius =  0.650 angstrom
                   Q00  =  -0.473896

H          x =  0.965899  y =  0.880023  z =  2.122268 angstrom
           Maximum rank =  0   Radius =  0.325 angstrom
                   Q00  =   0.123457

H          x =  2.519899  y =  0.448023  z =  0.133268 angstrom
           Maximum rank =  0   Radius =  0.325 angstrom
                   Q00  =   0.219006

H          x =  1.611899  y = -1.489977  z = -1.358732 angstrom
           Maximum rank =  0   Radius =  0.325 angstrom
                   Q00  =   0.100568

H          x = -1.163101  y = -3.194977  z =  0.633268 angstrom
           Maximum rank =  0   Radius =  0.325 angstrom
                   Q00  =   0.115755

H          x = -0.407101  y = -3.273977  z = -0.960732 angstrom
           Maximum rank =  0   Radius =  0.325 angstrom
                   Q00  =   0.090977

H          x = -1.842951  y = -2.252417  z = -0.723468 angstrom
           Maximum rank =  0   Radius =  0.325 angstrom
                   Q00  =   0.105396

C          x = -0.971101  y =  2.149023  z = -0.595732 angstrom
           Maximum rank =  0   Radius =  0.650 angstrom
                   Q00  =  -0.233631

C          x = -1.461101  y =  3.274023  z = -1.500732 angstrom
           Maximum rank =  0   Radius =  0.650 angstrom
                   Q00  =  -0.231552

H          x = -0.591101  y =  2.536023  z =  0.348268 angstrom
           Maximum rank =  0   Radius =  0.325 angstrom
                   Q00  =   0.068128

H          x = -1.800101  y =  1.484023  z = -0.370732 angstrom
           Maximum rank =  0   Radius =  0.325 angstrom
                   Q00  =   0.087386

H          x = -0.200101  y =  1.572023  z = -1.099732 angstrom
           Maximum rank =  0   Radius =  0.325 angstrom
                   Q00  =   0.073490

H          x = -2.317101  y =  3.729023  z = -1.009732 angstrom
           Maximum rank =  0   Radius =  0.325 angstrom
                   Q00  =   0.076398

H          x = -0.686841  y =  4.045433  z = -1.625014 angstrom
           Maximum rank =  0   Radius =  0.325 angstrom
                   Q00  =   0.073174

H          x = -1.789271  y =  2.867403  z = -2.468701 angstrom
           Maximum rank =  0   Radius =  0.325 angstrom
                   Q00  =   0.079114

Total multipoles referred to origin at
           x =   0.000000,  y =    0.000000,  z =    0.000000 angstrom
                   Q00  =  -0.000000

Finished at 8:17:28 on 27 Apr 2020

  DMA results are available in the Python driver through the
	  variable('DMA DISTRIBUTED MULTIPOLES')
  and
	  variable('DMA TOTAL MULTIPOLES')
  commands.

    Psi4 stopped on: Monday, 27 April 2020 08:17AM
    Psi4 wall time for execution: 0:02:43.45

*** Psi4 exiting successfully. Buy a developer a beer!
