                               Psi4 1.3.2 release

  ==> Input File <==

--------------------------------------------------------------------------
import numpy as np
set {scf_type pk
basis cc-pvdz
d_convergence 10
gdma_switch   0
gdma_limit    0
gdma_origin   [ 0.0,  0.0,  0.0 ]
}
molecule test {
    units Angstrom
    0 1
    --
    0 1
    C                1.374817339364797    -0.322796971928221     0.035064892951669
    C                2.681817339364798    -1.070796971928221    -0.173935107048331
    C                0.832817339364797    -0.529796971928221     1.437064892951669
    H                1.510817339364797     0.744203028071779    -0.153935107048331
    H                0.625817339364797    -0.702796971928221    -0.657935107048331
    H                2.549817339364797    -2.135796971928221     0.007064892951669
    H                3.429817339364797    -0.694796971928221     0.523064892951669
    H               -0.152182660635203    -0.050796971928221     1.489064892951669
    H                0.682817339364797    -1.602796971928221     1.607064892951669
    H                3.067938339364797    -0.896278971928221    -1.189045107048331
    H                1.496695339364797    -0.102912971928221     2.203244892951670
    C               -2.825182660635203     1.325203028071779    -0.482935107048331
    O               -1.667182660635203     0.528203028071779    -0.722935107048331
    H               -1.966182660635203    -0.383796971928221    -0.828935107048331
    H               -3.240182660635202     1.066203028071779     0.492064892951669
    H               -2.538600660635202     2.387200028071779    -0.477215107048331
    H               -3.586074660635203     1.111923028071779    -1.248155107048331

}
e, wfn = energy('scf', return_wfn=True)
gdma(wfn)
dmavals = variable('DMA DISTRIBUTED MULTIPOLES')
charges = np.array(dmavals)
print(charges)
np.save('SSI-007LYS-099THR-1-dimer.npy', np.array(charges))--------------------------------------------------------------------------

*** tstart() called on ds3
*** at Mon Apr 27 22:37:15 2020

   => Loading Basis Set <=

    Name: CC-PVDZ
    Role: ORBITAL
    Keyword: BASIS
    atoms 1-3, 12     entry C          line   138 file /theoryfs2/ds/metcalf/miniconda2/envs/tf2gpu/share/psi4/basis/cc-pvdz.gbs
    atoms 4-11, 14-17 entry H          line    22 file /theoryfs2/ds/metcalf/miniconda2/envs/tf2gpu/share/psi4/basis/cc-pvdz.gbs
    atoms 13          entry O          line   198 file /theoryfs2/ds/metcalf/miniconda2/envs/tf2gpu/share/psi4/basis/cc-pvdz.gbs

         ---------------------------------------------------------
                                   SCF
               by Justin Turney, Rob Parrish, Andy Simmonett
                          and Daniel G. A. Smith
                              RHF Reference
                        1 Threads,    500 MiB Core
         ---------------------------------------------------------

  ==> Geometry <==

    Molecular point group: c1
    Full point group: C1

    Geometry (in Angstrom), charge = 0, multiplicity = 1:

       Center              X                  Y                   Z               Mass
    ------------   -----------------  -----------------  -----------------  -----------------
         C            1.374817339365    -0.322796971928     0.035064892952    12.000000000000
         C            2.681817339365    -1.070796971928    -0.173935107048    12.000000000000
         C            0.832817339365    -0.529796971928     1.437064892952    12.000000000000
         H            1.510817339365     0.744203028072    -0.153935107048     1.007825032230
         H            0.625817339365    -0.702796971928    -0.657935107048     1.007825032230
         H            2.549817339365    -2.135796971928     0.007064892952     1.007825032230
         H            3.429817339365    -0.694796971928     0.523064892952     1.007825032230
         H           -0.152182660635    -0.050796971928     1.489064892952     1.007825032230
         H            0.682817339365    -1.602796971928     1.607064892952     1.007825032230
         H            3.067938339365    -0.896278971928    -1.189045107048     1.007825032230
         H            1.496695339365    -0.102912971928     2.203244892952     1.007825032230
         C           -2.825182660635     1.325203028072    -0.482935107048    12.000000000000
         O           -1.667182660635     0.528203028072    -0.722935107048    15.994914619570
         H           -1.966182660635    -0.383796971928    -0.828935107048     1.007825032230
         H           -3.240182660635     1.066203028072     0.492064892952     1.007825032230
         H           -2.538600660635     2.387200028072    -0.477215107048     1.007825032230
         H           -3.586074660635     1.111923028072    -1.248155107048     1.007825032230

  Running in c1 symmetry.

  Rotational constants: A =      0.33289  B =      0.04254  C =      0.03938 [cm^-1]
  Rotational constants: A =   9979.66550  B =   1275.35911  C =   1180.44840 [MHz]
  Nuclear repulsion =  180.738021149234726

  Charge       = 0
  Multiplicity = 1
  Electrons    = 44
  Nalpha       = 22
  Nbeta        = 22

  ==> Algorithm <==

  SCF Algorithm Type is PK.
  DIIS enabled.
  MOM disabled.
  Fractional occupation disabled.
  Guess Type is SAD.
  Energy threshold   = 1.00e-06
  Density threshold  = 1.00e-10
  Integral threshold = 0.00e+00

  ==> Primary Basis <==

  Basis Set: CC-PVDZ
    Blend: CC-PVDZ
    Number of shells: 66
    Number of basis function: 130
    Number of Cartesian functions: 135
    Spherical Harmonics?: true
    Max angular momentum: 2

  ==> Pre-Iterations <==

   -------------------------------------------------------
    Irrep   Nso     Nmo     Nalpha   Nbeta   Ndocc  Nsocc
   -------------------------------------------------------
     A        130     130       0       0       0       0
   -------------------------------------------------------
    Total     130     130      22      22      22       0
   -------------------------------------------------------

  ==> Integral Setup <==

  Using integral reordering PK algorithm.
  Sizing the integral batches needed.
  Building batch lookup table.
   Calculation information:
      Number of atoms:                  17
      Number of AO shells:              66
      Number of primitives:            170
      Number of atomic orbitals:       135
      Number of basis functions:       130

      Integral cutoff                 1.00e-12
      Number of threads:                 1

	Batch   1 pq = [       0,    8515] index = [             0,36256870] size =     36256870
  Task number: 4
  Buffer size: 11059200
  Buffer per thread: 2
  We computed 1993867 shell quartets total.
  Whereas there are 2445366 unique shell quartets.

  ==> DiskJK: Disk-Based J/K Matrices <==

    J tasked:                  Yes
    K tasked:                  Yes
    wK tasked:                  No
    Memory [MiB]:              375
    Schwarz Cutoff:          1E-12

    OpenMP threads:              1

  Minimum eigenvalue in the overlap matrix is 5.3371273652E-03.
  Using Symmetric Orthogonalization.

  SCF Guess: Superposition of Atomic Densities via on-the-fly atomic UHF.

  ==> Iterations <==

                        Total Energy        Delta E     RMS |[F,P]|

   @RHF iter SAD:  -232.10931805782263   -2.32109e+02   0.00000e+00
   @RHF iter   1:  -233.13914988127010   -1.02983e+00   4.18435e-03 DIIS
   @RHF iter   2:  -233.28597538025809   -1.46825e-01   2.01058e-03 DIIS
   @RHF iter   3:  -233.31642155794725   -3.04462e-02   3.91140e-04 DIIS
   @RHF iter   4:  -233.31852870870500   -2.10715e-03   1.18130e-04 DIIS
   @RHF iter   5:  -233.31866089091503   -1.32182e-04   2.53713e-05 DIIS
   @RHF iter   6:  -233.31866891342136   -8.02251e-06   5.46953e-06 DIIS
   @RHF iter   7:  -233.31866939637354   -4.82952e-07   1.42142e-06 DIIS
   @RHF iter   8:  -233.31866942793593   -3.15624e-08   4.47210e-07 DIIS
   @RHF iter   9:  -233.31866943195456   -4.01863e-09   9.46234e-08 DIIS
   @RHF iter  10:  -233.31866943217241   -2.17852e-10   1.94854e-08 DIIS
   @RHF iter  11:  -233.31866943218321   -1.08002e-11   4.67501e-09 DIIS
   @RHF iter  12:  -233.31866943218296    2.55795e-13   1.27544e-09 DIIS
   @RHF iter  13:  -233.31866943218296    0.00000e+00   3.85418e-10 DIIS
   @RHF iter  14:  -233.31866943218313   -1.70530e-13   1.12108e-10 DIIS
   @RHF iter  15:  -233.31866943218242    7.10543e-13   4.23867e-11 DIIS
  Energy and wave function converged.

  ==> Post-Iterations <==

    Orbital Energies [Eh]
    ---------------------

    Doubly Occupied:

       1A    -20.554961     2A    -11.280576     3A    -11.204870
       4A    -11.203740     5A    -11.203128     6A     -1.352112
       7A     -1.044664     8A     -0.922533     9A     -0.912427
      10A     -0.782228    11A     -0.684230    12A     -0.618833
      13A     -0.616571    14A     -0.593253    15A     -0.580043
      16A     -0.537465    17A     -0.522088    18A     -0.501229
      19A     -0.460803    20A     -0.455483    21A     -0.454428
      22A     -0.443540

    Virtual:

      23A      0.170339    24A      0.198828    25A      0.215442
      26A      0.239988    27A      0.244463    28A      0.253638
      29A      0.258096    30A      0.277940    31A      0.288664
      32A      0.308367    33A      0.313645    34A      0.325036
      35A      0.361564    36A      0.385905    37A      0.440772
      38A      0.588373    39A      0.618275    40A      0.624603
      41A      0.625754    42A      0.632556    43A      0.644155
      44A      0.647788    45A      0.732142    46A      0.800670
      47A      0.821948    48A      0.832057    49A      0.853632
      50A      0.866048    51A      0.885531    52A      0.890358
      53A      0.901873    54A      0.908668    55A      0.908728
      56A      0.919023    57A      0.925988    58A      0.936568
      59A      0.952549    60A      0.978016    61A      0.991789
      62A      1.128608    63A      1.135555    64A      1.144377
      65A      1.159439    66A      1.170918    67A      1.219462
      68A      1.313898    69A      1.373285    70A      1.411688
      71A      1.449659    72A      1.483475    73A      1.499270
      74A      1.565555    75A      1.617837    76A      1.642613
      77A      1.660830    78A      1.667868    79A      1.694462
      80A      1.701336    81A      1.717881    82A      1.854148
      83A      1.874605    84A      1.885774    85A      1.889223
      86A      1.896721    87A      1.909570    88A      1.931724
      89A      1.941999    90A      1.951926    91A      1.966050
      92A      1.979905    93A      1.988739    94A      2.005148
      95A      2.021069    96A      2.029193    97A      2.051695
      98A      2.076105    99A      2.148725   100A      2.165811
     101A      2.178799   102A      2.288975   103A      2.311059
     104A      2.321088   105A      2.346807   106A      2.353562
     107A      2.364930   108A      2.375172   109A      2.506067
     110A      2.514290   111A      2.541816   112A      2.591801
     113A      2.626030   114A      2.638042   115A      2.738398
     116A      2.747775   117A      2.770266   118A      2.771438
     119A      2.778260   120A      2.795264   121A      2.843071
     122A      2.918863   123A      2.983794   124A      2.997451
     125A      3.066009   126A      3.299706   127A      3.370762
     128A      3.451379   129A      3.580833   130A      4.082764

    Final Occupation by Irrep:
              A
    DOCC [    22 ]

  @RHF Final Energy:  -233.31866943218242

   => Energetics <=

    Nuclear Repulsion Energy =            180.7380211492347257
    One-Electron Energy =                -674.2549703562367540
    Two-Electron Energy =                 260.1982797748196390
    Total Energy =                       -233.3186694321823893

Computation Completed

Properties will be evaluated at   0.000000,   0.000000,   0.000000 [a0]

Properties computed using the SCF density matrix

  Nuclear Dipole Moment: [e a0]
     X:     1.7549      Y:    -1.1791      Z:     1.6524

  Electronic Dipole Moment: [e a0]
     X:    -2.5973      Y:     1.0654      Z:    -1.7022

  Dipole Moment: [e a0]
     X:    -0.8424      Y:    -0.1137      Z:    -0.0498     Total:     0.8515

  Dipole Moment: [D]
     X:    -2.1412      Y:    -0.2889      Z:    -0.1266     Total:     2.1643

*** tstop() called on ds3 at Mon Apr 27 22:37:34 2020
Module time:
	user time   =      13.13 seconds =       0.22 minutes
	system time =       5.29 seconds =       0.09 minutes
	total time  =         19 seconds =       0.32 minutes
Total time:
	user time   =      13.13 seconds =       0.22 minutes
	system time =       5.29 seconds =       0.09 minutes
	total time  =         19 seconds =       0.32 minutes
                                     G D M A

                                 by Anthony Stone

                           version 2.2.06, 22 June 2011

               Distributed Multipoles from Gaussian wavefunctions

Starting at 22:37:34 on 27 Apr 2020

Using SCF density matrix from file ./SSI/SSI-007LYS-099THR-1-dimer.test.31472.fchk

                         Distributed Multipole Analysis

Standard DMA

Positions and radii in angstrom
Multipole moments in atomic units, ea_0^k for rank k

C          x =  1.374817  y = -0.322797  z =  0.035065 angstrom
           Maximum rank =  0   Radius =  0.650 angstrom
                   Q00  =  -0.057013

C          x =  2.681817  y = -1.070797  z = -0.173935 angstrom
           Maximum rank =  0   Radius =  0.650 angstrom
                   Q00  =  -0.255489

C          x =  0.832817  y = -0.529797  z =  1.437065 angstrom
           Maximum rank =  0   Radius =  0.650 angstrom
                   Q00  =  -0.231069

H          x =  1.510817  y =  0.744203  z = -0.153935 angstrom
           Maximum rank =  0   Radius =  0.325 angstrom
                   Q00  =   0.051638

H          x =  0.625817  y = -0.702797  z = -0.657935 angstrom
           Maximum rank =  0   Radius =  0.325 angstrom
                   Q00  =   0.042928

H          x =  2.549817  y = -2.135797  z =  0.007065 angstrom
           Maximum rank =  0   Radius =  0.325 angstrom
                   Q00  =   0.073887

H          x =  3.429817  y = -0.694797  z =  0.523065 angstrom
           Maximum rank =  0   Radius =  0.325 angstrom
                   Q00  =   0.071616

H          x = -0.152183  y = -0.050797  z =  1.489065 angstrom
           Maximum rank =  0   Radius =  0.325 angstrom
                   Q00  =   0.080885

H          x =  0.682817  y = -1.602797  z =  1.607065 angstrom
           Maximum rank =  0   Radius =  0.325 angstrom
                   Q00  =   0.063462

H          x =  3.067938  y = -0.896279  z = -1.189045 angstrom
           Maximum rank =  0   Radius =  0.325 angstrom
                   Q00  =   0.077796

H          x =  1.496695  y = -0.102913  z =  2.203245 angstrom
           Maximum rank =  0   Radius =  0.325 angstrom
                   Q00  =   0.071493

C          x = -2.825183  y =  1.325203  z = -0.482935 angstrom
           Maximum rank =  0   Radius =  0.650 angstrom
                   Q00  =  -0.044698

O          x = -1.667183  y =  0.528203  z = -0.722935 angstrom
           Maximum rank =  0   Radius =  0.650 angstrom
                   Q00  =  -0.581063

H          x = -1.966183  y = -0.383797  z = -0.828935 angstrom
           Maximum rank =  0   Radius =  0.325 angstrom
                   Q00  =   0.378928

H          x = -3.240183  y =  1.066203  z =  0.492065 angstrom
           Maximum rank =  0   Radius =  0.325 angstrom
                   Q00  =   0.068228

H          x = -2.538601  y =  2.387200  z = -0.477215 angstrom
           Maximum rank =  0   Radius =  0.325 angstrom
                   Q00  =   0.120171

H          x = -3.586075  y =  1.111923  z = -1.248155 angstrom
           Maximum rank =  0   Radius =  0.325 angstrom
                   Q00  =   0.068299

Total multipoles referred to origin at
           x =   0.000000,  y =    0.000000,  z =    0.000000 angstrom
                   Q00  =  -0.000000

Finished at 22:37:34 on 27 Apr 2020

  DMA results are available in the Python driver through the
	  variable('DMA DISTRIBUTED MULTIPOLES')
  and
	  variable('DMA TOTAL MULTIPOLES')
  commands.

    Psi4 stopped on: Monday, 27 April 2020 10:37PM
    Psi4 wall time for execution: 0:00:18.70

*** Psi4 exiting successfully. Buy a developer a beer!
