                               Psi4 1.3.2 release

  ==> Input File <==

--------------------------------------------------------------------------
import numpy as np
set {scf_type pk
basis cc-pvdz
d_convergence 10
gdma_switch   0
gdma_limit    0
gdma_origin   [ 0.0,  0.0,  0.0 ]
}
molecule test {
    units Angstrom
    -1 1
    --
    -1 1
    C                2.519646831012329    -2.346558574826257    -3.318532549070461
    C               -0.008353168987671     0.335441425173743    -1.063532549070461
    C                0.208646831012329     0.540441425173743    -2.433532549070461
    C                0.564646831012329    -0.769558574826257    -0.422532549070461
    C                1.000646831012329    -0.348558574826257    -3.160532549070461
    C                1.357646831012329    -1.661558574826257    -1.163532549070461
    C                1.583646831012329    -1.451558574826257    -2.536532549070461
    O               -0.801353168987671     1.224441425173743    -0.386532549070461
    H               -1.145353168987671     1.927441425173743    -0.934532549070461
    H               -0.230353168987671     1.395441425173743    -2.923532549070461
    H                0.395646831012329    -0.929558574826257     0.633467450929539
    H                1.170646831012329    -0.183558574826257    -4.215532549070462
    H                1.806646831012329    -2.516558574826258    -0.672532549070461
    H                2.829646831012329    -3.178558574826257    -2.688532549070461
    H                3.405646831012329    -1.770558574826257    -3.603532549070461
    H                2.041156831012329    -2.811438574826258    -4.193132549070461
    C               -0.429353168987671     1.945441425173743     3.694467450929539
    C               -1.480353168987671     0.902441425173743     3.276467450929539
    O               -1.589353168987671     0.655441425173743     2.068467450929539
    O               -2.216353168987671     0.353441425173743     4.122467450929539
    H               -0.666353168987671     2.900441425173743     3.216467450929539
    H                0.553646831012329     1.616441425173743     3.348467450929539
    H               -0.350083168987671     2.088401425173743     4.782257450929539

}
e, wfn = energy('scf', return_wfn=True)
gdma(wfn)
dmavals = variable('DMA DISTRIBUTED MULTIPOLES')
charges = np.array(dmavals)
print(charges)
np.save('SSI-186TYR-273GLU-1-dimer.npy', np.array(charges))--------------------------------------------------------------------------

*** tstart() called on ds3
*** at Mon Apr 27 07:21:42 2020

   => Loading Basis Set <=

    Name: CC-PVDZ
    Role: ORBITAL
    Keyword: BASIS
    atoms 1-7, 17-18  entry C          line   138 file /theoryfs2/ds/metcalf/miniconda2/envs/tf2gpu/share/psi4/basis/cc-pvdz.gbs
    atoms 8, 19-20    entry O          line   198 file /theoryfs2/ds/metcalf/miniconda2/envs/tf2gpu/share/psi4/basis/cc-pvdz.gbs
    atoms 9-16, 21-23 entry H          line    22 file /theoryfs2/ds/metcalf/miniconda2/envs/tf2gpu/share/psi4/basis/cc-pvdz.gbs

         ---------------------------------------------------------
                                   SCF
               by Justin Turney, Rob Parrish, Andy Simmonett
                          and Daniel G. A. Smith
                              RHF Reference
                        1 Threads,    500 MiB Core
         ---------------------------------------------------------

  ==> Geometry <==

    Molecular point group: c1
    Full point group: C1

    Geometry (in Angstrom), charge = -1, multiplicity = 1:

       Center              X                  Y                   Z               Mass
    ------------   -----------------  -----------------  -----------------  -----------------
         C            2.519646831012    -2.346558574826    -3.318532549070    12.000000000000
         C           -0.008353168988     0.335441425174    -1.063532549070    12.000000000000
         C            0.208646831012     0.540441425174    -2.433532549070    12.000000000000
         C            0.564646831012    -0.769558574826    -0.422532549070    12.000000000000
         C            1.000646831012    -0.348558574826    -3.160532549070    12.000000000000
         C            1.357646831012    -1.661558574826    -1.163532549070    12.000000000000
         C            1.583646831012    -1.451558574826    -2.536532549070    12.000000000000
         O           -0.801353168988     1.224441425174    -0.386532549070    15.994914619570
         H           -1.145353168988     1.927441425174    -0.934532549070     1.007825032230
         H           -0.230353168988     1.395441425174    -2.923532549070     1.007825032230
         H            0.395646831012    -0.929558574826     0.633467450930     1.007825032230
         H            1.170646831012    -0.183558574826    -4.215532549070     1.007825032230
         H            1.806646831012    -2.516558574826    -0.672532549070     1.007825032230
         H            2.829646831012    -3.178558574826    -2.688532549070     1.007825032230
         H            3.405646831012    -1.770558574826    -3.603532549070     1.007825032230
         H            2.041156831012    -2.811438574826    -4.193132549070     1.007825032230
         C           -0.429353168988     1.945441425174     3.694467450930    12.000000000000
         C           -1.480353168988     0.902441425174     3.276467450930    12.000000000000
         O           -1.589353168988     0.655441425174     2.068467450930    15.994914619570
         O           -2.216353168988     0.353441425174     4.122467450930    15.994914619570
         H           -0.666353168988     2.900441425174     3.216467450930     1.007825032230
         H            0.553646831012     1.616441425174     3.348467450930     1.007825032230
         H           -0.350083168988     2.088401425174     4.782257450930     1.007825032230

  Running in c1 symmetry.

  Rotational constants: A =      0.07723  B =      0.01040  C =      0.00971 [cm^-1]
  Rotational constants: A =   2315.16734  B =    311.71698  C =    291.05475 [MHz]
  Nuclear repulsion =  627.084741538114599

  Charge       = -1
  Multiplicity = 1
  Electrons    = 90
  Nalpha       = 45
  Nbeta        = 45

  ==> Algorithm <==

  SCF Algorithm Type is PK.
  DIIS enabled.
  MOM disabled.
  Fractional occupation disabled.
  Guess Type is SAD.
  Energy threshold   = 1.00e-06
  Density threshold  = 1.00e-10
  Integral threshold = 0.00e+00

  ==> Primary Basis <==

  Basis Set: CC-PVDZ
    Blend: CC-PVDZ
    Number of shells: 105
    Number of basis function: 223
    Number of Cartesian functions: 235
    Spherical Harmonics?: true
    Max angular momentum: 2

  ==> Pre-Iterations <==

   -------------------------------------------------------
    Irrep   Nso     Nmo     Nalpha   Nbeta   Ndocc  Nsocc
   -------------------------------------------------------
     A        223     223       0       0       0       0
   -------------------------------------------------------
    Total     223     223      45      45      45       0
   -------------------------------------------------------

  ==> Integral Setup <==

  Using integral reordering PK algorithm.
  Sizing the integral batches needed.
  Building batch lookup table.
   Calculation information:
      Number of atoms:                  23
      Number of AO shells:             105
      Number of primitives:            319
      Number of atomic orbitals:       235
      Number of basis functions:       223

      Integral cutoff                 1.00e-12
      Number of threads:                 1

	Batch   1 pq = [       0,    9405] index = [             0,44231715] size =     44231715
	Batch   2 pq = [    9405,   13301] index = [      44231715,88464951] size =     44233236
	Batch   3 pq = [   13301,   16290] index = [      88464951,132690195] size =     44225244
	Batch   4 pq = [   16290,   18810] index = [     132690195,176917455] size =     44227260
	Batch   5 pq = [   18810,   21030] index = [     176917455,221140965] size =     44223510
	Batch   6 pq = [   21030,   23037] index = [     221140965,265363203] size =     44222238
	Batch   7 pq = [   23037,   24976] index = [     265363203,311912776] size =     46549573
  Task number: 29
  Buffer size: 11059200
  Buffer per thread: 2
  We computed 11441328 shell quartets total.
  Whereas there are 15487395 unique shell quartets.

  ==> DiskJK: Disk-Based J/K Matrices <==

    J tasked:                  Yes
    K tasked:                  Yes
    wK tasked:                  No
    Memory [MiB]:              375
    Schwarz Cutoff:          1E-12

    OpenMP threads:              1

  Minimum eigenvalue in the overlap matrix is 3.3840044021E-04.
  Using Symmetric Orthogonalization.

  SCF Guess: Superposition of Atomic Densities via on-the-fly atomic UHF.

  ==> Iterations <==

                        Total Energy        Delta E     RMS |[F,P]|

   @RHF iter SAD:  -570.06542392310359   -5.70065e+02   0.00000e+00
   @RHF iter   1:  -571.48011207420063   -1.41469e+00   3.75407e-03 DIIS
   @RHF iter   2:  -571.76910939010475   -2.88997e-01   2.01035e-03 DIIS
   @RHF iter   3:  -571.84349366724916   -7.43843e-02   3.43966e-04 DIIS
   @RHF iter   4:  -571.84735492410709   -3.86126e-03   1.24218e-04 DIIS
   @RHF iter   5:  -571.84787776924099   -5.22845e-04   2.05214e-05 DIIS
   @RHF iter   6:  -571.84789883420751   -2.10650e-05   7.12068e-06 DIIS
   @RHF iter   7:  -571.84790121847652   -2.38427e-06   3.18293e-06 DIIS
   @RHF iter   8:  -571.84790169791893   -4.79442e-07   1.00995e-06 DIIS
   @RHF iter   9:  -571.84790178524281   -8.73239e-08   4.26779e-07 DIIS
   @RHF iter  10:  -571.84790180187588   -1.66331e-08   1.81412e-07 DIIS
   @RHF iter  11:  -571.84790180666175   -4.78587e-09   8.19663e-08 DIIS
   @RHF iter  12:  -571.84790180754953   -8.87781e-10   4.19965e-08 DIIS
   @RHF iter  13:  -571.84790180771188   -1.62345e-10   1.17131e-08 DIIS
   @RHF iter  14:  -571.84790180772063   -8.75389e-12   4.34937e-09 DIIS
   @RHF iter  15:  -571.84790180773143   -1.08002e-11   1.58813e-09 DIIS
   @RHF iter  16:  -571.84790180772222    9.20863e-12   7.45414e-10 DIIS
   @RHF iter  17:  -571.84790180772507   -2.84217e-12   3.37891e-10 DIIS
   @RHF iter  18:  -571.84790180772097    4.09273e-12   1.20728e-10 DIIS
   @RHF iter  19:  -571.84790180773166   -1.06866e-11   5.24476e-11 DIIS
  Energy and wave function converged.

  ==> Post-Iterations <==

    Orbital Energies [Eh]
    ---------------------

    Doubly Occupied:

       1A    -20.451707     2A    -20.245311     3A    -20.243669
       4A    -11.195792     5A    -11.151122     6A    -11.145369
       7A    -11.144053     8A    -11.140988     9A    -11.135646
      10A    -11.125405    11A    -11.104362    12A    -11.046798
      13A     -1.269724    14A     -1.142997    15A     -1.048510
      16A     -1.023942    17A     -0.940182    18A     -0.915632
      19A     -0.833220    20A     -0.787212    21A     -0.740736
      22A     -0.698706    23A     -0.620800    24A     -0.563052
      25A     -0.540043    26A     -0.508620    27A     -0.499774
      28A     -0.490901    29A     -0.485537    30A     -0.460377
      31A     -0.455594    32A     -0.424911    33A     -0.405263
      34A     -0.404637    35A     -0.396703    36A     -0.393440
      37A     -0.372748    38A     -0.362841    39A     -0.330017
      40A     -0.297516    41A     -0.239358    42A     -0.196980
      43A     -0.173334    44A     -0.155684    45A     -0.147733

    Virtual:

      46A      0.227192    47A      0.251923    48A      0.264016
      49A      0.281558    50A      0.306006    51A      0.312533
      52A      0.344600    53A      0.348522    54A      0.356837
      55A      0.367066    56A      0.392105    57A      0.415654
      58A      0.434222    59A      0.452688    60A      0.467855
      61A      0.497170    62A      0.530650    63A      0.552904
      64A      0.578719    65A      0.579396    66A      0.587184
      67A      0.605950    68A      0.702626    69A      0.703113
      70A      0.716961    71A      0.721379    72A      0.748531
      73A      0.759244    74A      0.788966    75A      0.795070
      76A      0.810597    77A      0.824256    78A      0.828359
      79A      0.833582    80A      0.835696    81A      0.861871
      82A      0.872217    83A      0.876440    84A      0.882599
      85A      0.884001    86A      0.918631    87A      0.945299
      88A      0.948087    89A      0.949935    90A      0.967655
      91A      0.972126    92A      0.972743    93A      0.988235
      94A      1.007906    95A      1.020307    96A      1.029682
      97A      1.034042    98A      1.035657    99A      1.042192
     100A      1.048295   101A      1.058936   102A      1.081406
     103A      1.115549   104A      1.124593   105A      1.149859
     106A      1.156948   107A      1.221600   108A      1.228222
     109A      1.241936   110A      1.245438   111A      1.254637
     112A      1.301127   113A      1.309021   114A      1.340620
     115A      1.342581   116A      1.352338   117A      1.370798
     118A      1.375266   119A      1.388389   120A      1.404341
     121A      1.410739   122A      1.445809   123A      1.458614
     124A      1.482184   125A      1.514523   126A      1.552963
     127A      1.561715   128A      1.572026   129A      1.591884
     130A      1.592312   131A      1.606504   132A      1.635578
     133A      1.658737   134A      1.682090   135A      1.728281
     136A      1.743412   137A      1.750049   138A      1.765476
     139A      1.781625   140A      1.824648   141A      1.839996
     142A      1.849035   143A      1.860644   144A      1.871011
     145A      1.894080   146A      1.904259   147A      1.937810
     148A      1.962047   149A      1.977132   150A      1.983835
     151A      2.003726   152A      2.013178   153A      2.033958
     154A      2.038838   155A      2.045618   156A      2.049921
     157A      2.057409   158A      2.087140   159A      2.097352
     160A      2.102724   161A      2.120465   162A      2.126517
     163A      2.140849   164A      2.152906   165A      2.160876
     166A      2.168019   167A      2.204141   168A      2.224595
     169A      2.251021   170A      2.273760   171A      2.290203
     172A      2.292897   173A      2.308195   174A      2.327328
     175A      2.345796   176A      2.367443   177A      2.391699
     178A      2.427011   179A      2.439470   180A      2.442090
     181A      2.474210   182A      2.486930   183A      2.558770
     184A      2.582190   185A      2.594035   186A      2.596668
     187A      2.604606   188A      2.647140   189A      2.671721
     190A      2.700473   191A      2.715715   192A      2.752040
     193A      2.814473   194A      2.829016   195A      2.850160
     196A      2.885444   197A      2.899404   198A      2.913366
     199A      2.916762   200A      2.962916   201A      2.981461
     202A      2.999973   203A      3.046547   204A      3.097325
     205A      3.165006   206A      3.194700   207A      3.255140
     208A      3.294793   209A      3.306232   210A      3.366714
     211A      3.372635   212A      3.379249   213A      3.480537
     214A      3.664268   215A      3.707583   216A      3.772062
     217A      3.788912   218A      3.839954   219A      4.075007
     220A      4.086122   221A      4.144460   222A      4.222735
     223A      4.332190

    Final Occupation by Irrep:
              A
    DOCC [    45 ]

  @RHF Final Energy:  -571.84790180773166

   => Energetics <=

    Nuclear Repulsion Energy =            627.0847415381145993
    One-Electron Energy =               -2038.9514004223160555
    Two-Electron Energy =                 840.0187570764699103
    Total Energy =                       -571.8479018077316596

Computation Completed

Properties will be evaluated at   0.000000,   0.000000,   0.000000 [a0]

Properties computed using the SCF density matrix

  Nuclear Dipole Moment: [e a0]
     X:     9.1753      Y:    -1.3599      Z:    -6.7694

  Electronic Dipole Moment: [e a0]
     X:    -5.8460      Y:     0.9928      Z:     1.1811

  Dipole Moment: [e a0]
     X:     3.3293      Y:    -0.3671      Z:    -5.5883     Total:     6.5152

  Dipole Moment: [D]
     X:     8.4621      Y:    -0.9331      Z:   -14.2040     Total:    16.5600

*** tstop() called on ds3 at Mon Apr 27 07:24:25 2020
Module time:
	user time   =     106.03 seconds =       1.77 minutes
	system time =      53.75 seconds =       0.90 minutes
	total time  =        163 seconds =       2.72 minutes
Total time:
	user time   =     106.03 seconds =       1.77 minutes
	system time =      53.75 seconds =       0.90 minutes
	total time  =        163 seconds =       2.72 minutes
                                     G D M A

                                 by Anthony Stone

                           version 2.2.06, 22 June 2011

               Distributed Multipoles from Gaussian wavefunctions

Starting at 7:24:25 on 27 Apr 2020

Using SCF density matrix from file ./SSI/SSI-186TYR-273GLU-1-dimer.test.1593.fchk

                         Distributed Multipole Analysis

Standard DMA

Positions and radii in angstrom
Multipole moments in atomic units, ea_0^k for rank k

C          x =  2.519647  y = -2.346559  z = -3.318533 angstrom
           Maximum rank =  0   Radius =  0.650 angstrom
                   Q00  =  -0.202425

C          x = -0.008353  y =  0.335441  z = -1.063533 angstrom
           Maximum rank =  0   Radius =  0.650 angstrom
                   Q00  =   0.343281

C          x =  0.208647  y =  0.540441  z = -2.433533 angstrom
           Maximum rank =  0   Radius =  0.650 angstrom
                   Q00  =  -0.165733

C          x =  0.564647  y = -0.769559  z = -0.422533 angstrom
           Maximum rank =  0   Radius =  0.650 angstrom
                   Q00  =  -0.091879

C          x =  1.000647  y = -0.348559  z = -3.160533 angstrom
           Maximum rank =  0   Radius =  0.650 angstrom
                   Q00  =  -0.019879

C          x =  1.357647  y = -1.661559  z = -1.163533 angstrom
           Maximum rank =  0   Radius =  0.650 angstrom
                   Q00  =  -0.015465

C          x =  1.583647  y = -1.451559  z = -2.536533 angstrom
           Maximum rank =  0   Radius =  0.650 angstrom
                   Q00  =  -0.135969

O          x = -0.801353  y =  1.224441  z = -0.386533 angstrom
           Maximum rank =  0   Radius =  0.650 angstrom
                   Q00  =  -0.597827

H          x = -1.145353  y =  1.927441  z = -0.934533 angstrom
           Maximum rank =  0   Radius =  0.325 angstrom
                   Q00  =   0.373105

H          x = -0.230353  y =  1.395441  z = -2.923533 angstrom
           Maximum rank =  0   Radius =  0.325 angstrom
                   Q00  =   0.053959

H          x =  0.395647  y = -0.929559  z =  0.633467 angstrom
           Maximum rank =  0   Radius =  0.325 angstrom
                   Q00  =   0.101172

H          x =  1.170647  y = -0.183559  z = -4.215533 angstrom
           Maximum rank =  0   Radius =  0.325 angstrom
                   Q00  =   0.042954

H          x =  1.806647  y = -2.516559  z = -0.672533 angstrom
           Maximum rank =  0   Radius =  0.325 angstrom
                   Q00  =   0.052051

H          x =  2.829647  y = -3.178559  z = -2.688533 angstrom
           Maximum rank =  0   Radius =  0.325 angstrom
                   Q00  =   0.088216

H          x =  3.405647  y = -1.770559  z = -3.603533 angstrom
           Maximum rank =  0   Radius =  0.325 angstrom
                   Q00  =   0.085906

H          x =  2.041157  y = -2.811439  z = -4.193133 angstrom
           Maximum rank =  0   Radius =  0.325 angstrom
                   Q00  =   0.082365

C          x = -0.429353  y =  1.945441  z =  3.694467 angstrom
           Maximum rank =  0   Radius =  0.650 angstrom
                   Q00  =  -0.288860

C          x = -1.480353  y =  0.902441  z =  3.276467 angstrom
           Maximum rank =  0   Radius =  0.650 angstrom
                   Q00  =   0.975965

O          x = -1.589353  y =  0.655441  z =  2.068467 angstrom
           Maximum rank =  0   Radius =  0.650 angstrom
                   Q00  =  -0.926440

O          x = -2.216353  y =  0.353441  z =  4.122467 angstrom
           Maximum rank =  0   Radius =  0.650 angstrom
                   Q00  =  -0.931308

H          x = -0.666353  y =  2.900441  z =  3.216467 angstrom
           Maximum rank =  0   Radius =  0.325 angstrom
                   Q00  =   0.069512

H          x =  0.553647  y =  1.616441  z =  3.348467 angstrom
           Maximum rank =  0   Radius =  0.325 angstrom
                   Q00  =   0.065753

H          x = -0.350083  y =  2.088401  z =  4.782257 angstrom
           Maximum rank =  0   Radius =  0.325 angstrom
                   Q00  =   0.041546

Total multipoles referred to origin at
           x =   0.000000,  y =    0.000000,  z =    0.000000 angstrom
                   Q00  =  -1.000000

Finished at 7:24:25 on 27 Apr 2020

  DMA results are available in the Python driver through the
	  variable('DMA DISTRIBUTED MULTIPOLES')
  and
	  variable('DMA TOTAL MULTIPOLES')
  commands.

    Psi4 stopped on: Monday, 27 April 2020 07:24AM
    Psi4 wall time for execution: 0:02:42.80

*** Psi4 exiting successfully. Buy a developer a beer!
