                               Psi4 1.3.2 release

  ==> Input File <==

--------------------------------------------------------------------------
import numpy as np
set {scf_type pk
basis cc-pvdz
d_convergence 10
gdma_switch   0
gdma_limit    0
gdma_origin   [ 0.0,  0.0,  0.0 ]
}
molecule test {
    units Angstrom
    0 1
    --
    0 1
    C               -1.786693193684604    -0.389872878341725    -1.367257282636932
    C               -1.568693193684604    -0.622872878341725    -2.862257282636932
    C               -2.130693193684605    -1.670872878341725    -0.631257282636932
    O               -2.496693193684604    -2.671872878341725    -1.243257282636932
    N               -1.999693193684604    -1.658872878341725     0.684742717363068
    H               -0.865693193684604    -0.003872878341725    -0.944257282636932
    H               -2.569693193684604     0.348127121658275    -1.192257282636931
    H               -0.883693193684604    -1.467872878341725    -2.967257282636932
    H               -2.235693193684604    -2.492872878341725     1.201742717363068
    H               -1.667693193684604    -0.829872878341725     1.153742717363068
    H               -1.137777193684604     0.273737121658275    -3.331729282636932
    H               -2.514714693684604    -0.887382878341725    -3.357310282636932
    C                3.023306806315396    -1.290872878341725    -0.277257282636932
    C                0.547306806315396     1.000127121658275     1.343742717363068
    C                1.389306806315396     0.671127121658274     0.249742717363068
    C                2.060306806315396    -0.553872878341725     0.580742717363068
    C                1.604306806315396    -0.921872878341725     1.805742717363068
    C               -0.240693193684604     2.142127121658274     1.358742717363068
    C               -0.192693193684604     2.971127121658274     0.249742717363068
    C                1.420306806315396     1.526127121658275    -0.858257282636932
    C                0.630306806315396     2.671127121658274    -0.848257282636932
    N                0.700306806315396     0.006127121658275     2.271742717363068
    H                0.236306806315396    -0.052872878341725     3.172742717363068
    H               -0.874693193684604     2.371127121658274     2.204742717363068
    H                1.910306806315396    -1.817872878341725     2.338742717363068
    H               -0.800693193684604     3.867127121658274     0.227742717363068
    H                1.997306806315396     1.254127121658275    -1.725257282636932
    H                3.651306806315395    -1.934872878341725     0.341742717363068
    H                3.668306806315396    -0.564872878341725    -0.773257282636932
    H                0.636306806315396     3.336127121658274    -1.703257282636932
    H                2.503878806315396    -1.892542878341725    -1.037647282636932

}
e, wfn = energy('scf', return_wfn=True)
gdma(wfn)
dmavals = variable('DMA DISTRIBUTED MULTIPOLES')
charges = np.array(dmavals)
print(charges)
np.save('SSI-004ASN-009TRP-1-dimer.npy', np.array(charges))--------------------------------------------------------------------------

*** tstart() called on ds3
*** at Mon Apr 27 23:24:47 2020

   => Loading Basis Set <=

    Name: CC-PVDZ
    Role: ORBITAL
    Keyword: BASIS
    atoms 1-3, 13-21  entry C          line   138 file /theoryfs2/ds/metcalf/miniconda2/envs/tf2gpu/share/psi4/basis/cc-pvdz.gbs
    atoms 4           entry O          line   198 file /theoryfs2/ds/metcalf/miniconda2/envs/tf2gpu/share/psi4/basis/cc-pvdz.gbs
    atoms 5, 22       entry N          line   168 file /theoryfs2/ds/metcalf/miniconda2/envs/tf2gpu/share/psi4/basis/cc-pvdz.gbs
    atoms 6-12, 23-31 entry H          line    22 file /theoryfs2/ds/metcalf/miniconda2/envs/tf2gpu/share/psi4/basis/cc-pvdz.gbs

         ---------------------------------------------------------
                                   SCF
               by Justin Turney, Rob Parrish, Andy Simmonett
                          and Daniel G. A. Smith
                              RHF Reference
                        1 Threads,    500 MiB Core
         ---------------------------------------------------------

  ==> Geometry <==

    Molecular point group: c1
    Full point group: C1

    Geometry (in Angstrom), charge = 0, multiplicity = 1:

       Center              X                  Y                   Z               Mass
    ------------   -----------------  -----------------  -----------------  -----------------
         C           -1.786693193685    -0.389872878342    -1.367257282637    12.000000000000
         C           -1.568693193685    -0.622872878342    -2.862257282637    12.000000000000
         C           -2.130693193685    -1.670872878342    -0.631257282637    12.000000000000
         O           -2.496693193685    -2.671872878342    -1.243257282637    15.994914619570
         N           -1.999693193685    -1.658872878342     0.684742717363    14.003074004430
         H           -0.865693193685    -0.003872878342    -0.944257282637     1.007825032230
         H           -2.569693193685     0.348127121658    -1.192257282637     1.007825032230
         H           -0.883693193685    -1.467872878342    -2.967257282637     1.007825032230
         H           -2.235693193685    -2.492872878342     1.201742717363     1.007825032230
         H           -1.667693193685    -0.829872878342     1.153742717363     1.007825032230
         H           -1.137777193685     0.273737121658    -3.331729282637     1.007825032230
         H           -2.514714693685    -0.887382878342    -3.357310282637     1.007825032230
         C            3.023306806315    -1.290872878342    -0.277257282637    12.000000000000
         C            0.547306806315     1.000127121658     1.343742717363    12.000000000000
         C            1.389306806315     0.671127121658     0.249742717363    12.000000000000
         C            2.060306806315    -0.553872878342     0.580742717363    12.000000000000
         C            1.604306806315    -0.921872878342     1.805742717363    12.000000000000
         C           -0.240693193685     2.142127121658     1.358742717363    12.000000000000
         C           -0.192693193685     2.971127121658     0.249742717363    12.000000000000
         C            1.420306806315     1.526127121658    -0.858257282637    12.000000000000
         C            0.630306806315     2.671127121658    -0.848257282637    12.000000000000
         N            0.700306806315     0.006127121658     2.271742717363    14.003074004430
         H            0.236306806315    -0.052872878342     3.172742717363     1.007825032230
         H           -0.874693193685     2.371127121658     2.204742717363     1.007825032230
         H            1.910306806315    -1.817872878342     2.338742717363     1.007825032230
         H           -0.800693193685     3.867127121658     0.227742717363     1.007825032230
         H            1.997306806315     1.254127121658    -1.725257282637     1.007825032230
         H            3.651306806315    -1.934872878342     0.341742717363     1.007825032230
         H            3.668306806315    -0.564872878342    -0.773257282637     1.007825032230
         H            0.636306806315     3.336127121658    -1.703257282637     1.007825032230
         H            2.503878806315    -1.892542878342    -1.037647282637     1.007825032230

  Running in c1 symmetry.

  Rotational constants: A =      0.02323  B =      0.01488  C =      0.01307 [cm^-1]
  Rotational constants: A =    696.44832  B =    446.16522  C =    391.89106 [MHz]
  Nuclear repulsion =  978.287194525134169

  Charge       = 0
  Multiplicity = 1
  Electrons    = 110
  Nalpha       = 55
  Nbeta        = 55

  ==> Algorithm <==

  SCF Algorithm Type is PK.
  DIIS enabled.
  MOM disabled.
  Fractional occupation disabled.
  Guess Type is SAD.
  Energy threshold   = 1.00e-06
  Density threshold  = 1.00e-10
  Integral threshold = 0.00e+00

  ==> Primary Basis <==

  Basis Set: CC-PVDZ
    Blend: CC-PVDZ
    Number of shells: 138
    Number of basis function: 290
    Number of Cartesian functions: 305
    Spherical Harmonics?: true
    Max angular momentum: 2

  ==> Pre-Iterations <==

   -------------------------------------------------------
    Irrep   Nso     Nmo     Nalpha   Nbeta   Ndocc  Nsocc
   -------------------------------------------------------
     A        290     290       0       0       0       0
   -------------------------------------------------------
    Total     290     290      55      55      55       0
   -------------------------------------------------------

  ==> Integral Setup <==

  Using integral reordering PK algorithm.
  Sizing the integral batches needed.
  Building batch lookup table.
   Calculation information:
      Number of atoms:                  31
      Number of AO shells:             138
      Number of primitives:            410
      Number of atomic orbitals:       305
      Number of basis functions:       290

      Integral cutoff                 1.00e-12
      Number of threads:                 1

	Batch   1 pq = [       0,    9405] index = [             0,44231715] size =     44231715
	Batch   2 pq = [    9405,   13301] index = [      44231715,88464951] size =     44233236
	Batch   3 pq = [   13301,   16290] index = [      88464951,132690195] size =     44225244
	Batch   4 pq = [   16290,   18810] index = [     132690195,176917455] size =     44227260
	Batch   5 pq = [   18810,   21030] index = [     176917455,221140965] size =     44223510
	Batch   6 pq = [   21030,   23037] index = [     221140965,265363203] size =     44222238
	Batch   7 pq = [   23037,   24883] index = [     265363203,309594286] size =     44231083
	Batch   8 pq = [   24883,   26601] index = [     309594286,353819901] size =     44225615
	Batch   9 pq = [   26601,   28214] index = [     353819901,398029005] size =     44209104
	Batch  10 pq = [   28214,   29740] index = [     398029005,442248670] size =     44219665
	Batch  11 pq = [   29740,   31191] index = [     442248670,486454836] size =     44206166
	Batch  12 pq = [   31191,   32578] index = [     486454836,530679331] size =     44224495
	Batch  13 pq = [   32578,   33908] index = [     530679331,574893186] size =     44213855
	Batch  14 pq = [   33908,   35188] index = [     574893186,619115266] size =     44222080
	Batch  15 pq = [   35188,   36423] index = [     619115266,663335676] size =     44220410
	Batch  16 pq = [   36423,   37617] index = [     663335676,707538153] size =     44202477
	Batch  17 pq = [   37617,   38775] index = [     707538153,751769700] size =     44231547
	Batch  18 pq = [   38775,   39899] index = [     751769700,795985050] size =     44215350
	Batch  19 pq = [   39899,   40992] index = [     795985050,840192528] size =     44207478
	Batch  20 pq = [   40992,   42057] index = [     840192528,884416653] size =     44224125
	Batch  21 pq = [   42057,   42195] index = [     884416653,890230110] size =      5813457
  Task number: 81
  Buffer size: 11059200
  Buffer per thread: 2
  We computed 54558642 shell quartets total.
  Whereas there are 45998436 unique shell quartets.
    18.61 percent of shell quartets recomputed by reordering.

  ==> DiskJK: Disk-Based J/K Matrices <==

    J tasked:                  Yes
    K tasked:                  Yes
    wK tasked:                  No
    Memory [MiB]:              375
    Schwarz Cutoff:          1E-12

    OpenMP threads:              1

  Minimum eigenvalue in the overlap matrix is 2.3838292774E-04.
  Using Symmetric Orthogonalization.

  SCF Guess: Superposition of Atomic Densities via on-the-fly atomic UHF.

  ==> Iterations <==

                        Total Energy        Delta E     RMS |[F,P]|

   @RHF iter SAD:  -646.70415314642435   -6.46704e+02   0.00000e+00
   @RHF iter   1:  -647.19212039730451   -4.87967e-01   2.69972e-03 DIIS
   @RHF iter   2:  -647.48777218772625   -2.95652e-01   1.42939e-03 DIIS
   @RHF iter   3:  -647.56068804921756   -7.29159e-02   3.46466e-04 DIIS
   @RHF iter   4:  -647.56667919088386   -5.99114e-03   1.37787e-04 DIIS
   @RHF iter   5:  -647.56763301048511   -9.53820e-04   2.13491e-05 DIIS
   @RHF iter   6:  -647.56768511070186   -5.21002e-05   1.05099e-05 DIIS
   @RHF iter   7:  -647.56769561863359   -1.05079e-05   4.48413e-06 DIIS
   @RHF iter   8:  -647.56769817425629   -2.55562e-06   1.69038e-06 DIIS
   @RHF iter   9:  -647.56769860816928   -4.33913e-07   7.39632e-07 DIIS
   @RHF iter  10:  -647.56769869118739   -8.30181e-08   3.09055e-07 DIIS
   @RHF iter  11:  -647.56769871176448   -2.05771e-08   1.37377e-07 DIIS
   @RHF iter  12:  -647.56769871595372   -4.18925e-09   6.69461e-08 DIIS
   @RHF iter  13:  -647.56769871676659   -8.12861e-10   2.32556e-08 DIIS
   @RHF iter  14:  -647.56769871686890   -1.02318e-10   9.05688e-09 DIIS
   @RHF iter  15:  -647.56769871688175   -1.28466e-11   3.24778e-09 DIIS
   @RHF iter  16:  -647.56769871688357   -1.81899e-12   1.39652e-09 DIIS
   @RHF iter  17:  -647.56769871688664   -3.06954e-12   6.18028e-10 DIIS
   @RHF iter  18:  -647.56769871688630    3.41061e-13   2.27223e-10 DIIS
   @RHF iter  19:  -647.56769871688266    3.63798e-12   1.06472e-10 DIIS
   @RHF iter  20:  -647.56769871688994   -7.27596e-12   4.64653e-11 DIIS
  Energy and wave function converged.

  ==> Post-Iterations <==

    Orbital Energies [Eh]
    ---------------------

    Doubly Occupied:

       1A    -20.491378     2A    -15.616213     3A    -15.575438
       4A    -11.329667     5A    -11.278174     6A    -11.274697
       7A    -11.244974     8A    -11.243186     9A    -11.242790
      10A    -11.234777    11A    -11.233053    12A    -11.232826
      13A    -11.227644    14A    -11.219768    15A    -11.209246
      16A     -1.355944    17A     -1.310241    18A     -1.204824
      19A     -1.142490    20A     -1.087699    21A     -1.030552
      22A     -1.011227    23A     -1.000291    24A     -0.942355
      25A     -0.873294    26A     -0.852891    27A     -0.817289
      28A     -0.770524    29A     -0.764520    30A     -0.732837
      31A     -0.711020    32A     -0.675526    33A     -0.654189
      34A     -0.651676    35A     -0.622481    36A     -0.615900
      37A     -0.604306    38A     -0.603867    39A     -0.579283
      40A     -0.573761    41A     -0.561780    42A     -0.548822
      43A     -0.538002    44A     -0.536285    45A     -0.506273
      46A     -0.505548    47A     -0.492811    48A     -0.484153
      49A     -0.480717    50A     -0.466312    51A     -0.396015
      52A     -0.392058    53A     -0.385401    54A     -0.309869
      55A     -0.288159

    Virtual:

      56A      0.111913    57A      0.154055    58A      0.156802
      59A      0.172775    60A      0.190796    61A      0.200745
      62A      0.209921    63A      0.211847    64A      0.217028
      65A      0.217754    66A      0.236613    67A      0.249176
      68A      0.253868    69A      0.257966    70A      0.270443
      71A      0.281586    72A      0.288367    73A      0.295846
      74A      0.316105    75A      0.336029    76A      0.366220
      77A      0.369912    78A      0.396991    79A      0.400629
      80A      0.408676    81A      0.426951    82A      0.434396
      83A      0.460961    84A      0.467959    85A      0.483123
      86A      0.492283    87A      0.515483    88A      0.542717
      89A      0.580701    90A      0.602619    91A      0.618290
      92A      0.625783    93A      0.627325    94A      0.632038
      95A      0.656834    96A      0.668219    97A      0.690577
      98A      0.692890    99A      0.699430   100A      0.707075
     101A      0.716405   102A      0.723650   103A      0.730723
     104A      0.742376   105A      0.746194   106A      0.758366
     107A      0.766019   108A      0.769059   109A      0.775478
     110A      0.792626   111A      0.806158   112A      0.822847
     113A      0.826789   114A      0.835343   115A      0.852145
     116A      0.860560   117A      0.867109   118A      0.871454
     119A      0.876237   120A      0.883259   121A      0.887324
     122A      0.890902   123A      0.903169   124A      0.911302
     125A      0.915241   126A      0.924617   127A      0.937920
     128A      0.940350   129A      0.945249   130A      0.947132
     131A      0.957071   132A      0.964551   133A      0.981856
     134A      0.995579   135A      1.004770   136A      1.016633
     137A      1.033012   138A      1.053300   139A      1.064020
     140A      1.082280   141A      1.109652   142A      1.118209
     143A      1.121245   144A      1.127970   145A      1.130068
     146A      1.145599   147A      1.150467   148A      1.175827
     149A      1.201395   150A      1.216397   151A      1.221833
     152A      1.227906   153A      1.242838   154A      1.254505
     155A      1.269944   156A      1.286764   157A      1.287809
     158A      1.313868   159A      1.317459   160A      1.327161
     161A      1.342625   162A      1.355261   163A      1.359209
     164A      1.391859   165A      1.399340   166A      1.409426
     167A      1.431324   168A      1.434259   169A      1.476078
     170A      1.488908   171A      1.511034   172A      1.531198
     173A      1.559292   174A      1.567831   175A      1.592703
     176A      1.616618   177A      1.628334   178A      1.636672
     179A      1.644805   180A      1.673540   181A      1.686088
     182A      1.694837   183A      1.700430   184A      1.729999
     185A      1.741963   186A      1.757496   187A      1.763284
     188A      1.778179   189A      1.785591   190A      1.802967
     191A      1.818417   192A      1.827805   193A      1.836950
     194A      1.848052   195A      1.874342   196A      1.883497
     197A      1.891609   198A      1.898963   199A      1.901905
     200A      1.905967   201A      1.916498   202A      1.931210
     203A      1.936364   204A      1.940807   205A      1.955775
     206A      1.966876   207A      1.969643   208A      1.985269
     209A      1.991654   210A      2.000964   211A      2.011205
     212A      2.013285   213A      2.017031   214A      2.027004
     215A      2.049125   216A      2.057492   217A      2.066161
     218A      2.083356   219A      2.088903   220A      2.095324
     221A      2.097505   222A      2.109300   223A      2.124480
     224A      2.135372   225A      2.150774   226A      2.152591
     227A      2.165309   228A      2.179062   229A      2.194964
     230A      2.215312   231A      2.242656   232A      2.250481
     233A      2.282007   234A      2.292243   235A      2.301627
     236A      2.315986   237A      2.323115   238A      2.335327
     239A      2.351378   240A      2.376633   241A      2.404562
     242A      2.417107   243A      2.439264   244A      2.445274
     245A      2.451112   246A      2.495135   247A      2.532533
     248A      2.553506   249A      2.573732   250A      2.592834
     251A      2.595174   252A      2.609831   253A      2.630040
     254A      2.636968   255A      2.662591   256A      2.672726
     257A      2.687725   258A      2.693565   259A      2.755212
     260A      2.764773   261A      2.767541   262A      2.775648
     263A      2.785770   264A      2.791377   265A      2.819282
     266A      2.854177   267A      2.862967   268A      2.868805
     269A      2.896119   270A      2.901235   271A      2.921248
     272A      2.967321   273A      3.006435   274A      3.027934
     275A      3.041481   276A      3.056410   277A      3.068637
     278A      3.114038   279A      3.119668   280A      3.176369
     281A      3.192996   282A      3.297243   283A      3.337403
     284A      3.372785   285A      3.528846   286A      3.549247
     287A      3.734272   288A      3.878705   289A      3.919942
     290A      3.937862

    Final Occupation by Irrep:
              A
    DOCC [    55 ]

  @RHF Final Energy:  -647.56769871688994

   => Energetics <=

    Nuclear Repulsion Energy =            978.2871945251341685
    One-Electron Energy =               -2822.2397409452805732
    Two-Electron Energy =                1196.3848477032565825
    Total Energy =                       -647.5676987168899359

Computation Completed

Properties will be evaluated at   0.000000,   0.000000,   0.000000 [a0]

Properties computed using the SCF density matrix

  Nuclear Dipole Moment: [e a0]
     X:     0.9793      Y:    -0.4717      Z:    -6.0060

  Electronic Dipole Moment: [e a0]
     X:    -0.3903      Y:     1.3264      Z:     7.7531

  Dipole Moment: [e a0]
     X:     0.5890      Y:     0.8548      Z:     1.7471     Total:     2.0322

  Dipole Moment: [D]
     X:     1.4971      Y:     2.1726      Z:     4.4407     Total:     5.1654

*** tstop() called on ds3 at Mon Apr 27 23:36:31 2020
Module time:
	user time   =     526.14 seconds =       8.77 minutes
	system time =     185.87 seconds =       3.10 minutes
	total time  =        704 seconds =      11.73 minutes
Total time:
	user time   =     526.14 seconds =       8.77 minutes
	system time =     185.87 seconds =       3.10 minutes
	total time  =        704 seconds =      11.73 minutes
                                     G D M A

                                 by Anthony Stone

                           version 2.2.06, 22 June 2011

               Distributed Multipoles from Gaussian wavefunctions

Starting at 23:36:31 on 27 Apr 2020

Using SCF density matrix from file ./SSI/SSI-004ASN-009TRP-1-dimer.test.2706.fchk

                         Distributed Multipole Analysis

Standard DMA

Positions and radii in angstrom
Multipole moments in atomic units, ea_0^k for rank k

C          x = -1.786693  y = -0.389873  z = -1.367257 angstrom
           Maximum rank =  0   Radius =  0.650 angstrom
                   Q00  =  -0.165182

C          x = -1.568693  y = -0.622873  z = -2.862257 angstrom
           Maximum rank =  0   Radius =  0.650 angstrom
                   Q00  =  -0.215865

C          x = -2.130693  y = -1.670873  z = -0.631257 angstrom
           Maximum rank =  0   Radius =  0.650 angstrom
                   Q00  =   0.874371

O          x = -2.496693  y = -2.671873  z = -1.243257 angstrom
           Maximum rank =  0   Radius =  0.650 angstrom
                   Q00  =  -0.826246

N          x = -1.999693  y = -1.658873  z =  0.684743 angstrom
           Maximum rank =  0   Radius =  0.650 angstrom
                   Q00  =  -0.552233

H          x = -0.865693  y = -0.003873  z = -0.944257 angstrom
           Maximum rank =  0   Radius =  0.325 angstrom
                   Q00  =   0.088665

H          x = -2.569693  y =  0.348127  z = -1.192257 angstrom
           Maximum rank =  0   Radius =  0.325 angstrom
                   Q00  =   0.097685

H          x = -0.883693  y = -1.467873  z = -2.967257 angstrom
           Maximum rank =  0   Radius =  0.325 angstrom
                   Q00  =   0.095444

H          x = -2.235693  y = -2.492873  z =  1.201743 angstrom
           Maximum rank =  0   Radius =  0.325 angstrom
                   Q00  =   0.210616

H          x = -1.667693  y = -0.829873  z =  1.153743 angstrom
           Maximum rank =  0   Radius =  0.325 angstrom
                   Q00  =   0.205562

H          x = -1.137777  y =  0.273737  z = -3.331729 angstrom
           Maximum rank =  0   Radius =  0.325 angstrom
                   Q00  =   0.074130

H          x = -2.514715  y = -0.887383  z = -3.357310 angstrom
           Maximum rank =  0   Radius =  0.325 angstrom
                   Q00  =   0.100703

C          x =  3.023307  y = -1.290873  z = -0.277257 angstrom
           Maximum rank =  0   Radius =  0.650 angstrom
                   Q00  =  -0.208906

C          x =  0.547307  y =  1.000127  z =  1.343743 angstrom
           Maximum rank =  0   Radius =  0.650 angstrom
                   Q00  =   0.251804

C          x =  1.389307  y =  0.671127  z =  0.249743 angstrom
           Maximum rank =  0   Radius =  0.650 angstrom
                   Q00  =  -0.064444

C          x =  2.060307  y = -0.553873  z =  0.580743 angstrom
           Maximum rank =  0   Radius =  0.650 angstrom
                   Q00  =  -0.107238

C          x =  1.604307  y = -0.921873  z =  1.805743 angstrom
           Maximum rank =  0   Radius =  0.650 angstrom
                   Q00  =   0.058462

C          x = -0.240693  y =  2.142127  z =  1.358743 angstrom
           Maximum rank =  0   Radius =  0.650 angstrom
                   Q00  =  -0.121936

C          x = -0.192693  y =  2.971127  z =  0.249743 angstrom
           Maximum rank =  0   Radius =  0.650 angstrom
                   Q00  =  -0.027982

C          x =  1.420307  y =  1.526127  z = -0.858257 angstrom
           Maximum rank =  0   Radius =  0.650 angstrom
                   Q00  =  -0.098520

C          x =  0.630307  y =  2.671127  z = -0.848257 angstrom
           Maximum rank =  0   Radius =  0.650 angstrom
                   Q00  =  -0.104360

N          x =  0.700307  y =  0.006127  z =  2.271743 angstrom
           Maximum rank =  0   Radius =  0.650 angstrom
                   Q00  =  -0.488754

H          x =  0.236307  y = -0.052873  z =  3.172743 angstrom
           Maximum rank =  0   Radius =  0.325 angstrom
                   Q00  =   0.218240

H          x = -0.874693  y =  2.371127  z =  2.204743 angstrom
           Maximum rank =  0   Radius =  0.325 angstrom
                   Q00  =   0.072774

H          x =  1.910307  y = -1.817873  z =  2.338743 angstrom
           Maximum rank =  0   Radius =  0.325 angstrom
                   Q00  =   0.104756

H          x = -0.800693  y =  3.867127  z =  0.227743 angstrom
           Maximum rank =  0   Radius =  0.325 angstrom
                   Q00  =   0.070311

H          x =  1.997307  y =  1.254127  z = -1.725257 angstrom
           Maximum rank =  0   Radius =  0.325 angstrom
                   Q00  =   0.077467

H          x =  3.651307  y = -1.934873  z =  0.341743 angstrom
           Maximum rank =  0   Radius =  0.325 angstrom
                   Q00  =   0.107516

H          x =  3.668307  y = -0.564873  z = -0.773257 angstrom
           Maximum rank =  0   Radius =  0.325 angstrom
                   Q00  =   0.102259

H          x =  0.636307  y =  3.336127  z = -1.703257 angstrom
           Maximum rank =  0   Radius =  0.325 angstrom
                   Q00  =   0.066605

H          x =  2.503879  y = -1.892543  z = -1.037647 angstrom
           Maximum rank =  0   Radius =  0.325 angstrom
                   Q00  =   0.104293

Total multipoles referred to origin at
           x =   0.000000,  y =    0.000000,  z =    0.000000 angstrom
                   Q00  =  -0.000000

Finished at 23:36:31 on 27 Apr 2020

  DMA results are available in the Python driver through the
	  variable('DMA DISTRIBUTED MULTIPOLES')
  and
	  variable('DMA TOTAL MULTIPOLES')
  commands.

    Psi4 stopped on: Monday, 27 April 2020 11:36PM
    Psi4 wall time for execution: 0:11:44.12

*** Psi4 exiting successfully. Buy a developer a beer!
