                               Psi4 1.3.2 release

  ==> Input File <==

--------------------------------------------------------------------------
import numpy as np
set {scf_type pk
basis cc-pvdz
d_convergence 10
gdma_switch   0
gdma_limit    0
gdma_origin   [ 0.0,  0.0,  0.0 ]
}
molecule test {
    units Angstrom
    0 1
    --
    0 1
    C                5.014985766506505     0.394172136783459    -1.804371969148929
    C                0.782985766506505     0.697172136783459    -1.035371969148929
    C                1.241985766506505     0.417172136783459    -2.322371969148929
    C                1.695985766506505     0.881172136783459     0.001628030851071
    C                2.614985766506504     0.325172136783459    -2.570371969148929
    C                3.064985766506505     0.784172136783459    -0.250371969148929
    C                3.536985766506505     0.509172136783459    -1.538371969148929
    H               -0.279014233493495     0.771172136783459    -0.841371969148929
    H                0.534985766506505     0.269172136783459    -3.127371969148929
    H                1.329985766506505     1.076172136783459     0.997628030851071
    H                2.959985766506505     0.106172136783459    -3.569371969148929
    H                3.730985766506504     0.887172136783459     0.590628030851071
    H                5.226985766506505     0.583172136783459    -2.853371969148930
    H                5.298985766506505    -0.640827863216541    -1.605371969148929
    H                5.632405766506505     1.045422136783459    -1.168241969148929
    C                0.019985766506505    -1.538827863216541     2.752628030851071
    C               -2.424014233493495    -0.971827863216541    -0.116371969148929
    C               -3.280014233493496    -0.011827863216541     0.418628030851071
    C               -1.344014233493495    -1.437827863216541     0.634628030851071
    C               -1.104014233493495    -0.956827863216541     1.925628030851071
    C               -3.051014233493496     0.485172136783459     1.703628030851071
    C               -1.964014233493495     0.011172136783459     2.450628030851071
    O               -4.344014233493494     0.418172136783459    -0.318371969148929
    H               -2.603014233493496    -1.355827863216541    -1.109371969148929
    H               -0.689014233493495    -2.188827863216541     0.212628030851071
    H               -3.712014233493496     1.232172136783459     2.114628030851071
    H               -4.857014233493494     1.108172136783459     0.169628030851071
    H                0.260985766506505    -0.879827863216541     3.587628030851071
    H                0.901985766506505    -1.602827863216541     2.117628030851071
    H               -1.785014233493495     0.408172136783459     3.437628030851070
    H               -0.231394233493495    -2.542887863216541     3.125008030851071

}
e, wfn = energy('scf', return_wfn=True)
gdma(wfn)
dmavals = variable('DMA DISTRIBUTED MULTIPOLES')
charges = np.array(dmavals)
print(charges)
np.save('SSI-126PHE-171TYR-1-dimer.npy', np.array(charges))--------------------------------------------------------------------------

*** tstart() called on ds3
*** at Mon Apr 27 07:01:07 2020

   => Loading Basis Set <=

    Name: CC-PVDZ
    Role: ORBITAL
    Keyword: BASIS
    atoms 1-7, 16-22  entry C          line   138 file /theoryfs2/ds/metcalf/miniconda2/envs/tf2gpu/share/psi4/basis/cc-pvdz.gbs
    atoms 8-15, 24-31 entry H          line    22 file /theoryfs2/ds/metcalf/miniconda2/envs/tf2gpu/share/psi4/basis/cc-pvdz.gbs
    atoms 23          entry O          line   198 file /theoryfs2/ds/metcalf/miniconda2/envs/tf2gpu/share/psi4/basis/cc-pvdz.gbs

         ---------------------------------------------------------
                                   SCF
               by Justin Turney, Rob Parrish, Andy Simmonett
                          and Daniel G. A. Smith
                              RHF Reference
                        1 Threads,    500 MiB Core
         ---------------------------------------------------------

  ==> Geometry <==

    Molecular point group: c1
    Full point group: C1

    Geometry (in Angstrom), charge = 0, multiplicity = 1:

       Center              X                  Y                   Z               Mass
    ------------   -----------------  -----------------  -----------------  -----------------
         C            5.014985766507     0.394172136783    -1.804371969149    12.000000000000
         C            0.782985766507     0.697172136783    -1.035371969149    12.000000000000
         C            1.241985766507     0.417172136783    -2.322371969149    12.000000000000
         C            1.695985766507     0.881172136783     0.001628030851    12.000000000000
         C            2.614985766507     0.325172136783    -2.570371969149    12.000000000000
         C            3.064985766507     0.784172136783    -0.250371969149    12.000000000000
         C            3.536985766507     0.509172136783    -1.538371969149    12.000000000000
         H           -0.279014233493     0.771172136783    -0.841371969149     1.007825032230
         H            0.534985766507     0.269172136783    -3.127371969149     1.007825032230
         H            1.329985766507     1.076172136783     0.997628030851     1.007825032230
         H            2.959985766507     0.106172136783    -3.569371969149     1.007825032230
         H            3.730985766507     0.887172136783     0.590628030851     1.007825032230
         H            5.226985766507     0.583172136783    -2.853371969149     1.007825032230
         H            5.298985766507    -0.640827863217    -1.605371969149     1.007825032230
         H            5.632405766507     1.045422136783    -1.168241969149     1.007825032230
         C            0.019985766507    -1.538827863217     2.752628030851    12.000000000000
         C           -2.424014233493    -0.971827863217    -0.116371969149    12.000000000000
         C           -3.280014233493    -0.011827863217     0.418628030851    12.000000000000
         C           -1.344014233493    -1.437827863217     0.634628030851    12.000000000000
         C           -1.104014233493    -0.956827863217     1.925628030851    12.000000000000
         C           -3.051014233493     0.485172136783     1.703628030851    12.000000000000
         C           -1.964014233493     0.011172136783     2.450628030851    12.000000000000
         O           -4.344014233493     0.418172136783    -0.318371969149    15.994914619570
         H           -2.603014233493    -1.355827863217    -1.109371969149     1.007825032230
         H           -0.689014233493    -2.188827863217     0.212628030851     1.007825032230
         H           -3.712014233493     1.232172136783     2.114628030851     1.007825032230
         H           -4.857014233493     1.108172136783     0.169628030851     1.007825032230
         H            0.260985766507    -0.879827863217     3.587628030851     1.007825032230
         H            0.901985766507    -1.602827863217     2.117628030851     1.007825032230
         H           -1.785014233493     0.408172136783     3.437628030851     1.007825032230
         H           -0.231394233493    -2.542887863217     3.125008030851     1.007825032230

  Running in c1 symmetry.

  Rotational constants: A =      0.03612  B =      0.00893  C =      0.00779 [cm^-1]
  Rotational constants: A =   1082.82855  B =    267.71028  C =    233.60609 [MHz]
  Nuclear repulsion =  883.296363346831754

  Charge       = 0
  Multiplicity = 1
  Electrons    = 108
  Nalpha       = 54
  Nbeta        = 54

  ==> Algorithm <==

  SCF Algorithm Type is PK.
  DIIS enabled.
  MOM disabled.
  Fractional occupation disabled.
  Guess Type is SAD.
  Energy threshold   = 1.00e-06
  Density threshold  = 1.00e-10
  Integral threshold = 0.00e+00

  ==> Primary Basis <==

  Basis Set: CC-PVDZ
    Blend: CC-PVDZ
    Number of shells: 138
    Number of basis function: 290
    Number of Cartesian functions: 305
    Spherical Harmonics?: true
    Max angular momentum: 2

  ==> Pre-Iterations <==

   -------------------------------------------------------
    Irrep   Nso     Nmo     Nalpha   Nbeta   Ndocc  Nsocc
   -------------------------------------------------------
     A        290     290       0       0       0       0
   -------------------------------------------------------
    Total     290     290      54      54      54       0
   -------------------------------------------------------

  ==> Integral Setup <==

  Using integral reordering PK algorithm.
  Sizing the integral batches needed.
  Building batch lookup table.
   Calculation information:
      Number of atoms:                  31
      Number of AO shells:             138
      Number of primitives:            410
      Number of atomic orbitals:       305
      Number of basis functions:       290

      Integral cutoff                 1.00e-12
      Number of threads:                 1

	Batch   1 pq = [       0,    9405] index = [             0,44231715] size =     44231715
	Batch   2 pq = [    9405,   13301] index = [      44231715,88464951] size =     44233236
	Batch   3 pq = [   13301,   16290] index = [      88464951,132690195] size =     44225244
	Batch   4 pq = [   16290,   18810] index = [     132690195,176917455] size =     44227260
	Batch   5 pq = [   18810,   21030] index = [     176917455,221140965] size =     44223510
	Batch   6 pq = [   21030,   23037] index = [     221140965,265363203] size =     44222238
	Batch   7 pq = [   23037,   24883] index = [     265363203,309594286] size =     44231083
	Batch   8 pq = [   24883,   26601] index = [     309594286,353819901] size =     44225615
	Batch   9 pq = [   26601,   28214] index = [     353819901,398029005] size =     44209104
	Batch  10 pq = [   28214,   29740] index = [     398029005,442248670] size =     44219665
	Batch  11 pq = [   29740,   31191] index = [     442248670,486454836] size =     44206166
	Batch  12 pq = [   31191,   32578] index = [     486454836,530679331] size =     44224495
	Batch  13 pq = [   32578,   33908] index = [     530679331,574893186] size =     44213855
	Batch  14 pq = [   33908,   35188] index = [     574893186,619115266] size =     44222080
	Batch  15 pq = [   35188,   36423] index = [     619115266,663335676] size =     44220410
	Batch  16 pq = [   36423,   37617] index = [     663335676,707538153] size =     44202477
	Batch  17 pq = [   37617,   38775] index = [     707538153,751769700] size =     44231547
	Batch  18 pq = [   38775,   39899] index = [     751769700,795985050] size =     44215350
	Batch  19 pq = [   39899,   40992] index = [     795985050,840192528] size =     44207478
	Batch  20 pq = [   40992,   42057] index = [     840192528,884416653] size =     44224125
	Batch  21 pq = [   42057,   42195] index = [     884416653,890230110] size =      5813457
  Task number: 81
  Buffer size: 11059200
  Buffer per thread: 2
  We computed 42971255 shell quartets total.
  Whereas there are 45998436 unique shell quartets.

  ==> DiskJK: Disk-Based J/K Matrices <==

    J tasked:                  Yes
    K tasked:                  Yes
    wK tasked:                  No
    Memory [MiB]:              375
    Schwarz Cutoff:          1E-12

    OpenMP threads:              1

  Minimum eigenvalue in the overlap matrix is 3.0542179531E-04.
  Using Symmetric Orthogonalization.

  SCF Guess: Superposition of Atomic Densities via on-the-fly atomic UHF.

  ==> Iterations <==

                        Total Energy        Delta E     RMS |[F,P]|

   @RHF iter SAD:  -613.09988563973661   -6.13100e+02   0.00000e+00
   @RHF iter   1:  -614.06223938018388   -9.62354e-01   2.36028e-03 DIIS
   @RHF iter   2:  -614.33646454505640   -2.74225e-01   9.78355e-04 DIIS
   @RHF iter   3:  -614.37745390121961   -4.09894e-02   2.36393e-04 DIIS
   @RHF iter   4:  -614.38106278531916   -3.60888e-03   9.44665e-05 DIIS
   @RHF iter   5:  -614.38149970976792   -4.36924e-04   1.74338e-05 DIIS
   @RHF iter   6:  -614.38152204764310   -2.23379e-05   6.05238e-06 DIIS
   @RHF iter   7:  -614.38152474962408   -2.70198e-06   1.85379e-06 DIIS
   @RHF iter   8:  -614.38152514021056   -3.90586e-07   7.53883e-07 DIIS
   @RHF iter   9:  -614.38152521484483   -7.46343e-08   3.29631e-07 DIIS
   @RHF iter  10:  -614.38152523193037   -1.70855e-08   1.43861e-07 DIIS
   @RHF iter  11:  -614.38152523738177   -5.45140e-09   5.91290e-08 DIIS
   @RHF iter  12:  -614.38152523815813   -7.76367e-10   2.65728e-08 DIIS
   @RHF iter  13:  -614.38152523827114   -1.13005e-10   7.18149e-09 DIIS
   @RHF iter  14:  -614.38152523827864   -7.50333e-12   2.26358e-09 DIIS
   @RHF iter  15:  -614.38152523828137   -2.72848e-12   8.23058e-10 DIIS
   @RHF iter  16:  -614.38152523827910    2.27374e-12   3.89200e-10 DIIS
   @RHF iter  17:  -614.38152523827887    2.27374e-13   1.93958e-10 DIIS
   @RHF iter  18:  -614.38152523828126   -2.38742e-12   8.14392e-11 DIIS
  Energy and wave function converged.

  ==> Post-Iterations <==

    Orbital Energies [Eh]
    ---------------------

    Doubly Occupied:

       1A    -20.587043     2A    -11.301134     3A    -11.241334
       4A    -11.238434     5A    -11.238188     6A    -11.235289
       7A    -11.234195     8A    -11.230735     9A    -11.230651
      10A    -11.229030    11A    -11.227449    12A    -11.227033
      13A    -11.226890    14A    -11.226408    15A    -11.222795
      16A     -1.395984    17A     -1.148627    18A     -1.145045
      19A     -1.038438    20A     -1.035737    21A     -1.016478
      22A     -1.005139    23A     -0.926826    24A     -0.924691
      25A     -0.844327    26A     -0.818532    27A     -0.799785
      28A     -0.790014    29A     -0.727283    30A     -0.684114
      31A     -0.667007    32A     -0.641286    33A     -0.627592
      34A     -0.623975    35A     -0.605314    36A     -0.587140
      37A     -0.586217    38A     -0.577703    39A     -0.570890
      40A     -0.570837    41A     -0.566735    42A     -0.556414
      43A     -0.535314    44A     -0.527217    45A     -0.496338
      46A     -0.485493    47A     -0.481094    48A     -0.480092
      49A     -0.476824    50A     -0.463192    51A     -0.339018
      52A     -0.326660    53A     -0.313845    54A     -0.301311

    Virtual:

      55A      0.125429    56A      0.139666    57A      0.146114
      58A      0.157590    59A      0.175459    60A      0.179511
      61A      0.193621    62A      0.205079    63A      0.214991
      64A      0.225615    65A      0.231865    66A      0.252135
      67A      0.259853    68A      0.266168    69A      0.267533
      70A      0.275456    71A      0.285643    72A      0.289886
      73A      0.296693    74A      0.299921    75A      0.365443
      76A      0.369349    77A      0.376465    78A      0.379097
      79A      0.427399    80A      0.449769    81A      0.460076
      82A      0.467353    83A      0.476172    84A      0.480888
      85A      0.494067    86A      0.495134    87A      0.513904
      88A      0.562056    89A      0.597743    90A      0.609277
      91A      0.629507    92A      0.633739    93A      0.644562
      94A      0.656051    95A      0.668943    96A      0.688529
      97A      0.695159    98A      0.696849    99A      0.702735
     100A      0.712662   101A      0.725363   102A      0.728736
     103A      0.730531   104A      0.733496   105A      0.740913
     106A      0.746868   107A      0.751069   108A      0.761208
     109A      0.764383   110A      0.772730   111A      0.780141
     112A      0.786459   113A      0.794234   114A      0.800467
     115A      0.827535   116A      0.839824   117A      0.844621
     118A      0.848936   119A      0.861259   120A      0.870240
     121A      0.875177   122A      0.881973   123A      0.887742
     124A      0.890296   125A      0.896558   126A      0.899306
     127A      0.913476   128A      0.920102   129A      0.924932
     130A      0.929856   131A      0.932674   132A      0.942233
     133A      0.946793   134A      0.956848   135A      0.975951
     136A      0.991723   137A      1.010503   138A      1.018733
     139A      1.023934   140A      1.046658   141A      1.054734
     142A      1.066098   143A      1.116435   144A      1.131145
     145A      1.143412   146A      1.147288   147A      1.158371
     148A      1.159483   149A      1.163474   150A      1.178086
     151A      1.196537   152A      1.216405   153A      1.230222
     154A      1.240948   155A      1.242719   156A      1.247631
     157A      1.252757   158A      1.267129   159A      1.284133
     160A      1.289891   161A      1.292412   162A      1.295399
     163A      1.305280   164A      1.311312   165A      1.321686
     166A      1.328357   167A      1.349066   168A      1.359036
     169A      1.387802   170A      1.394342   171A      1.419471
     172A      1.479969   173A      1.498228   174A      1.506726
     175A      1.531268   176A      1.547488   177A      1.562964
     178A      1.575599   179A      1.606381   180A      1.613844
     181A      1.626556   182A      1.670908   183A      1.681978
     184A      1.696362   185A      1.699341   186A      1.726971
     187A      1.743779   188A      1.749744   189A      1.756891
     190A      1.774318   191A      1.792777   192A      1.796447
     193A      1.810634   194A      1.814931   195A      1.819839
     196A      1.861030   197A      1.868401   198A      1.882313
     199A      1.894597   200A      1.898470   201A      1.899866
     202A      1.907103   203A      1.911601   204A      1.917215
     205A      1.925289   206A      1.933428   207A      1.935895
     208A      1.940497   209A      1.943449   210A      1.953347
     211A      1.961634   212A      1.969664   213A      1.972830
     214A      1.989907   215A      1.996384   216A      2.011461
     217A      2.030472   218A      2.037675   219A      2.055621
     220A      2.062135   221A      2.071749   222A      2.076036
     223A      2.079819   224A      2.088540   225A      2.126268
     226A      2.130269   227A      2.137760   228A      2.149319
     229A      2.162697   230A      2.165455   231A      2.174359
     232A      2.189559   233A      2.194482   234A      2.204371
     235A      2.217241   236A      2.259974   237A      2.266815
     238A      2.269943   239A      2.278490   240A      2.291739
     241A      2.300404   242A      2.310785   243A      2.329267
     244A      2.333972   245A      2.346491   246A      2.389824
     247A      2.418634   248A      2.421097   249A      2.464321
     250A      2.471149   251A      2.474238   252A      2.485305
     253A      2.501052   254A      2.523427   255A      2.544331
     256A      2.553734   257A      2.608458   258A      2.628222
     259A      2.638611   260A      2.738100   261A      2.745591
     262A      2.756318   263A      2.775770   264A      2.781531
     265A      2.787797   266A      2.801727   267A      2.807680
     268A      2.817756   269A      2.838595   270A      2.851191
     271A      2.864353   272A      2.899135   273A      2.965891
     274A      2.986127   275A      3.014373   276A      3.026674
     277A      3.037254   278A      3.081198   279A      3.105804
     280A      3.172186   281A      3.208401   282A      3.241149
     283A      3.277667   284A      3.301280   285A      3.331791
     286A      3.570853   287A      3.667287   288A      3.941243
     289A      3.962705   290A      4.161231

    Final Occupation by Irrep:
              A
    DOCC [    54 ]

  @RHF Final Energy:  -614.38152523828126

   => Energetics <=

    Nuclear Repulsion Energy =            883.2963633468317539
    One-Electron Energy =               -2586.1454992863700681
    Two-Electron Energy =                1088.4676107012571720
    Total Energy =                       -614.3815252382812560

Computation Completed

Properties will be evaluated at   0.000000,   0.000000,   0.000000 [a0]

Properties computed using the SCF density matrix

  Nuclear Dipole Moment: [e a0]
     X:    10.9670      Y:    -1.6142      Z:     1.9471

  Electronic Dipole Moment: [e a0]
     X:   -10.9312      Y:     1.7930      Z:    -1.4415

  Dipole Moment: [e a0]
     X:     0.0359      Y:     0.1787      Z:     0.5055     Total:     0.5374

  Dipole Moment: [D]
     X:     0.0912      Y:     0.4543      Z:     1.2849     Total:     1.3659

*** tstop() called on ds3 at Mon Apr 27 07:12:40 2020
Module time:
	user time   =     373.54 seconds =       6.23 minutes
	system time =     135.95 seconds =       2.27 minutes
	total time  =        693 seconds =      11.55 minutes
Total time:
	user time   =     373.54 seconds =       6.23 minutes
	system time =     135.95 seconds =       2.27 minutes
	total time  =        693 seconds =      11.55 minutes
                                     G D M A

                                 by Anthony Stone

                           version 2.2.06, 22 June 2011

               Distributed Multipoles from Gaussian wavefunctions

Starting at 7:12:40 on 27 Apr 2020

Using SCF density matrix from file ./SSI/SSI-126PHE-171TYR-1-dimer.test.16260.fchk

                         Distributed Multipole Analysis

Standard DMA

Positions and radii in angstrom
Multipole moments in atomic units, ea_0^k for rank k

C          x =  5.014986  y =  0.394172  z = -1.804372 angstrom
           Maximum rank =  0   Radius =  0.650 angstrom
                   Q00  =  -0.205990

C          x =  0.782986  y =  0.697172  z = -1.035372 angstrom
           Maximum rank =  0   Radius =  0.650 angstrom
                   Q00  =  -0.078828

C          x =  1.241986  y =  0.417172  z = -2.322372 angstrom
           Maximum rank =  0   Radius =  0.650 angstrom
                   Q00  =  -0.080808

C          x =  1.695986  y =  0.881172  z =  0.001628 angstrom
           Maximum rank =  0   Radius =  0.650 angstrom
                   Q00  =  -0.080728

C          x =  2.614986  y =  0.325172  z = -2.570372 angstrom
           Maximum rank =  0   Radius =  0.650 angstrom
                   Q00  =  -0.054889

C          x =  3.064986  y =  0.784172  z = -0.250372 angstrom
           Maximum rank =  0   Radius =  0.650 angstrom
                   Q00  =  -0.022966

C          x =  3.536986  y =  0.509172  z = -1.538372 angstrom
           Maximum rank =  0   Radius =  0.650 angstrom
                   Q00  =  -0.091604

H          x = -0.279014  y =  0.771172  z = -0.841372 angstrom
           Maximum rank =  0   Radius =  0.325 angstrom
                   Q00  =   0.074108

H          x =  0.534986  y =  0.269172  z = -3.127372 angstrom
           Maximum rank =  0   Radius =  0.325 angstrom
                   Q00  =   0.063030

H          x =  1.329986  y =  1.076172  z =  0.997628 angstrom
           Maximum rank =  0   Radius =  0.325 angstrom
                   Q00  =   0.063914

H          x =  2.959986  y =  0.106172  z = -3.569372 angstrom
           Maximum rank =  0   Radius =  0.325 angstrom
                   Q00  =   0.055555

H          x =  3.730986  y =  0.887172  z =  0.590628 angstrom
           Maximum rank =  0   Radius =  0.325 angstrom
                   Q00  =   0.052271

H          x =  5.226986  y =  0.583172  z = -2.853372 angstrom
           Maximum rank =  0   Radius =  0.325 angstrom
                   Q00  =   0.099954

H          x =  5.298986  y = -0.640828  z = -1.605372 angstrom
           Maximum rank =  0   Radius =  0.325 angstrom
                   Q00  =   0.100242

H          x =  5.632406  y =  1.045422  z = -1.168242 angstrom
           Maximum rank =  0   Radius =  0.325 angstrom
                   Q00  =   0.100635

C          x =  0.019986  y = -1.538828  z =  2.752628 angstrom
           Maximum rank =  0   Radius =  0.650 angstrom
                   Q00  =  -0.193569

C          x = -2.424014  y = -0.971828  z = -0.116372 angstrom
           Maximum rank =  0   Radius =  0.650 angstrom
                   Q00  =  -0.121388

C          x = -3.280014  y = -0.011828  z =  0.418628 angstrom
           Maximum rank =  0   Radius =  0.650 angstrom
                   Q00  =   0.322854

C          x = -1.344014  y = -1.437828  z =  0.634628 angstrom
           Maximum rank =  0   Radius =  0.650 angstrom
                   Q00  =   0.045308

C          x = -1.104014  y = -0.956828  z =  1.925628 angstrom
           Maximum rank =  0   Radius =  0.650 angstrom
                   Q00  =  -0.147094

C          x = -3.051014  y =  0.485172  z =  1.703628 angstrom
           Maximum rank =  0   Radius =  0.650 angstrom
                   Q00  =  -0.202441

C          x = -1.964014  y =  0.011172  z =  2.450628 angstrom
           Maximum rank =  0   Radius =  0.650 angstrom
                   Q00  =  -0.017952

O          x = -4.344014  y =  0.418172  z = -0.318372 angstrom
           Maximum rank =  0   Radius =  0.650 angstrom
                   Q00  =  -0.679433

H          x = -2.603014  y = -1.355828  z = -1.109372 angstrom
           Maximum rank =  0   Radius =  0.325 angstrom
                   Q00  =   0.080178

H          x = -0.689014  y = -2.188828  z =  0.212628 angstrom
           Maximum rank =  0   Radius =  0.325 angstrom
                   Q00  =   0.068121

H          x = -3.712014  y =  1.232172  z =  2.114628 angstrom
           Maximum rank =  0   Radius =  0.325 angstrom
                   Q00  =   0.072496

H          x = -4.857014  y =  1.108172  z =  0.169628 angstrom
           Maximum rank =  0   Radius =  0.325 angstrom
                   Q00  =   0.413947

H          x =  0.260986  y = -0.879828  z =  3.587628 angstrom
           Maximum rank =  0   Radius =  0.325 angstrom
                   Q00  =   0.094548

H          x =  0.901986  y = -1.602828  z =  2.117628 angstrom
           Maximum rank =  0   Radius =  0.325 angstrom
                   Q00  =   0.099038

H          x = -1.785014  y =  0.408172  z =  3.437628 angstrom
           Maximum rank =  0   Radius =  0.325 angstrom
                   Q00  =   0.070243

H          x = -0.231394  y = -2.542888  z =  3.125008 angstrom
           Maximum rank =  0   Radius =  0.325 angstrom
                   Q00  =   0.101247

Total multipoles referred to origin at
           x =   0.000000,  y =    0.000000,  z =    0.000000 angstrom
                   Q00  =  -0.000000

Finished at 7:12:40 on 27 Apr 2020

  DMA results are available in the Python driver through the
	  variable('DMA DISTRIBUTED MULTIPOLES')
  and
	  variable('DMA TOTAL MULTIPOLES')
  commands.

    Psi4 stopped on: Monday, 27 April 2020 07:12AM
    Psi4 wall time for execution: 0:11:32.55

*** Psi4 exiting successfully. Buy a developer a beer!
