                               Psi4 1.3.2 release

  ==> Input File <==

--------------------------------------------------------------------------
import numpy as np
set {scf_type pk
basis cc-pvdz
d_convergence 10
gdma_switch   0
gdma_limit    0
gdma_origin   [ 0.0,  0.0,  0.0 ]
}
molecule test {
    units Angstrom
    0 1
    --
    0 1
    C               -0.242755316491807     3.880582322575500     0.035224725984441
    C                0.844244683508193     4.955582322575500    -0.040775274015559
    H               -1.219755316491807     4.327582322575500    -0.138775274015559
    H               -0.063755316491807     3.125582322575500    -0.727775274015559
    H               -0.227755316491807     3.405582322575500     1.014224725984441
    H                1.807244683508193     4.480582322575501     0.137224725984441
    H                0.659546583508193     5.700122322575500     0.747604725984441
    H                0.853669983508193     5.418872322575500    -1.038405274015559
    C                0.562244683508193    -3.534417677424500    -1.091775274015559
    C               -0.609755316491807     0.148582322575500     0.819224725984441
    C               -1.336755316491807    -1.021417677424500     1.037224725984441
    C                0.508244683508193     0.120582322575500    -0.008775274015559
    C               -0.945755316491807    -2.213417677424500     0.432224725984441
    C                0.885244683508193    -1.076417677424500    -0.630775274015559
    C                0.163244683508193    -2.246417677424500    -0.414775274015559
    H               -0.916755316491807     1.072582322575500     1.288224725984441
    H               -2.199755316491807    -1.012417677424500     1.686224725984441
    H                1.076244683508193     1.023582322575500    -0.181775274015559
    H               -1.513755316491807    -3.114417677424500     0.610224725984441
    H                1.743244683508193    -1.086417677424500    -1.289775274015559
    H                0.350244683508193    -4.370417677424499    -0.422775274015559
    H                1.640244683508193    -3.519417677424499    -1.261775274015559
    H                0.056659463508193    -3.702228677424500    -2.054175274015559

}
e, wfn = energy('scf', return_wfn=True)
gdma(wfn)
dmavals = variable('DMA DISTRIBUTED MULTIPOLES')
charges = np.array(dmavals)
print(charges)
np.save('SSI-052LEU-070PHE-1-dimer.npy', np.array(charges))--------------------------------------------------------------------------

*** tstart() called on ds3
*** at Sun Apr 26 17:36:59 2020

   => Loading Basis Set <=

    Name: CC-PVDZ
    Role: ORBITAL
    Keyword: BASIS
    atoms 1-2, 9-15  entry C          line   138 file /theoryfs2/ds/metcalf/miniconda2/envs/tf2gpu/share/psi4/basis/cc-pvdz.gbs
    atoms 3-8, 16-23 entry H          line    22 file /theoryfs2/ds/metcalf/miniconda2/envs/tf2gpu/share/psi4/basis/cc-pvdz.gbs

         ---------------------------------------------------------
                                   SCF
               by Justin Turney, Rob Parrish, Andy Simmonett
                          and Daniel G. A. Smith
                              RHF Reference
                        1 Threads,    500 MiB Core
         ---------------------------------------------------------

  ==> Geometry <==

    Molecular point group: c1
    Full point group: C1

    Geometry (in Angstrom), charge = 0, multiplicity = 1:

       Center              X                  Y                   Z               Mass
    ------------   -----------------  -----------------  -----------------  -----------------
         C           -0.242755316492     3.880582322576     0.035224725984    12.000000000000
         C            0.844244683508     4.955582322576    -0.040775274016    12.000000000000
         H           -1.219755316492     4.327582322576    -0.138775274016     1.007825032230
         H           -0.063755316492     3.125582322576    -0.727775274016     1.007825032230
         H           -0.227755316492     3.405582322576     1.014224725984     1.007825032230
         H            1.807244683508     4.480582322576     0.137224725984     1.007825032230
         H            0.659546583508     5.700122322576     0.747604725984     1.007825032230
         H            0.853669983508     5.418872322576    -1.038405274016     1.007825032230
         C            0.562244683508    -3.534417677424    -1.091775274016    12.000000000000
         C           -0.609755316492     0.148582322576     0.819224725984    12.000000000000
         C           -1.336755316492    -1.021417677424     1.037224725984    12.000000000000
         C            0.508244683508     0.120582322576    -0.008775274016    12.000000000000
         C           -0.945755316492    -2.213417677424     0.432224725984    12.000000000000
         C            0.885244683508    -1.076417677424    -0.630775274016    12.000000000000
         C            0.163244683508    -2.246417677424    -0.414775274016    12.000000000000
         H           -0.916755316492     1.072582322576     1.288224725984     1.007825032230
         H           -2.199755316492    -1.012417677424     1.686224725984     1.007825032230
         H            1.076244683508     1.023582322576    -0.181775274016     1.007825032230
         H           -1.513755316492    -3.114417677424     0.610224725984     1.007825032230
         H            1.743244683508    -1.086417677424    -1.289775274016     1.007825032230
         H            0.350244683508    -4.370417677424    -0.422775274016     1.007825032230
         H            1.640244683508    -3.519417677424    -1.261775274016     1.007825032230
         H            0.056659463508    -3.702228677424    -2.054175274016     1.007825032230

  Running in c1 symmetry.

  Rotational constants: A =      0.12192  B =      0.01736  C =      0.01551 [cm^-1]
  Rotational constants: A =   3655.12804  B =    520.38378  C =    464.94521 [MHz]
  Nuclear repulsion =  395.905412677486368

  Charge       = 0
  Multiplicity = 1
  Electrons    = 68
  Nalpha       = 34
  Nbeta        = 34

  ==> Algorithm <==

  SCF Algorithm Type is PK.
  DIIS enabled.
  MOM disabled.
  Fractional occupation disabled.
  Guess Type is SAD.
  Energy threshold   = 1.00e-06
  Density threshold  = 1.00e-10
  Integral threshold = 0.00e+00

  ==> Primary Basis <==

  Basis Set: CC-PVDZ
    Blend: CC-PVDZ
    Number of shells: 96
    Number of basis function: 196
    Number of Cartesian functions: 205
    Spherical Harmonics?: true
    Max angular momentum: 2

  ==> Pre-Iterations <==

   -------------------------------------------------------
    Irrep   Nso     Nmo     Nalpha   Nbeta   Ndocc  Nsocc
   -------------------------------------------------------
     A        196     196       0       0       0       0
   -------------------------------------------------------
    Total     196     196      34      34      34       0
   -------------------------------------------------------

  ==> Integral Setup <==

  Using integral reordering PK algorithm.
  Sizing the integral batches needed.
  Building batch lookup table.
   Calculation information:
      Number of atoms:                  23
      Number of AO shells:              96
      Number of primitives:            268
      Number of atomic orbitals:       205
      Number of basis functions:       196

      Integral cutoff                 1.00e-12
      Number of threads:                 1

	Batch   1 pq = [       0,    9405] index = [             0,44231715] size =     44231715
	Batch   2 pq = [    9405,   13301] index = [      44231715,88464951] size =     44233236
	Batch   3 pq = [   13301,   16290] index = [      88464951,132690195] size =     44225244
	Batch   4 pq = [   16290,   18810] index = [     132690195,176917455] size =     44227260
	Batch   5 pq = [   18810,   19306] index = [     176917455,186370471] size =      9453016
  Task number: 17
  Buffer size: 11059200
  Buffer per thread: 2
  We computed 8113977 shell quartets total.
  Whereas there are 10841496 unique shell quartets.

  ==> DiskJK: Disk-Based J/K Matrices <==

    J tasked:                  Yes
    K tasked:                  Yes
    wK tasked:                  No
    Memory [MiB]:              375
    Schwarz Cutoff:          1E-12

    OpenMP threads:              1

  Minimum eigenvalue in the overlap matrix is 3.0911149883E-04.
  Using Symmetric Orthogonalization.

  SCF Guess: Superposition of Atomic Densities via on-the-fly atomic UHF.

  ==> Iterations <==

                        Total Energy        Delta E     RMS |[F,P]|

   @RHF iter SAD:  -347.84671473548087   -3.47847e+02   0.00000e+00
   @RHF iter   1:  -348.76876084552100   -9.22046e-01   2.88448e-03 DIIS
   @RHF iter   2:  -348.96074798593497   -1.91987e-01   1.19021e-03 DIIS
   @RHF iter   3:  -348.99048485686541   -2.97369e-02   2.58784e-04 DIIS
   @RHF iter   4:  -348.99295653270099   -2.47168e-03   5.50788e-05 DIIS
   @RHF iter   5:  -348.99303429270793   -7.77600e-05   1.90246e-05 DIIS
   @RHF iter   6:  -348.99304309108533   -8.79838e-06   4.91699e-06 DIIS
   @RHF iter   7:  -348.99304378717983   -6.96095e-07   1.21498e-06 DIIS
   @RHF iter   8:  -348.99304383855764   -5.13778e-08   3.07987e-07 DIIS
   @RHF iter   9:  -348.99304384515381   -6.59617e-09   1.30631e-07 DIIS
   @RHF iter  10:  -348.99304384664129   -1.48748e-09   6.17903e-08 DIIS
   @RHF iter  11:  -348.99304384716817   -5.26882e-10   2.22985e-08 DIIS
   @RHF iter  12:  -348.99304384723393   -6.57678e-11   8.77304e-09 DIIS
   @RHF iter  13:  -348.99304384724104   -7.10543e-12   3.54927e-09 DIIS
   @RHF iter  14:  -348.99304384724195   -9.09495e-13   8.78506e-10 DIIS
   @RHF iter  15:  -348.99304384724041    1.53477e-12   3.91666e-10 DIIS
   @RHF iter  16:  -348.99304384723973    6.82121e-13   1.49041e-10 DIIS
   @RHF iter  17:  -348.99304384724053   -7.95808e-13   6.31734e-11 DIIS
  Energy and wave function converged.

  ==> Post-Iterations <==

    Orbital Energies [Eh]
    ---------------------

    Doubly Occupied:

       1A    -11.239973     2A    -11.235476     3A    -11.234775
       4A    -11.230657     5A    -11.230521     6A    -11.229799
       7A    -11.229305     8A    -11.220563     9A    -11.217386
      10A     -1.150519    11A     -1.042783    12A     -1.020145
      13A     -1.009422    14A     -0.930014    15A     -0.837878
      16A     -0.823829    17A     -0.794206    18A     -0.689776
      19A     -0.630318    20A     -0.629156    21A     -0.601532
      22A     -0.600246    23A     -0.580730    24A     -0.575810
      25A     -0.561674    26A     -0.534073    27A     -0.498780
      28A     -0.490763    29A     -0.488003    30A     -0.485446
      31A     -0.482169    32A     -0.479229    33A     -0.330406
      34A     -0.321485

    Virtual:

      35A      0.135074    36A      0.141579    37A      0.172574
      38A      0.190442    39A      0.207827    40A      0.222208
      41A      0.227014    42A      0.245753    43A      0.250190
      44A      0.256385    45A      0.266996    46A      0.278279
      47A      0.282446    48A      0.288963    49A      0.326342
      50A      0.331700    51A      0.365691    52A      0.376765
      53A      0.395901    54A      0.451744    55A      0.464848
      56A      0.480746    57A      0.487748    58A      0.558068
      59A      0.594388    60A      0.598793    61A      0.609355
      62A      0.626537    63A      0.639356    64A      0.669454
      65A      0.681818    66A      0.689446    67A      0.697700
      68A      0.714713    69A      0.728154    70A      0.740743
      71A      0.745828    72A      0.747318    73A      0.763690
      74A      0.774285    75A      0.777207    76A      0.801003
      77A      0.833328    78A      0.847944    79A      0.868073
      80A      0.872013    81A      0.877013    82A      0.883752
      83A      0.892248    84A      0.895453    85A      0.896504
      86A      0.901964    87A      0.910843    88A      0.925137
      89A      0.930006    90A      0.932059    91A      0.941581
      92A      0.963504    93A      0.977377    94A      1.003577
      95A      1.021166    96A      1.052191    97A      1.116508
      98A      1.124282    99A      1.128944   100A      1.144877
     101A      1.156635   102A      1.177704   103A      1.207927
     104A      1.228158   105A      1.248217   106A      1.251709
     107A      1.257544   108A      1.269642   109A      1.300331
     110A      1.306489   111A      1.323179   112A      1.325684
     113A      1.413368   114A      1.479520   115A      1.486873
     116A      1.510958   117A      1.515995   118A      1.555739
     119A      1.582030   120A      1.613265   121A      1.675509
     122A      1.675892   123A      1.695674   124A      1.701828
     125A      1.735462   126A      1.747473   127A      1.757785
     128A      1.789331   129A      1.808785   130A      1.852156
     131A      1.859771   132A      1.879249   133A      1.888265
     134A      1.899036   135A      1.905576   136A      1.909934
     137A      1.917548   138A      1.924741   139A      1.938040
     140A      1.942922   141A      1.944701   142A      1.955196
     143A      1.958016   144A      1.962312   145A      1.972421
     146A      1.981715   147A      1.995270   148A      2.000197
     149A      2.037459   150A      2.066942   151A      2.069498
     152A      2.095722   153A      2.104244   154A      2.122432
     155A      2.145853   156A      2.161004   157A      2.171709
     158A      2.183437   159A      2.197454   160A      2.259158
     161A      2.279072   162A      2.288628   163A      2.292809
     164A      2.301212   165A      2.307976   166A      2.309946
     167A      2.343927   168A      2.458609   169A      2.464797
     170A      2.472762   171A      2.480023   172A      2.493477
     173A      2.541612   174A      2.565074   175A      2.576518
     176A      2.619558   177A      2.740995   178A      2.756971
     179A      2.762824   180A      2.766905   181A      2.787001
     182A      2.804364   183A      2.811476   184A      2.839714
     185A      2.848023   186A      2.852872   187A      2.872424
     188A      2.954830   189A      2.963632   190A      2.985385
     191A      3.009790   192A      3.020450   193A      3.152790
     194A      3.199823   195A      3.296892   196A      3.961920

    Final Occupation by Irrep:
              A
    DOCC [    34 ]

  @RHF Final Energy:  -348.99304384724053

   => Energetics <=

    Nuclear Repulsion Energy =            395.9054126774863676
    One-Electron Energy =               -1254.4832165873208396
    Two-Electron Energy =                 509.5847600625940004
    Total Energy =                       -348.9930438472405285

Computation Completed

Properties will be evaluated at   0.000000,   0.000000,   0.000000 [a0]

Properties computed using the SCF density matrix

  Nuclear Dipole Moment: [e a0]
     X:     1.9177      Y:    11.0145      Z:    -1.5295

  Electronic Dipole Moment: [e a0]
     X:    -1.9047      Y:   -11.1145      Z:     1.4630

  Dipole Moment: [e a0]
     X:     0.0129      Y:    -0.1000      Z:    -0.0665     Total:     0.1208

  Dipole Moment: [D]
     X:     0.0329      Y:    -0.2542      Z:    -0.1690     Total:     0.3070

*** tstop() called on ds3 at Sun Apr 26 17:38:41 2020
Module time:
	user time   =      59.60 seconds =       0.99 minutes
	system time =      27.10 seconds =       0.45 minutes
	total time  =        102 seconds =       1.70 minutes
Total time:
	user time   =      59.60 seconds =       0.99 minutes
	system time =      27.10 seconds =       0.45 minutes
	total time  =        102 seconds =       1.70 minutes
                                     G D M A

                                 by Anthony Stone

                           version 2.2.06, 22 June 2011

               Distributed Multipoles from Gaussian wavefunctions

Starting at 17:38:41 on 26 Apr 2020

Using SCF density matrix from file ./SSI/SSI-052LEU-070PHE-1-dimer.test.22618.fchk

                         Distributed Multipole Analysis

Standard DMA

Positions and radii in angstrom
Multipole moments in atomic units, ea_0^k for rank k

C          x = -0.242755  y =  3.880582  z =  0.035225 angstrom
           Maximum rank =  0   Radius =  0.650 angstrom
                   Q00  =  -0.240278

C          x =  0.844245  y =  4.955582  z = -0.040775 angstrom
           Maximum rank =  0   Radius =  0.650 angstrom
                   Q00  =  -0.234730

H          x = -1.219755  y =  4.327582  z = -0.138775 angstrom
           Maximum rank =  0   Radius =  0.325 angstrom
                   Q00  =   0.081677

H          x = -0.063755  y =  3.125582  z = -0.727775 angstrom
           Maximum rank =  0   Radius =  0.325 angstrom
                   Q00  =   0.079786

H          x = -0.227755  y =  3.405582  z =  1.014225 angstrom
           Maximum rank =  0   Radius =  0.325 angstrom
                   Q00  =   0.075338

H          x =  1.807245  y =  4.480582  z =  0.137225 angstrom
           Maximum rank =  0   Radius =  0.325 angstrom
                   Q00  =   0.077328

H          x =  0.659547  y =  5.700122  z =  0.747605 angstrom
           Maximum rank =  0   Radius =  0.325 angstrom
                   Q00  =   0.079452

H          x =  0.853670  y =  5.418872  z = -1.038405 angstrom
           Maximum rank =  0   Radius =  0.325 angstrom
                   Q00  =   0.081154

C          x =  0.562245  y = -3.534418  z = -1.091775 angstrom
           Maximum rank =  0   Radius =  0.650 angstrom
                   Q00  =  -0.199366

C          x = -0.609755  y =  0.148582  z =  0.819225 angstrom
           Maximum rank =  0   Radius =  0.650 angstrom
                   Q00  =  -0.087239

C          x = -1.336755  y = -1.021418  z =  1.037225 angstrom
           Maximum rank =  0   Radius =  0.650 angstrom
                   Q00  =  -0.076908

C          x =  0.508245  y =  0.120582  z = -0.008775 angstrom
           Maximum rank =  0   Radius =  0.650 angstrom
                   Q00  =  -0.079507

C          x = -0.945755  y = -2.213418  z =  0.432225 angstrom
           Maximum rank =  0   Radius =  0.650 angstrom
                   Q00  =  -0.044531

C          x =  0.885245  y = -1.076418  z = -0.630775 angstrom
           Maximum rank =  0   Radius =  0.650 angstrom
                   Q00  =  -0.014395

C          x =  0.163245  y = -2.246418  z = -0.414775 angstrom
           Maximum rank =  0   Radius =  0.650 angstrom
                   Q00  =  -0.104254

H          x = -0.916755  y =  1.072582  z =  1.288225 angstrom
           Maximum rank =  0   Radius =  0.325 angstrom
                   Q00  =   0.062645

H          x = -2.199755  y = -1.012418  z =  1.686225 angstrom
           Maximum rank =  0   Radius =  0.325 angstrom
                   Q00  =   0.064119

H          x =  1.076245  y =  1.023582  z = -0.181775 angstrom
           Maximum rank =  0   Radius =  0.325 angstrom
                   Q00  =   0.065739

H          x = -1.513755  y = -3.114418  z =  0.610225 angstrom
           Maximum rank =  0   Radius =  0.325 angstrom
                   Q00  =   0.056582

H          x =  1.743245  y = -1.086418  z = -1.289775 angstrom
           Maximum rank =  0   Radius =  0.325 angstrom
                   Q00  =   0.056852

H          x =  0.350245  y = -4.370418  z = -0.422775 angstrom
           Maximum rank =  0   Radius =  0.325 angstrom
                   Q00  =   0.098150

H          x =  1.640245  y = -3.519418  z = -1.261775 angstrom
           Maximum rank =  0   Radius =  0.325 angstrom
                   Q00  =   0.096917

H          x =  0.056659  y = -3.702229  z = -2.054175 angstrom
           Maximum rank =  0   Radius =  0.325 angstrom
                   Q00  =   0.105467

Total multipoles referred to origin at
           x =   0.000000,  y =    0.000000,  z =    0.000000 angstrom
                   Q00  =  -0.000000

Finished at 17:38:41 on 26 Apr 2020

  DMA results are available in the Python driver through the
	  variable('DMA DISTRIBUTED MULTIPOLES')
  and
	  variable('DMA TOTAL MULTIPOLES')
  commands.

    Psi4 stopped on: Sunday, 26 April 2020 05:38PM
    Psi4 wall time for execution: 0:01:42.59

*** Psi4 exiting successfully. Buy a developer a beer!
