                               Psi4 1.3.2 release

  ==> Input File <==

--------------------------------------------------------------------------
import numpy as np
set {scf_type pk
basis cc-pvdz
d_convergence 10
gdma_switch   0
gdma_limit    0
gdma_origin   [ 0.0,  0.0,  0.0 ]
}
molecule test {
    units Angstrom
    -1 1
    --
    -1 1
    C               -0.142290250665319    -0.008122951594087    -1.415893544602959
    C               -0.265290250665319     0.074877048405913    -2.912893544602959
    C                1.063709749334681     0.740877048405913    -0.833893544602959
    O                1.638709749334681     1.575877048405913    -1.560893544602959
    O                1.436709749334681     0.501877048405913     0.347106455397041
    H               -1.043290250665319     0.436877048405913    -0.989893544602959
    H               -0.085290250665319    -1.056122951594087    -1.123893544602959
    H                0.575709749334681    -0.440122951594087    -3.376893544602960
    H               -0.262290250665319     1.116877048405913    -3.233893544602959
    H               -1.208420250665319    -0.384992951594087    -3.243093544602959
    C               -0.837290250665319    -1.101122951594087     1.690106455397041
    C               -2.340290250665319    -1.508122951594087     1.639106455397041
    C               -0.526290250665319    -0.317122951594087     3.003106455397040
    H               -0.168290250665319    -1.945122951594087     1.531106455397041
    H               -0.728290250665319    -0.370122951594087     0.923106455397041
    H               -2.654290250665319    -1.517122951594087     0.593106455397041
    H               -2.932290250665319    -0.739122951594087     2.140106455397041
    H               -1.225290250665319     0.518877048405913     3.080106455397041
    H               -0.715290250665319    -0.976122951594087     3.853106455397041
    H               -2.559610250665319    -2.491472951594087     2.080606455397040
    H                0.486729749334681     0.099677048405913     3.103416455397041

}
e, wfn = energy('scf', return_wfn=True)
gdma(wfn)
dmavals = variable('DMA DISTRIBUTED MULTIPOLES')
charges = np.array(dmavals)
print(charges)
np.save('SSI-070GLU-073LYS-1-dimer.npy', np.array(charges))--------------------------------------------------------------------------

*** tstart() called on ds3
*** at Mon Apr 27 10:36:34 2020

   => Loading Basis Set <=

    Name: CC-PVDZ
    Role: ORBITAL
    Keyword: BASIS
    atoms 1-3, 11-13  entry C          line   138 file /theoryfs2/ds/metcalf/miniconda2/envs/tf2gpu/share/psi4/basis/cc-pvdz.gbs
    atoms 4-5         entry O          line   198 file /theoryfs2/ds/metcalf/miniconda2/envs/tf2gpu/share/psi4/basis/cc-pvdz.gbs
    atoms 6-10, 14-21 entry H          line    22 file /theoryfs2/ds/metcalf/miniconda2/envs/tf2gpu/share/psi4/basis/cc-pvdz.gbs

         ---------------------------------------------------------
                                   SCF
               by Justin Turney, Rob Parrish, Andy Simmonett
                          and Daniel G. A. Smith
                              RHF Reference
                        1 Threads,    500 MiB Core
         ---------------------------------------------------------

  ==> Geometry <==

    Molecular point group: c1
    Full point group: C1

    Geometry (in Angstrom), charge = -1, multiplicity = 1:

       Center              X                  Y                   Z               Mass
    ------------   -----------------  -----------------  -----------------  -----------------
         C           -0.142290250665    -0.008122951594    -1.415893544603    12.000000000000
         C           -0.265290250665     0.074877048406    -2.912893544603    12.000000000000
         C            1.063709749335     0.740877048406    -0.833893544603    12.000000000000
         O            1.638709749335     1.575877048406    -1.560893544603    15.994914619570
         O            1.436709749335     0.501877048406     0.347106455397    15.994914619570
         H           -1.043290250665     0.436877048406    -0.989893544603     1.007825032230
         H           -0.085290250665    -1.056122951594    -1.123893544603     1.007825032230
         H            0.575709749335    -0.440122951594    -3.376893544603     1.007825032230
         H           -0.262290250665     1.116877048406    -3.233893544603     1.007825032230
         H           -1.208420250665    -0.384992951594    -3.243093544603     1.007825032230
         C           -0.837290250665    -1.101122951594     1.690106455397    12.000000000000
         C           -2.340290250665    -1.508122951594     1.639106455397    12.000000000000
         C           -0.526290250665    -0.317122951594     3.003106455397    12.000000000000
         H           -0.168290250665    -1.945122951594     1.531106455397     1.007825032230
         H           -0.728290250665    -0.370122951594     0.923106455397     1.007825032230
         H           -2.654290250665    -1.517122951594     0.593106455397     1.007825032230
         H           -2.932290250665    -0.739122951594     2.140106455397     1.007825032230
         H           -1.225290250665     0.518877048406     3.080106455397     1.007825032230
         H           -0.715290250665    -0.976122951594     3.853106455397     1.007825032230
         H           -2.559610250665    -2.491472951594     2.080606455397     1.007825032230
         H            0.486729749335     0.099677048406     3.103416455397     1.007825032230

  Running in c1 symmetry.

  Rotational constants: A =      0.09043  B =      0.02976  C =      0.02328 [cm^-1]
  Rotational constants: A =   2711.10381  B =    892.18877  C =    697.89856 [MHz]
  Nuclear repulsion =  373.371416937121978

  Charge       = -1
  Multiplicity = 1
  Electrons    = 66
  Nalpha       = 33
  Nbeta        = 33

  ==> Algorithm <==

  SCF Algorithm Type is PK.
  DIIS enabled.
  MOM disabled.
  Fractional occupation disabled.
  Guess Type is SAD.
  Energy threshold   = 1.00e-06
  Density threshold  = 1.00e-10
  Integral threshold = 0.00e+00

  ==> Primary Basis <==

  Basis Set: CC-PVDZ
    Blend: CC-PVDZ
    Number of shells: 87
    Number of basis function: 177
    Number of Cartesian functions: 185
    Spherical Harmonics?: true
    Max angular momentum: 2

  ==> Pre-Iterations <==

   -------------------------------------------------------
    Irrep   Nso     Nmo     Nalpha   Nbeta   Ndocc  Nsocc
   -------------------------------------------------------
     A        177     177       0       0       0       0
   -------------------------------------------------------
    Total     177     177      33      33      33       0
   -------------------------------------------------------

  ==> Integral Setup <==

  Using integral reordering PK algorithm.
  Sizing the integral batches needed.
  Building batch lookup table.
   Calculation information:
      Number of atoms:                  21
      Number of AO shells:              87
      Number of primitives:            241
      Number of atomic orbitals:       185
      Number of basis functions:       177

      Integral cutoff                 1.00e-12
      Number of threads:                 1

	Batch   1 pq = [       0,    9405] index = [             0,44231715] size =     44231715
	Batch   2 pq = [    9405,   13301] index = [      44231715,88464951] size =     44233236
	Batch   3 pq = [   13301,   15753] index = [      88464951,124086381] size =     35621430
  Task number: 12
  Buffer size: 11059200
  Buffer per thread: 2
  We computed 6408245 shell quartets total.
  Whereas there are 7328706 unique shell quartets.

  ==> DiskJK: Disk-Based J/K Matrices <==

    J tasked:                  Yes
    K tasked:                  Yes
    wK tasked:                  No
    Memory [MiB]:              375
    Schwarz Cutoff:          1E-12

    OpenMP threads:              1

  Minimum eigenvalue in the overlap matrix is 3.5735008555E-03.
  Using Symmetric Orthogonalization.

  SCF Guess: Superposition of Atomic Densities via on-the-fly atomic UHF.

  ==> Iterations <==

                        Total Energy        Delta E     RMS |[F,P]|

   @RHF iter SAD:  -382.87614011284029   -3.82876e+02   0.00000e+00
   @RHF iter   1:  -384.21492395135891   -1.33878e+00   4.41030e-03 DIIS
   @RHF iter   2:  -384.46658593569140   -2.51662e-01   2.41480e-03 DIIS
   @RHF iter   3:  -384.53656872243857   -6.99828e-02   4.00541e-04 DIIS
   @RHF iter   4:  -384.54007841278190   -3.50969e-03   1.54478e-04 DIIS
   @RHF iter   5:  -384.54057120337524   -4.92791e-04   2.31713e-05 DIIS
   @RHF iter   6:  -384.54058668938808   -1.54860e-05   5.26259e-06 DIIS
   @RHF iter   7:  -384.54058755986370   -8.70476e-07   1.57520e-06 DIIS
   @RHF iter   8:  -384.54058764269058   -8.28269e-08   5.21974e-07 DIIS
   @RHF iter   9:  -384.54058765648381   -1.37932e-08   2.14873e-07 DIIS
   @RHF iter  10:  -384.54058765894399   -2.46018e-09   7.56805e-08 DIIS
   @RHF iter  11:  -384.54058765921513   -2.71143e-10   4.20724e-08 DIIS
   @RHF iter  12:  -384.54058765926413   -4.89990e-11   8.17930e-09 DIIS
   @RHF iter  13:  -384.54058765926857   -4.43379e-12   2.98677e-09 DIIS
   @RHF iter  14:  -384.54058765926914   -5.68434e-13   7.64237e-10 DIIS
   @RHF iter  15:  -384.54058765926885    2.84217e-13   2.34512e-10 DIIS
   @RHF iter  16:  -384.54058765926624    2.61480e-12   8.97324e-11 DIIS
  Energy and wave function converged.

  ==> Post-Iterations <==

    Orbital Energies [Eh]
    ---------------------

    Doubly Occupied:

       1A    -20.267217     2A    -20.263449     3A    -11.120844
       4A    -11.107035     5A    -11.092332     6A    -11.086130
       7A    -11.071993     8A    -11.057436     9A     -1.153277
      10A     -1.038875    11A     -0.920020    12A     -0.880108
      13A     -0.800176    14A     -0.705506    15A     -0.675002
      16A     -0.513336    17A     -0.500590    18A     -0.469238
      19A     -0.467011    20A     -0.438142    21A     -0.419448
      22A     -0.411057    23A     -0.396448    24A     -0.363365
      25A     -0.362709    26A     -0.354048    27A     -0.345296
      28A     -0.339725    29A     -0.318053    30A     -0.304463
      31A     -0.186244    32A     -0.175392    33A     -0.165253

    Virtual:

      34A      0.290601    35A      0.325406    36A      0.341986
      37A      0.347869    38A      0.365867    39A      0.368330
      40A      0.380301    41A      0.397696    42A      0.402084
      43A      0.414225    44A      0.422133    45A      0.439528
      46A      0.474898    47A      0.490706    48A      0.515038
      49A      0.551992    50A      0.556692    51A      0.606552
      52A      0.680409    53A      0.701687    54A      0.709094
      55A      0.723222    56A      0.732737    57A      0.747492
      58A      0.763666    59A      0.802840    60A      0.867062
      61A      0.893700    62A      0.915647    63A      0.941347
      64A      0.951564    65A      0.962359    66A      0.987224
      67A      0.991259    68A      1.003538    69A      1.011262
      70A      1.016325    71A      1.022011    72A      1.029864
      73A      1.036537    74A      1.041142    75A      1.045812
      76A      1.053476    77A      1.054089    78A      1.062238
      79A      1.079549    80A      1.085123    81A      1.111415
      82A      1.138717    83A      1.173724    84A      1.194604
      85A      1.231103    86A      1.242797    87A      1.268245
      88A      1.305600    89A      1.315572    90A      1.398535
      91A      1.422052    92A      1.476941    93A      1.494954
      94A      1.509262    95A      1.537164    96A      1.553094
      97A      1.601581    98A      1.622015    99A      1.639088
     100A      1.657572   101A      1.664081   102A      1.715691
     103A      1.746684   104A      1.768397   105A      1.793499
     106A      1.814746   107A      1.823789   108A      1.834501
     109A      1.853986   110A      1.871341   111A      1.918537
     112A      1.970812   113A      2.008099   114A      2.011890
     115A      2.016577   116A      2.039818   117A      2.044614
     118A      2.051450   119A      2.061314   120A      2.076568
     121A      2.095235   122A      2.109923   123A      2.114957
     124A      2.137905   125A      2.142278   126A      2.152533
     127A      2.157292   128A      2.174729   129A      2.183148
     130A      2.187841   131A      2.208433   132A      2.226341
     133A      2.254558   134A      2.302548   135A      2.315799
     136A      2.358673   137A      2.380375   138A      2.406356
     139A      2.434247   140A      2.456738   141A      2.469815
     142A      2.481182   143A      2.527003   144A      2.558811
     145A      2.579051   146A      2.612607   147A      2.666423
     148A      2.678720   149A      2.683922   150A      2.719190
     151A      2.733135   152A      2.768104   153A      2.787571
     154A      2.838609   155A      2.880346   156A      2.895081
     157A      2.911519   158A      2.920704   159A      2.949995
     160A      2.997291   161A      3.010715   162A      3.035913
     163A      3.066007   164A      3.072250   165A      3.121588
     166A      3.155015   167A      3.211877   168A      3.250613
     169A      3.292548   170A      3.304471   171A      3.362206
     172A      3.632157   173A      3.767542   174A      3.815752
     175A      4.050438   176A      4.100480   177A      4.199224

    Final Occupation by Irrep:
              A
    DOCC [    33 ]

  @RHF Final Energy:  -384.54058765926624

   => Energetics <=

    Nuclear Repulsion Energy =            373.3714169371219782
    One-Electron Energy =               -1276.2855781149701215
    Two-Electron Energy =                 518.3735735185820204
    Total Energy =                       -384.5405876592661798

Computation Completed

Properties will be evaluated at   0.000000,   0.000000,   0.000000 [a0]

Properties computed using the SCF density matrix

  Nuclear Dipole Moment: [e a0]
     X:   -11.7225      Y:    -7.2535      Z:     4.9974

  Electronic Dipole Moment: [e a0]
     X:     9.2091      Y:     5.5731      Z:    -4.2462

  Dipole Moment: [e a0]
     X:    -2.5135      Y:    -1.6805      Z:     0.7512     Total:     3.1154

  Dipole Moment: [D]
     X:    -6.3886      Y:    -4.2714      Z:     1.9093     Total:     7.9186

*** tstop() called on ds3 at Mon Apr 27 10:42:20 2020
Module time:
	user time   =      41.99 seconds =       0.70 minutes
	system time =      16.03 seconds =       0.27 minutes
	total time  =        346 seconds =       5.77 minutes
Total time:
	user time   =      41.99 seconds =       0.70 minutes
	system time =      16.03 seconds =       0.27 minutes
	total time  =        346 seconds =       5.77 minutes
                                     G D M A

                                 by Anthony Stone

                           version 2.2.06, 22 June 2011

               Distributed Multipoles from Gaussian wavefunctions

Starting at 10:42:20 on 27 Apr 2020

Using SCF density matrix from file ./SSI/SSI-070GLU-073LYS-1-dimer.test.2628.fchk

                         Distributed Multipole Analysis

Standard DMA

Positions and radii in angstrom
Multipole moments in atomic units, ea_0^k for rank k

C          x = -0.142290  y = -0.008123  z = -1.415894 angstrom
           Maximum rank =  0   Radius =  0.650 angstrom
                   Q00  =  -0.176188

C          x = -0.265290  y =  0.074877  z = -2.912894 angstrom
           Maximum rank =  0   Radius =  0.650 angstrom
                   Q00  =  -0.192889

C          x =  1.063710  y =  0.740877  z = -0.833894 angstrom
           Maximum rank =  0   Radius =  0.650 angstrom
                   Q00  =   1.035120

O          x =  1.638710  y =  1.575877  z = -1.560894 angstrom
           Maximum rank =  0   Radius =  0.650 angstrom
                   Q00  =  -0.948692

O          x =  1.436710  y =  0.501877  z =  0.347106 angstrom
           Maximum rank =  0   Radius =  0.650 angstrom
                   Q00  =  -0.943922

H          x = -1.043290  y =  0.436877  z = -0.989894 angstrom
           Maximum rank =  0   Radius =  0.325 angstrom
                   Q00  =   0.046431

H          x = -0.085290  y = -1.056123  z = -1.123894 angstrom
           Maximum rank =  0   Radius =  0.325 angstrom
                   Q00  =   0.035588

H          x =  0.575710  y = -0.440123  z = -3.376894 angstrom
           Maximum rank =  0   Radius =  0.325 angstrom
                   Q00  =   0.071505

H          x = -0.262290  y =  1.116877  z = -3.233894 angstrom
           Maximum rank =  0   Radius =  0.325 angstrom
                   Q00  =   0.093678

H          x = -1.208420  y = -0.384993  z = -3.243094 angstrom
           Maximum rank =  0   Radius =  0.325 angstrom
                   Q00  =   0.013358

C          x = -0.837290  y = -1.101123  z =  1.690106 angstrom
           Maximum rank =  0   Radius =  0.650 angstrom
                   Q00  =  -0.030375

C          x = -2.340290  y = -1.508123  z =  1.639106 angstrom
           Maximum rank =  0   Radius =  0.650 angstrom
                   Q00  =  -0.265821

C          x = -0.526290  y = -0.317123  z =  3.003106 angstrom
           Maximum rank =  0   Radius =  0.650 angstrom
                   Q00  =  -0.241755

H          x = -0.168290  y = -1.945123  z =  1.531106 angstrom
           Maximum rank =  0   Radius =  0.325 angstrom
                   Q00  =   0.047655

H          x = -0.728290  y = -0.370123  z =  0.923106 angstrom
           Maximum rank =  0   Radius =  0.325 angstrom
                   Q00  =   0.067068

H          x = -2.654290  y = -1.517123  z =  0.593106 angstrom
           Maximum rank =  0   Radius =  0.325 angstrom
                   Q00  =   0.075733

H          x = -2.932290  y = -0.739123  z =  2.140106 angstrom
           Maximum rank =  0   Radius =  0.325 angstrom
                   Q00  =   0.063305

H          x = -1.225290  y =  0.518877  z =  3.080106 angstrom
           Maximum rank =  0   Radius =  0.325 angstrom
                   Q00  =   0.056438

H          x = -0.715290  y = -0.976123  z =  3.853106 angstrom
           Maximum rank =  0   Radius =  0.325 angstrom
                   Q00  =   0.023312

H          x = -2.559610  y = -2.491473  z =  2.080606 angstrom
           Maximum rank =  0   Radius =  0.325 angstrom
                   Q00  =   0.053729

H          x =  0.486730  y =  0.099677  z =  3.103416 angstrom
           Maximum rank =  0   Radius =  0.325 angstrom
                   Q00  =   0.116725

Total multipoles referred to origin at
           x =   0.000000,  y =    0.000000,  z =    0.000000 angstrom
                   Q00  =  -1.000000

Finished at 10:42:20 on 27 Apr 2020

  DMA results are available in the Python driver through the
	  variable('DMA DISTRIBUTED MULTIPOLES')
  and
	  variable('DMA TOTAL MULTIPOLES')
  commands.

    Psi4 stopped on: Monday, 27 April 2020 10:42AM
    Psi4 wall time for execution: 0:05:45.96

*** Psi4 exiting successfully. Buy a developer a beer!
