                               Psi4 1.3.2 release

  ==> Input File <==

--------------------------------------------------------------------------
import numpy as np
set {scf_type pk
basis cc-pvdz
d_convergence 10
gdma_switch   0
gdma_limit    0
gdma_origin   [ 0.0,  0.0,  0.0 ]
}
molecule test {
    units Angstrom
    0 1
    --
    0 1
    C               -0.003764175273772    -1.758117997840769     3.194536627941414
    C                1.035235824726227     0.943882002159231     0.709536627941414
    C                0.390235824726228     0.268882002159231     1.760536627941414
    C                1.997235824726228     0.259882002159231    -0.041463372058586
    C                0.700235824726228    -1.066117997840769     2.050536627941414
    C                2.309235824726227    -1.070117997840769     0.250536627941414
    C                1.682235824726228    -1.729117997840769     1.296536627941414
    H                0.786235824726228     1.972882002159231     0.489536627941414
    H               -0.359764175273772     0.783882002159231     2.342536627941414
    H                2.513235824726228     0.747882002159231    -0.853463372058586
    H                3.063235824726227    -1.585117997840769    -0.324463372058586
    H                0.068235824726228    -1.143117997840769     4.093536627941415
    H                0.512235824726228    -2.694117997840769     3.400536627941415
    H                1.939235824726228    -2.757117997840769     1.514536627941414
    H               -1.067188175273772    -1.955233997840769     2.993846627941414
    C               -1.747764175273772     0.989882002159231    -1.778463372058586
    C               -3.288764175273772     0.897882002159231    -1.976463372058586
    C               -0.991764175273772    -0.234117997840769    -2.299463372058586
    C               -1.187764175273772     2.228882002159231    -2.470463372058586
    H               -1.547764175273772     1.080882002159231    -0.709463372058586
    H               -3.686764175273773     1.896882002159231    -1.827463372058586
    H               -1.054764175273773    -0.302117997840769    -3.387463372058586
    H                0.057235824726228    -0.171117997840769    -2.011463372058586
    H               -1.416764175273772    -1.130117997840769    -1.858463372058586
    H               -0.119764175273772     2.234882002159231    -2.310463372058586
    H               -1.353764175273772     2.163882002159232    -3.544463372058585
    H               -3.778734375273773     0.279322002159231    -1.210103372058586
    H               -3.591554175273773     0.603060002159231    -2.992041372058585
    H               -1.614603175273772     3.169082002159231    -2.091211372058586

}
e, wfn = energy('scf', return_wfn=True)
gdma(wfn)
dmavals = variable('DMA DISTRIBUTED MULTIPOLES')
charges = np.array(dmavals)
print(charges)
np.save('SSI-109PHE-113ILE-1-dimer.npy', np.array(charges))--------------------------------------------------------------------------

*** tstart() called on ds3
*** at Tue Apr 28 03:59:04 2020

   => Loading Basis Set <=

    Name: CC-PVDZ
    Role: ORBITAL
    Keyword: BASIS
    atoms 1-7, 16-19  entry C          line   138 file /theoryfs2/ds/metcalf/miniconda2/envs/tf2gpu/share/psi4/basis/cc-pvdz.gbs
    atoms 8-15, 20-29 entry H          line    22 file /theoryfs2/ds/metcalf/miniconda2/envs/tf2gpu/share/psi4/basis/cc-pvdz.gbs

         ---------------------------------------------------------
                                   SCF
               by Justin Turney, Rob Parrish, Andy Simmonett
                          and Daniel G. A. Smith
                              RHF Reference
                        1 Threads,    500 MiB Core
         ---------------------------------------------------------

  ==> Geometry <==

    Molecular point group: c1
    Full point group: C1

    Geometry (in Angstrom), charge = 0, multiplicity = 1:

       Center              X                  Y                   Z               Mass
    ------------   -----------------  -----------------  -----------------  -----------------
         C           -0.003764175274    -1.758117997841     3.194536627941    12.000000000000
         C            1.035235824726     0.943882002159     0.709536627941    12.000000000000
         C            0.390235824726     0.268882002159     1.760536627941    12.000000000000
         C            1.997235824726     0.259882002159    -0.041463372059    12.000000000000
         C            0.700235824726    -1.066117997841     2.050536627941    12.000000000000
         C            2.309235824726    -1.070117997841     0.250536627941    12.000000000000
         C            1.682235824726    -1.729117997841     1.296536627941    12.000000000000
         H            0.786235824726     1.972882002159     0.489536627941     1.007825032230
         H           -0.359764175274     0.783882002159     2.342536627941     1.007825032230
         H            2.513235824726     0.747882002159    -0.853463372059     1.007825032230
         H            3.063235824726    -1.585117997841    -0.324463372059     1.007825032230
         H            0.068235824726    -1.143117997841     4.093536627941     1.007825032230
         H            0.512235824726    -2.694117997841     3.400536627941     1.007825032230
         H            1.939235824726    -2.757117997841     1.514536627941     1.007825032230
         H           -1.067188175274    -1.955233997841     2.993846627941     1.007825032230
         C           -1.747764175274     0.989882002159    -1.778463372059    12.000000000000
         C           -3.288764175274     0.897882002159    -1.976463372059    12.000000000000
         C           -0.991764175274    -0.234117997841    -2.299463372059    12.000000000000
         C           -1.187764175274     2.228882002159    -2.470463372059    12.000000000000
         H           -1.547764175274     1.080882002159    -0.709463372059     1.007825032230
         H           -3.686764175274     1.896882002159    -1.827463372059     1.007825032230
         H           -1.054764175274    -0.302117997841    -3.387463372059     1.007825032230
         H            0.057235824726    -0.171117997841    -2.011463372059     1.007825032230
         H           -1.416764175274    -1.130117997841    -1.858463372059     1.007825032230
         H           -0.119764175274     2.234882002159    -2.310463372059     1.007825032230
         H           -1.353764175274     2.163882002159    -3.544463372059     1.007825032230
         H           -3.778734375274     0.279322002159    -1.210103372059     1.007825032230
         H           -3.591554175274     0.603060002159    -2.992041372059     1.007825032230
         H           -1.614603175274     3.169082002159    -2.091211372059     1.007825032230

  Running in c1 symmetry.

  Rotational constants: A =      0.05223  B =      0.01643  C =      0.01479 [cm^-1]
  Rotational constants: A =   1565.82253  B =    492.45302  C =    443.47525 [MHz]
  Nuclear repulsion =  580.219390280101379

  Charge       = 0
  Multiplicity = 1
  Electrons    = 84
  Nalpha       = 42
  Nbeta        = 42

  ==> Algorithm <==

  SCF Algorithm Type is PK.
  DIIS enabled.
  MOM disabled.
  Fractional occupation disabled.
  Guess Type is SAD.
  Energy threshold   = 1.00e-06
  Density threshold  = 1.00e-10
  Integral threshold = 0.00e+00

  ==> Primary Basis <==

  Basis Set: CC-PVDZ
    Blend: CC-PVDZ
    Number of shells: 120
    Number of basis function: 244
    Number of Cartesian functions: 255
    Spherical Harmonics?: true
    Max angular momentum: 2

  ==> Pre-Iterations <==

   -------------------------------------------------------
    Irrep   Nso     Nmo     Nalpha   Nbeta   Ndocc  Nsocc
   -------------------------------------------------------
     A        244     244       0       0       0       0
   -------------------------------------------------------
    Total     244     244      42      42      42       0
   -------------------------------------------------------

  ==> Integral Setup <==

  Using integral reordering PK algorithm.
  Sizing the integral batches needed.
  Building batch lookup table.
   Calculation information:
      Number of atoms:                  29
      Number of AO shells:             120
      Number of primitives:            332
      Number of atomic orbitals:       255
      Number of basis functions:       244

      Integral cutoff                 1.00e-12
      Number of threads:                 1

	Batch   1 pq = [       0,    9405] index = [             0,44231715] size =     44231715
	Batch   2 pq = [    9405,   13301] index = [      44231715,88464951] size =     44233236
	Batch   3 pq = [   13301,   16290] index = [      88464951,132690195] size =     44225244
	Batch   4 pq = [   16290,   18810] index = [     132690195,176917455] size =     44227260
	Batch   5 pq = [   18810,   21030] index = [     176917455,221140965] size =     44223510
	Batch   6 pq = [   21030,   23037] index = [     221140965,265363203] size =     44222238
	Batch   7 pq = [   23037,   24883] index = [     265363203,309594286] size =     44231083
	Batch   8 pq = [   24883,   26601] index = [     309594286,353819901] size =     44225615
	Batch   9 pq = [   26601,   28214] index = [     353819901,398029005] size =     44209104
	Batch  10 pq = [   28214,   29740] index = [     398029005,442248670] size =     44219665
	Batch  11 pq = [   29740,   29890] index = [     442248670,446720995] size =      4472325
  Task number: 41
  Buffer size: 11059200
  Buffer per thread: 2
  We computed 26001264 shell quartets total.
  Whereas there are 26357430 unique shell quartets.

  ==> DiskJK: Disk-Based J/K Matrices <==

    J tasked:                  Yes
    K tasked:                  Yes
    wK tasked:                  No
    Memory [MiB]:              375
    Schwarz Cutoff:          1E-12

    OpenMP threads:              1

  Minimum eigenvalue in the overlap matrix is 3.2608481502E-04.
  Using Symmetric Orthogonalization.

  SCF Guess: Superposition of Atomic Densities via on-the-fly atomic UHF.

  ==> Iterations <==

                        Total Energy        Delta E     RMS |[F,P]|

   @RHF iter SAD:  -425.82563629086508   -4.25826e+02   0.00000e+00
   @RHF iter   1:  -426.77373603986575   -9.48100e-01   2.63310e-03 DIIS
   @RHF iter   2:  -427.02041062836213   -2.46675e-01   1.11048e-03 DIIS
   @RHF iter   3:  -427.06018480303061   -3.97742e-02   2.44211e-04 DIIS
   @RHF iter   4:  -427.06345697400485   -3.27217e-03   5.76618e-05 DIIS
   @RHF iter   5:  -427.06358474951605   -1.27776e-04   1.37445e-05 DIIS
   @RHF iter   6:  -427.06359258815934   -7.83864e-06   4.36772e-06 DIIS
   @RHF iter   7:  -427.06359337237791   -7.84219e-07   1.22212e-06 DIIS
   @RHF iter   8:  -427.06359344074963   -6.83717e-08   2.56963e-07 DIIS
   @RHF iter   9:  -427.06359344637167   -5.62204e-09   9.42023e-08 DIIS
   @RHF iter  10:  -427.06359344712274   -7.51072e-10   3.99648e-08 DIIS
   @RHF iter  11:  -427.06359344732107   -1.98327e-10   1.84202e-08 DIIS
   @RHF iter  12:  -427.06359344738070   -5.96287e-11   8.58113e-09 DIIS
   @RHF iter  13:  -427.06359344739167   -1.09708e-11   3.58031e-09 DIIS
   @RHF iter  14:  -427.06359344739474   -3.06954e-12   1.05990e-09 DIIS
   @RHF iter  15:  -427.06359344739440    3.41061e-13   3.17454e-10 DIIS
   @RHF iter  16:  -427.06359344739303    1.36424e-12   1.06489e-10 DIIS
   @RHF iter  17:  -427.06359344739110    1.93268e-12   3.79302e-11 DIIS
  Energy and wave function converged.

  ==> Post-Iterations <==

    Orbital Energies [Eh]
    ---------------------

    Doubly Occupied:

       1A    -11.244935     2A    -11.240862     3A    -11.236911
       4A    -11.234360     5A    -11.234252     6A    -11.233735
       7A    -11.230889     8A    -11.219189     9A    -11.212051
      10A    -11.208700    11A    -11.203082    12A     -1.150599
      13A     -1.072201    14A     -1.043030    15A     -1.012891
      16A     -0.931099    17A     -0.922185    18A     -0.917586
      19A     -0.825310    20A     -0.796856    21A     -0.758695
      22A     -0.691461    23A     -0.633969    24A     -0.630324
      25A     -0.622107    26A     -0.587284    27A     -0.585107
      28A     -0.576062    29A     -0.574864    30A     -0.562102
      31A     -0.537145    32A     -0.534919    33A     -0.525829
      34A     -0.500859    35A     -0.487294    36A     -0.484927
      37A     -0.482496    38A     -0.454909    39A     -0.450016
      40A     -0.447907    41A     -0.333502    42A     -0.321121

    Virtual:

      43A      0.131124    44A      0.136421    45A      0.169571
      46A      0.191923    47A      0.200777    48A      0.211873
      49A      0.225880    50A      0.233572    51A      0.241202
      52A      0.250843    53A      0.252014    54A      0.263719
      55A      0.272422    56A      0.283762    57A      0.289083
      58A      0.293346    59A      0.302410    60A      0.311953
      61A      0.314539    62A      0.337459    63A      0.360958
      64A      0.371767    65A      0.379106    66A      0.411414
      67A      0.419757    68A      0.450450    69A      0.459102
      70A      0.473837    71A      0.499302    72A      0.563093
      73A      0.574318    74A      0.580518    75A      0.595493
      76A      0.607378    77A      0.621766    78A      0.627541
      79A      0.633504    80A      0.676752    81A      0.690444
      82A      0.705217    83A      0.723115    84A      0.734980
      85A      0.739442    86A      0.746641    87A      0.754220
      88A      0.760119    89A      0.776952    90A      0.779194
      91A      0.789718    92A      0.801371    93A      0.822078
      94A      0.832743    95A      0.843785    96A      0.860110
      97A      0.866228    98A      0.868885    99A      0.875538
     100A      0.882969   101A      0.890265   102A      0.892204
     103A      0.895095   104A      0.899838   105A      0.904425
     106A      0.909305   107A      0.918637   108A      0.921371
     109A      0.928501   110A      0.936129   111A      0.942260
     112A      0.962555   113A      0.965839   114A      0.979705
     115A      0.982795   116A      1.003527   117A      1.013530
     118A      1.034193   119A      1.046913   120A      1.058103
     121A      1.118426   122A      1.129347   123A      1.135046
     124A      1.151173   125A      1.155875   126A      1.160553
     127A      1.202779   128A      1.211942   129A      1.233159
     130A      1.244129   131A      1.250320   132A      1.263582
     133A      1.292615   134A      1.306223   135A      1.316221
     136A      1.324330   137A      1.383548   138A      1.392900
     139A      1.413715   140A      1.419561   141A      1.498575
     142A      1.522109   143A      1.536544   144A      1.550207
     145A      1.579488   146A      1.606126   147A      1.662643
     148A      1.676859   149A      1.679991   150A      1.686176
     151A      1.696252   152A      1.701665   153A      1.710023
     154A      1.712046   155A      1.738745   156A      1.740196
     157A      1.746672   158A      1.769497   159A      1.792170
     160A      1.812953   161A      1.837818   162A      1.843829
     163A      1.860390   164A      1.874439   165A      1.886925
     166A      1.895951   167A      1.903397   168A      1.911840
     169A      1.917914   170A      1.928264   171A      1.938666
     172A      1.943473   173A      1.949591   174A      1.956485
     175A      1.960346   176A      1.971082   177A      1.973760
     178A      1.995350   179A      1.998962   180A      2.007624
     181A      2.024264   182A      2.029495   183A      2.038532
     184A      2.049358   185A      2.059847   186A      2.066598
     187A      2.082833   188A      2.100817   189A      2.119957
     190A      2.129659   191A      2.130770   192A      2.152795
     193A      2.156567   194A      2.161833   195A      2.167695
     196A      2.194150   197A      2.233929   198A      2.238555
     199A      2.262438   200A      2.268952   201A      2.285839
     202A      2.292640   203A      2.313276   204A      2.320169
     205A      2.340718   206A      2.346697   207A      2.364261
     208A      2.366962   209A      2.396318   210A      2.439245
     211A      2.465850   212A      2.487961   213A      2.513395
     214A      2.525636   215A      2.563354   216A      2.603614
     217A      2.622801   218A      2.630490   219A      2.713212
     220A      2.721551   221A      2.729293   222A      2.755055
     223A      2.765804   224A      2.768911   225A      2.773833
     226A      2.787689   227A      2.799014   228A      2.805312
     229A      2.817602   230A      2.844304   231A      2.856739
     232A      2.857341   233A      2.869103   234A      2.891595
     235A      2.970337   236A      2.996344   237A      3.013938
     238A      3.039847   239A      3.045438   240A      3.109081
     241A      3.144245   242A      3.192371   243A      3.286617
     244A      3.950156

    Final Occupation by Irrep:
              A
    DOCC [    42 ]

  @RHF Final Energy:  -427.06359344739110

   => Energetics <=

    Nuclear Repulsion Energy =            580.2193902801013792
    One-Electron Energy =               -1726.6587254649318766
    Two-Electron Energy =                 719.3757417374393981
    Total Energy =                       -427.0635934473910993

Computation Completed

Properties will be evaluated at   0.000000,   0.000000,   0.000000 [a0]

Properties computed using the SCF density matrix

  Nuclear Dipole Moment: [e a0]
     X:    -9.9857      Y:     2.9948      Z:    -7.7679

  Electronic Dipole Moment: [e a0]
     X:    10.0216      Y:    -3.0902      Z:     8.0010

  Dipole Moment: [e a0]
     X:     0.0359      Y:    -0.0954      Z:     0.2331     Total:     0.2544

  Dipole Moment: [D]
     X:     0.0912      Y:    -0.2425      Z:     0.5925     Total:     0.6467

*** tstop() called on ds3 at Tue Apr 28 04:08:01 2020
Module time:
	user time   =     177.32 seconds =       2.96 minutes
	system time =      62.05 seconds =       1.03 minutes
	total time  =        537 seconds =       8.95 minutes
Total time:
	user time   =     177.32 seconds =       2.96 minutes
	system time =      62.05 seconds =       1.03 minutes
	total time  =        537 seconds =       8.95 minutes
                                     G D M A

                                 by Anthony Stone

                           version 2.2.06, 22 June 2011

               Distributed Multipoles from Gaussian wavefunctions

Starting at 4:8:2 on 28 Apr 2020

Using SCF density matrix from file ./SSI/SSI-109PHE-113ILE-1-dimer.test.27113.fchk

                         Distributed Multipole Analysis

Standard DMA

Positions and radii in angstrom
Multipole moments in atomic units, ea_0^k for rank k

C          x = -0.003764  y = -1.758118  z =  3.194537 angstrom
           Maximum rank =  0   Radius =  0.650 angstrom
                   Q00  =  -0.206023

C          x =  1.035236  y =  0.943882  z =  0.709537 angstrom
           Maximum rank =  0   Radius =  0.650 angstrom
                   Q00  =  -0.074754

C          x =  0.390236  y =  0.268882  z =  1.760537 angstrom
           Maximum rank =  0   Radius =  0.650 angstrom
                   Q00  =  -0.078522

C          x =  1.997236  y =  0.259882  z = -0.041463 angstrom
           Maximum rank =  0   Radius =  0.650 angstrom
                   Q00  =  -0.066412

C          x =  0.700236  y = -1.066118  z =  2.050537 angstrom
           Maximum rank =  0   Radius =  0.650 angstrom
                   Q00  =  -0.099271

C          x =  2.309236  y = -1.070118  z =  0.250537 angstrom
           Maximum rank =  0   Radius =  0.650 angstrom
                   Q00  =  -0.018146

C          x =  1.682236  y = -1.729118  z =  1.296537 angstrom
           Maximum rank =  0   Radius =  0.650 angstrom
                   Q00  =  -0.075567

H          x =  0.786236  y =  1.972882  z =  0.489537 angstrom
           Maximum rank =  0   Radius =  0.325 angstrom
                   Q00  =   0.070128

H          x = -0.359764  y =  0.783882  z =  2.342537 angstrom
           Maximum rank =  0   Radius =  0.325 angstrom
                   Q00  =   0.057693

H          x =  2.513236  y =  0.747882  z = -0.853463 angstrom
           Maximum rank =  0   Radius =  0.325 angstrom
                   Q00  =   0.062511

H          x =  3.063236  y = -1.585118  z = -0.324463 angstrom
           Maximum rank =  0   Radius =  0.325 angstrom
                   Q00  =   0.065818

H          x =  0.068236  y = -1.143118  z =  4.093537 angstrom
           Maximum rank =  0   Radius =  0.325 angstrom
                   Q00  =   0.100218

H          x =  0.512236  y = -2.694118  z =  3.400537 angstrom
           Maximum rank =  0   Radius =  0.325 angstrom
                   Q00  =   0.097171

H          x =  1.939236  y = -2.757118  z =  1.514537 angstrom
           Maximum rank =  0   Radius =  0.325 angstrom
                   Q00  =   0.061707

H          x = -1.067188  y = -1.955234  z =  2.993847 angstrom
           Maximum rank =  0   Radius =  0.325 angstrom
                   Q00  =   0.104284

C          x = -1.747764  y =  0.989882  z = -1.778463 angstrom
           Maximum rank =  0   Radius =  0.650 angstrom
                   Q00  =   0.020255

C          x = -3.288764  y =  0.897882  z = -1.976463 angstrom
           Maximum rank =  0   Radius =  0.650 angstrom
                   Q00  =  -0.265258

C          x = -0.991764  y = -0.234118  z = -2.299463 angstrom
           Maximum rank =  0   Radius =  0.650 angstrom
                   Q00  =  -0.237044

C          x = -1.187764  y =  2.228882  z = -2.470463 angstrom
           Maximum rank =  0   Radius =  0.650 angstrom
                   Q00  =  -0.247645

H          x = -1.547764  y =  1.080882  z = -0.709463 angstrom
           Maximum rank =  0   Radius =  0.325 angstrom
                   Q00  =   0.021062

H          x = -3.686764  y =  1.896882  z = -1.827463 angstrom
           Maximum rank =  0   Radius =  0.325 angstrom
                   Q00  =   0.074200

H          x = -1.054764  y = -0.302118  z = -3.387463 angstrom
           Maximum rank =  0   Radius =  0.325 angstrom
                   Q00  =   0.069452

H          x =  0.057236  y = -0.171118  z = -2.011463 angstrom
           Maximum rank =  0   Radius =  0.325 angstrom
                   Q00  =   0.092071

H          x = -1.416764  y = -1.130118  z = -1.858463 angstrom
           Maximum rank =  0   Radius =  0.325 angstrom
                   Q00  =   0.080858

H          x = -0.119764  y =  2.234882  z = -2.310463 angstrom
           Maximum rank =  0   Radius =  0.325 angstrom
                   Q00  =   0.073898

H          x = -1.353764  y =  2.163882  z = -3.544463 angstrom
           Maximum rank =  0   Radius =  0.325 angstrom
                   Q00  =   0.074504

H          x = -3.778734  y =  0.279322  z = -1.210103 angstrom
           Maximum rank =  0   Radius =  0.325 angstrom
                   Q00  =   0.084636

H          x = -3.591554  y =  0.603060  z = -2.992041 angstrom
           Maximum rank =  0   Radius =  0.325 angstrom
                   Q00  =   0.081207

H          x = -1.614603  y =  3.169082  z = -2.091211 angstrom
           Maximum rank =  0   Radius =  0.325 angstrom
                   Q00  =   0.076967

Total multipoles referred to origin at
           x =   0.000000,  y =    0.000000,  z =    0.000000 angstrom
                   Q00  =  -0.000000

Finished at 4:8:2 on 28 Apr 2020

  DMA results are available in the Python driver through the
	  variable('DMA DISTRIBUTED MULTIPOLES')
  and
	  variable('DMA TOTAL MULTIPOLES')
  commands.

    Psi4 stopped on: Tuesday, 28 April 2020 04:08AM
    Psi4 wall time for execution: 0:08:57.82

*** Psi4 exiting successfully. Buy a developer a beer!
