                               Psi4 1.3.2 release

  ==> Input File <==

--------------------------------------------------------------------------
import numpy as np
set {scf_type pk
basis cc-pvdz
d_convergence 10
gdma_switch   0
gdma_limit    0
gdma_origin   [ 0.0,  0.0,  0.0 ]
}
molecule test {
    units Angstrom
    -1 1
    --
    -1 1
    C                1.336150686744666     1.387729249511523    -1.334642214792838
    C                1.671150686744666     0.617729249511523    -0.022642214792838
    O                1.932150686744667    -0.607270750488477    -0.026642214792838
    O                1.539150686744666     1.241729249511523     1.062357785207162
    H                1.719150686744666     2.407729249511523    -1.255642214792838
    H                0.248150686744666     1.457729249511523    -1.408642214792838
    H                1.705360686744666     0.958569249511523    -2.277772214792838
    C               -1.903849313255334    -0.402270750488477    -0.069642214792838
    C               -3.206849313255334    -0.441270750488477     0.680357785207162
    C               -1.354849313255334    -1.778270750488477    -0.303642214792838
    H               -2.049849313255334     0.078729249511523    -1.037642214792838
    H               -1.184849313255333     0.186729249511523     0.500357785207162
    H               -3.021849313255334    -0.877270750488477     1.659357785207162
    H               -3.907849313255334    -1.097270750488477     0.158357785207162
    H               -2.071849313255334    -2.288270750488477    -0.949642214792838
    H               -0.389849313255334    -1.718270750488477    -0.807642214792838
    H               -3.684229313255334     0.532149249511523     0.866287785207162
    H               -1.277659313255334    -2.371050750488477     0.619747785207162

}
e, wfn = energy('scf', return_wfn=True)
gdma(wfn)
dmavals = variable('DMA DISTRIBUTED MULTIPOLES')
charges = np.array(dmavals)
print(charges)
np.save('SSI-007GLU-033LYS-1-dimer.npy', np.array(charges))--------------------------------------------------------------------------

*** tstart() called on ds3
*** at Tue Apr 28 08:55:23 2020

   => Loading Basis Set <=

    Name: CC-PVDZ
    Role: ORBITAL
    Keyword: BASIS
    atoms 1-2, 8-10  entry C          line   138 file /theoryfs2/ds/metcalf/miniconda2/envs/tf2gpu/share/psi4/basis/cc-pvdz.gbs
    atoms 3-4        entry O          line   198 file /theoryfs2/ds/metcalf/miniconda2/envs/tf2gpu/share/psi4/basis/cc-pvdz.gbs
    atoms 5-7, 11-18 entry H          line    22 file /theoryfs2/ds/metcalf/miniconda2/envs/tf2gpu/share/psi4/basis/cc-pvdz.gbs

         ---------------------------------------------------------
                                   SCF
               by Justin Turney, Rob Parrish, Andy Simmonett
                          and Daniel G. A. Smith
                              RHF Reference
                        1 Threads,    500 MiB Core
         ---------------------------------------------------------

  ==> Geometry <==

    Molecular point group: c1
    Full point group: C1

    Geometry (in Angstrom), charge = -1, multiplicity = 1:

       Center              X                  Y                   Z               Mass
    ------------   -----------------  -----------------  -----------------  -----------------
         C            1.336150686745     1.387729249512    -1.334642214793    12.000000000000
         C            1.671150686745     0.617729249512    -0.022642214793    12.000000000000
         O            1.932150686745    -0.607270750488    -0.026642214793    15.994914619570
         O            1.539150686745     1.241729249512     1.062357785207    15.994914619570
         H            1.719150686745     2.407729249512    -1.255642214793     1.007825032230
         H            0.248150686745     1.457729249512    -1.408642214793     1.007825032230
         H            1.705360686745     0.958569249512    -2.277772214793     1.007825032230
         C           -1.903849313255    -0.402270750488    -0.069642214793    12.000000000000
         C           -3.206849313255    -0.441270750488     0.680357785207    12.000000000000
         C           -1.354849313255    -1.778270750488    -0.303642214793    12.000000000000
         H           -2.049849313255     0.078729249512    -1.037642214793     1.007825032230
         H           -1.184849313255     0.186729249512     0.500357785207     1.007825032230
         H           -3.021849313255    -0.877270750488     1.659357785207     1.007825032230
         H           -3.907849313255    -1.097270750488     0.158357785207     1.007825032230
         H           -2.071849313255    -2.288270750488    -0.949642214793     1.007825032230
         H           -0.389849313255    -1.718270750488    -0.807642214793     1.007825032230
         H           -3.684229313255     0.532149249512     0.866287785207     1.007825032230
         H           -1.277659313255    -2.371050750488     0.619747785207     1.007825032230

  Running in c1 symmetry.

  Rotational constants: A =      0.12089  B =      0.03348  C =      0.03199 [cm^-1]
  Rotational constants: A =   3624.32193  B =   1003.71890  C =    959.10293 [MHz]
  Nuclear repulsion =  294.420514249367102

  Charge       = -1
  Multiplicity = 1
  Electrons    = 58
  Nalpha       = 29
  Nbeta        = 29

  ==> Algorithm <==

  SCF Algorithm Type is PK.
  DIIS enabled.
  MOM disabled.
  Fractional occupation disabled.
  Guess Type is SAD.
  Energy threshold   = 1.00e-06
  Density threshold  = 1.00e-10
  Integral threshold = 0.00e+00

  ==> Primary Basis <==

  Basis Set: CC-PVDZ
    Blend: CC-PVDZ
    Number of shells: 75
    Number of basis function: 153
    Number of Cartesian functions: 160
    Spherical Harmonics?: true
    Max angular momentum: 2

  ==> Pre-Iterations <==

   -------------------------------------------------------
    Irrep   Nso     Nmo     Nalpha   Nbeta   Ndocc  Nsocc
   -------------------------------------------------------
     A        153     153       0       0       0       0
   -------------------------------------------------------
    Total     153     153      29      29      29       0
   -------------------------------------------------------

  ==> Integral Setup <==

  Using integral reordering PK algorithm.
  Sizing the integral batches needed.
  Building batch lookup table.
   Calculation information:
      Number of atoms:                  18
      Number of AO shells:              75
      Number of primitives:            209
      Number of atomic orbitals:       160
      Number of basis functions:       153

      Integral cutoff                 1.00e-12
      Number of threads:                 1

	Batch   1 pq = [       0,    9405] index = [             0,44231715] size =     44231715
	Batch   2 pq = [    9405,   11781] index = [      44231715,69401871] size =     25170156
  Task number: 7
  Buffer size: 11059200
  Buffer per thread: 2
  We computed 3642402 shell quartets total.
  Whereas there are 4062675 unique shell quartets.

  ==> DiskJK: Disk-Based J/K Matrices <==

    J tasked:                  Yes
    K tasked:                  Yes
    wK tasked:                  No
    Memory [MiB]:              375
    Schwarz Cutoff:          1E-12

    OpenMP threads:              1

  Minimum eigenvalue in the overlap matrix is 4.9955331920E-03.
  Using Symmetric Orthogonalization.

  SCF Guess: Superposition of Atomic Densities via on-the-fly atomic UHF.

  ==> Iterations <==

                        Total Energy        Delta E     RMS |[F,P]|

   @RHF iter SAD:  -343.88967864345227   -3.43890e+02   0.00000e+00
   @RHF iter   1:  -345.20398901847307   -1.31431e+00   5.03261e-03 DIIS
   @RHF iter   2:  -345.43369368568483   -2.29705e-01   2.85442e-03 DIIS
   @RHF iter   3:  -345.50550276919029   -7.18091e-02   4.35035e-04 DIIS
   @RHF iter   4:  -345.50855318643960   -3.05042e-03   1.64031e-04 DIIS
   @RHF iter   5:  -345.50898710507795   -4.33919e-04   2.47522e-05 DIIS
   @RHF iter   6:  -345.50899927816113   -1.21731e-05   6.56912e-06 DIIS
   @RHF iter   7:  -345.50900012449000   -8.46329e-07   1.56720e-06 DIIS
   @RHF iter   8:  -345.50900017928171   -5.47917e-08   3.67415e-07 DIIS
   @RHF iter   9:  -345.50900018328196   -4.00024e-09   9.99681e-08 DIIS
   @RHF iter  10:  -345.50900018364894   -3.66981e-10   3.61122e-08 DIIS
   @RHF iter  11:  -345.50900018369902   -5.00791e-11   1.35657e-08 DIIS
   @RHF iter  12:  -345.50900018370953   -1.05160e-11   5.12672e-09 DIIS
   @RHF iter  13:  -345.50900018371010   -5.68434e-13   1.67457e-09 DIIS
   @RHF iter  14:  -345.50900018370965    4.54747e-13   6.65515e-10 DIIS
   @RHF iter  15:  -345.50900018371010   -4.54747e-13   2.95824e-10 DIIS
   @RHF iter  16:  -345.50900018370857    1.53477e-12   8.15069e-11 DIIS
  Energy and wave function converged.

  ==> Post-Iterations <==

    Orbital Energies [Eh]
    ---------------------

    Doubly Occupied:

       1A    -20.261738     2A    -20.256616     3A    -11.121194
       4A    -11.107194     5A    -11.089436     6A    -11.084205
       7A    -11.056862     8A     -1.146650     9A     -1.029529
      10A     -0.942605    11A     -0.806525    12A     -0.793525
      13A     -0.674354    14A     -0.509809    15A     -0.501123
      16A     -0.483258    17A     -0.430092    18A     -0.410849
      19A     -0.407755    20A     -0.405377    21A     -0.398256
      22A     -0.356253    23A     -0.350700    24A     -0.342122
      25A     -0.338699    26A     -0.303186    27A     -0.184704
      28A     -0.168174    29A     -0.157573

    Virtual:

      30A      0.295062    31A      0.329522    32A      0.341770
      33A      0.351590    34A      0.376684    35A      0.382353
      36A      0.410551    37A      0.412608    38A      0.427381
      39A      0.435807    40A      0.447345    41A      0.480001
      42A      0.510085    43A      0.554518    44A      0.569684
      45A      0.676615    46A      0.696764    47A      0.710912
      48A      0.722858    49A      0.733868    50A      0.774973
      51A      0.790004    52A      0.842849    53A      0.878753
      54A      0.919118    55A      0.935981    56A      0.953037
      57A      0.970085    58A      0.992860    59A      1.003637
      60A      1.009442    61A      1.017822    62A      1.023229
      63A      1.033457    64A      1.036234    65A      1.047958
      66A      1.059695    67A      1.067128    68A      1.075204
      69A      1.096819    70A      1.121117    71A      1.132839
      72A      1.142716    73A      1.239482    74A      1.262245
      75A      1.280419    76A      1.318892    77A      1.336531
      78A      1.350651    79A      1.407903    80A      1.492090
      81A      1.559952    82A      1.570031    83A      1.584128
      84A      1.591619    85A      1.614540    86A      1.629499
      87A      1.662387    88A      1.675484    89A      1.681381
      90A      1.728653    91A      1.758509    92A      1.799343
      93A      1.813419    94A      1.833301    95A      1.840048
      96A      1.851072    97A      1.988035    98A      1.995288
      99A      2.006936   100A      2.034456   101A      2.039063
     102A      2.068044   103A      2.074545   104A      2.081802
     105A      2.087830   106A      2.102371   107A      2.108306
     108A      2.117036   109A      2.128745   110A      2.153434
     111A      2.168217   112A      2.169927   113A      2.213635
     114A      2.229176   115A      2.267326   116A      2.285744
     117A      2.345743   118A      2.411140   119A      2.432686
     120A      2.443780   121A      2.446632   122A      2.460985
     123A      2.496694   124A      2.587257   125A      2.633067
     126A      2.658950   127A      2.668814   128A      2.688583
     129A      2.721008   130A      2.746391   131A      2.774891
     132A      2.788708   133A      2.869101   134A      2.878151
     135A      2.910081   136A      2.918721   137A      2.965555
     138A      2.979868   139A      2.991950   140A      3.054825
     141A      3.097339   142A      3.122275   143A      3.203947
     144A      3.246918   145A      3.284459   146A      3.294270
     147A      3.360631   148A      3.645349   149A      3.726641
     150A      3.822832   151A      4.060276   152A      4.071437
     153A      4.185771

    Final Occupation by Irrep:
              A
    DOCC [    29 ]

  @RHF Final Energy:  -345.50900018370857

   => Energetics <=

    Nuclear Repulsion Energy =            294.4205142493671019
    One-Electron Energy =               -1065.6222994747047323
    Two-Electron Energy =                 425.6927850416290653
    Total Energy =                       -345.5090001837085651

Computation Completed

Properties will be evaluated at   0.000000,   0.000000,   0.000000 [a0]

Properties computed using the SCF density matrix

  Nuclear Dipole Moment: [e a0]
     X:   -13.0285      Y:    -2.5567      Z:    -3.6820

  Electronic Dipole Moment: [e a0]
     X:    10.2805      Y:     2.2556      Z:     2.5537

  Dipole Moment: [e a0]
     X:    -2.7480      Y:    -0.3011      Z:    -1.1283     Total:     2.9858

  Dipole Moment: [D]
     X:    -6.9847      Y:    -0.7653      Z:    -2.8678     Total:     7.5892

*** tstop() called on ds3 at Tue Apr 28 08:55:58 2020
Module time:
	user time   =      25.47 seconds =       0.42 minutes
	system time =      11.67 seconds =       0.19 minutes
	total time  =         35 seconds =       0.58 minutes
Total time:
	user time   =      25.47 seconds =       0.42 minutes
	system time =      11.67 seconds =       0.19 minutes
	total time  =         35 seconds =       0.58 minutes
                                     G D M A

                                 by Anthony Stone

                           version 2.2.06, 22 June 2011

               Distributed Multipoles from Gaussian wavefunctions

Starting at 8:55:58 on 28 Apr 2020

Using SCF density matrix from file ./SSI/SSI-007GLU-033LYS-1-dimer.test.1859.fchk

                         Distributed Multipole Analysis

Standard DMA

Positions and radii in angstrom
Multipole moments in atomic units, ea_0^k for rank k

C          x =  1.336151  y =  1.387729  z = -1.334642 angstrom
           Maximum rank =  0   Radius =  0.650 angstrom
                   Q00  =  -0.291450

C          x =  1.671151  y =  0.617729  z = -0.022642 angstrom
           Maximum rank =  0   Radius =  0.650 angstrom
                   Q00  =   0.943021

O          x =  1.932151  y = -0.607271  z = -0.026642 angstrom
           Maximum rank =  0   Radius =  0.650 angstrom
                   Q00  =  -0.911698

O          x =  1.539151  y =  1.241729  z =  1.062358 angstrom
           Maximum rank =  0   Radius =  0.650 angstrom
                   Q00  =  -0.919911

H          x =  1.719151  y =  2.407729  z = -1.255642 angstrom
           Maximum rank =  0   Radius =  0.325 angstrom
                   Q00  =   0.061072

H          x =  0.248151  y =  1.457729  z = -1.408642 angstrom
           Maximum rank =  0   Radius =  0.325 angstrom
                   Q00  =   0.082456

H          x =  1.705361  y =  0.958569  z = -2.277772 angstrom
           Maximum rank =  0   Radius =  0.325 angstrom
                   Q00  =   0.047476

C          x = -1.903849  y = -0.402271  z = -0.069642 angstrom
           Maximum rank =  0   Radius =  0.650 angstrom
                   Q00  =  -0.033716

C          x = -3.206849  y = -0.441271  z =  0.680358 angstrom
           Maximum rank =  0   Radius =  0.650 angstrom
                   Q00  =  -0.248529

C          x = -1.354849  y = -1.778271  z = -0.303642 angstrom
           Maximum rank =  0   Radius =  0.650 angstrom
                   Q00  =  -0.193945

H          x = -2.049849  y =  0.078729  z = -1.037642 angstrom
           Maximum rank =  0   Radius =  0.325 angstrom
                   Q00  =   0.018587

H          x = -1.184849  y =  0.186729  z =  0.500358 angstrom
           Maximum rank =  0   Radius =  0.325 angstrom
                   Q00  =   0.078533

H          x = -3.021849  y = -0.877271  z =  1.659358 angstrom
           Maximum rank =  0   Radius =  0.325 angstrom
                   Q00  =   0.068948

H          x = -3.907849  y = -1.097271  z =  0.158358 angstrom
           Maximum rank =  0   Radius =  0.325 angstrom
                   Q00  =   0.043353

H          x = -2.071849  y = -2.288271  z = -0.949642 angstrom
           Maximum rank =  0   Radius =  0.325 angstrom
                   Q00  =   0.010810

H          x = -0.389849  y = -1.718271  z = -0.807642 angstrom
           Maximum rank =  0   Radius =  0.325 angstrom
                   Q00  =   0.111708

H          x = -3.684229  y =  0.532149  z =  0.866288 angstrom
           Maximum rank =  0   Radius =  0.325 angstrom
                   Q00  =   0.067156

H          x = -1.277659  y = -2.371051  z =  0.619748 angstrom
           Maximum rank =  0   Radius =  0.325 angstrom
                   Q00  =   0.066128

Total multipoles referred to origin at
           x =   0.000000,  y =    0.000000,  z =    0.000000 angstrom
                   Q00  =  -1.000000

Finished at 8:55:59 on 28 Apr 2020

  DMA results are available in the Python driver through the
	  variable('DMA DISTRIBUTED MULTIPOLES')
  and
	  variable('DMA TOTAL MULTIPOLES')
  commands.

    Psi4 stopped on: Tuesday, 28 April 2020 08:55AM
    Psi4 wall time for execution: 0:00:35.67

*** Psi4 exiting successfully. Buy a developer a beer!
