                               Psi4 1.3.2 release

  ==> Input File <==

--------------------------------------------------------------------------
import numpy as np
set {scf_type pk
basis cc-pvdz
d_convergence 10
gdma_switch   0
gdma_limit    0
gdma_origin   [ 0.0,  0.0,  0.0 ]
}
molecule test {
    units Angstrom
    0 1
    --
    0 1
    C               -3.450242017599557     0.686382457786517    -0.029371822375867
    C                0.321757982400443     0.990382457786517     0.418628177624133
    C               -0.951242017599557     0.996382457786517    -0.161371822375867
    C                0.474757982400443     0.647382457786517     1.761628177624133
    C               -2.078242017599557     0.661382457786517     0.595628177624133
    C               -0.646242017599557     0.313382457786517     2.522628177624132
    C               -1.916242017599557     0.322382457786517     1.939628177624132
    H                1.185757982400443     1.266382457786517    -0.168371822375867
    H               -1.060242017599557     1.267382457786516    -1.202371822375867
    H                1.455757982400443     0.638382457786517     2.205628177624133
    H               -0.536242017599557     0.055382457786517     3.565628177624133
    H               -4.123242017599557     0.021382457786517     0.513628177624133
    H               -3.356242017599557     0.291382457786517    -1.042371822375868
    H               -2.775242017599557     0.082382457786517     2.545628177624133
    H               -3.890062017599557     1.693224457786517    -0.082552822375867
    C                2.191757982400443    -1.281617542213483    -1.639371822375868
    C                3.525757982400443    -0.546617542213483    -1.798371822375867
    C                1.901757982400443    -2.301617542213483    -2.734371822375867
    H                2.168757982400443    -1.804617542213483    -0.691371822375867
    H                1.380757982400443    -0.553617542213483    -1.626371822375867
    H                3.703757982400443     0.018382457786517    -0.886371822375867
    H                1.717757982400443    -1.793617542213483    -3.681371822375867
    H                2.737757982400443    -2.989617542213483    -2.851371822375867
    H                3.475017982400443     0.173529457786517    -2.628321822375868
    H                4.347247982400443    -1.265599542213483    -1.933361822375868
    H                1.027377982400443    -2.909187542213484    -2.458131822375868

}
e, wfn = energy('scf', return_wfn=True)
gdma(wfn)
dmavals = variable('DMA DISTRIBUTED MULTIPOLES')
charges = np.array(dmavals)
print(charges)
np.save('SSI-142PHE-170ARG-1-dimer.npy', np.array(charges))--------------------------------------------------------------------------

*** tstart() called on ds3
*** at Mon Apr 27 18:36:00 2020

   => Loading Basis Set <=

    Name: CC-PVDZ
    Role: ORBITAL
    Keyword: BASIS
    atoms 1-7, 16-18  entry C          line   138 file /theoryfs2/ds/metcalf/miniconda2/envs/tf2gpu/share/psi4/basis/cc-pvdz.gbs
    atoms 8-15, 19-26 entry H          line    22 file /theoryfs2/ds/metcalf/miniconda2/envs/tf2gpu/share/psi4/basis/cc-pvdz.gbs

         ---------------------------------------------------------
                                   SCF
               by Justin Turney, Rob Parrish, Andy Simmonett
                          and Daniel G. A. Smith
                              RHF Reference
                        1 Threads,    500 MiB Core
         ---------------------------------------------------------

  ==> Geometry <==

    Molecular point group: c1
    Full point group: C1

    Geometry (in Angstrom), charge = 0, multiplicity = 1:

       Center              X                  Y                   Z               Mass
    ------------   -----------------  -----------------  -----------------  -----------------
         C           -3.450242017600     0.686382457787    -0.029371822376    12.000000000000
         C            0.321757982400     0.990382457787     0.418628177624    12.000000000000
         C           -0.951242017600     0.996382457787    -0.161371822376    12.000000000000
         C            0.474757982400     0.647382457787     1.761628177624    12.000000000000
         C           -2.078242017600     0.661382457787     0.595628177624    12.000000000000
         C           -0.646242017600     0.313382457787     2.522628177624    12.000000000000
         C           -1.916242017600     0.322382457787     1.939628177624    12.000000000000
         H            1.185757982400     1.266382457787    -0.168371822376     1.007825032230
         H           -1.060242017600     1.267382457787    -1.202371822376     1.007825032230
         H            1.455757982400     0.638382457787     2.205628177624     1.007825032230
         H           -0.536242017600     0.055382457787     3.565628177624     1.007825032230
         H           -4.123242017600     0.021382457787     0.513628177624     1.007825032230
         H           -3.356242017600     0.291382457787    -1.042371822376     1.007825032230
         H           -2.775242017600     0.082382457787     2.545628177624     1.007825032230
         H           -3.890062017600     1.693224457787    -0.082552822376     1.007825032230
         C            2.191757982400    -1.281617542213    -1.639371822376    12.000000000000
         C            3.525757982400    -0.546617542213    -1.798371822376    12.000000000000
         C            1.901757982400    -2.301617542213    -2.734371822376    12.000000000000
         H            2.168757982400    -1.804617542213    -0.691371822376     1.007825032230
         H            1.380757982400    -0.553617542213    -1.626371822376     1.007825032230
         H            3.703757982400     0.018382457787    -0.886371822376     1.007825032230
         H            1.717757982400    -1.793617542213    -3.681371822376     1.007825032230
         H            2.737757982400    -2.989617542213    -2.851371822376     1.007825032230
         H            3.475017982400     0.173529457787    -2.628321822376     1.007825032230
         H            4.347247982400    -1.265599542213    -1.933361822376     1.007825032230
         H            1.027377982400    -2.909187542213    -2.458131822376     1.007825032230

  Running in c1 symmetry.

  Rotational constants: A =      0.06276  B =      0.01722  C =      0.01499 [cm^-1]
  Rotational constants: A =   1881.57751  B =    516.28588  C =    449.39120 [MHz]
  Nuclear repulsion =  479.302467420989217

  Charge       = 0
  Multiplicity = 1
  Electrons    = 76
  Nalpha       = 38
  Nbeta        = 38

  ==> Algorithm <==

  SCF Algorithm Type is PK.
  DIIS enabled.
  MOM disabled.
  Fractional occupation disabled.
  Guess Type is SAD.
  Energy threshold   = 1.00e-06
  Density threshold  = 1.00e-10
  Integral threshold = 0.00e+00

  ==> Primary Basis <==

  Basis Set: CC-PVDZ
    Blend: CC-PVDZ
    Number of shells: 108
    Number of basis function: 220
    Number of Cartesian functions: 230
    Spherical Harmonics?: true
    Max angular momentum: 2

  ==> Pre-Iterations <==

   -------------------------------------------------------
    Irrep   Nso     Nmo     Nalpha   Nbeta   Ndocc  Nsocc
   -------------------------------------------------------
     A        220     220       0       0       0       0
   -------------------------------------------------------
    Total     220     220      38      38      38       0
   -------------------------------------------------------

  ==> Integral Setup <==

  Using integral reordering PK algorithm.
  Sizing the integral batches needed.
  Building batch lookup table.
   Calculation information:
      Number of atoms:                  26
      Number of AO shells:             108
      Number of primitives:            300
      Number of atomic orbitals:       230
      Number of basis functions:       220

      Integral cutoff                 1.00e-12
      Number of threads:                 1

	Batch   1 pq = [       0,    9405] index = [             0,44231715] size =     44231715
	Batch   2 pq = [    9405,   13301] index = [      44231715,88464951] size =     44233236
	Batch   3 pq = [   13301,   16290] index = [      88464951,132690195] size =     44225244
	Batch   4 pq = [   16290,   18810] index = [     132690195,176917455] size =     44227260
	Batch   5 pq = [   18810,   21030] index = [     176917455,221140965] size =     44223510
	Batch   6 pq = [   21030,   23037] index = [     221140965,265363203] size =     44222238
	Batch   7 pq = [   23037,   24310] index = [     265363203,295500205] size =     30137002
  Task number: 27
  Buffer size: 11059200
  Buffer per thread: 2
  We computed 14269809 shell quartets total.
  Whereas there are 17325441 unique shell quartets.

  ==> DiskJK: Disk-Based J/K Matrices <==

    J tasked:                  Yes
    K tasked:                  Yes
    wK tasked:                  No
    Memory [MiB]:              375
    Schwarz Cutoff:          1E-12

    OpenMP threads:              1

  Minimum eigenvalue in the overlap matrix is 3.1703942572E-04.
  Using Symmetric Orthogonalization.

  SCF Guess: Superposition of Atomic Densities via on-the-fly atomic UHF.

  ==> Iterations <==

                        Total Energy        Delta E     RMS |[F,P]|

   @RHF iter SAD:  -386.83756528584991   -3.86838e+02   0.00000e+00
   @RHF iter   1:  -387.77238937008480   -9.34824e-01   2.74238e-03 DIIS
   @RHF iter   2:  -387.99081416319046   -2.18425e-01   1.14660e-03 DIIS
   @RHF iter   3:  -388.02546652833905   -3.46524e-02   2.48783e-04 DIIS
   @RHF iter   4:  -388.02833449978431   -2.86797e-03   5.13016e-05 DIIS
   @RHF iter   5:  -388.02842080019190   -8.63004e-05   1.63330e-05 DIIS
   @RHF iter   6:  -388.02842910867685   -8.30848e-06   4.79506e-06 DIIS
   @RHF iter   7:  -388.02842991313270   -8.04456e-07   1.17748e-06 DIIS
   @RHF iter   8:  -388.02842996728020   -5.41475e-08   2.66753e-07 DIIS
   @RHF iter   9:  -388.02842997200389   -4.72369e-09   9.59840e-08 DIIS
   @RHF iter  10:  -388.02842997277133   -7.67443e-10   4.83243e-08 DIIS
   @RHF iter  11:  -388.02842997300814   -2.36810e-10   1.99246e-08 DIIS
   @RHF iter  12:  -388.02842997306561   -5.74687e-11   8.41100e-09 DIIS
   @RHF iter  13:  -388.02842997307317   -7.56017e-12   4.02596e-09 DIIS
   @RHF iter  14:  -388.02842997307420   -1.02318e-12   1.02388e-09 DIIS
   @RHF iter  15:  -388.02842997307539   -1.19371e-12   3.32512e-10 DIIS
   @RHF iter  16:  -388.02842997307579   -3.97904e-13   1.03425e-10 DIIS
   @RHF iter  17:  -388.02842997307533    4.54747e-13   4.04121e-11 DIIS
  Energy and wave function converged.

  ==> Post-Iterations <==

    Orbital Energies [Eh]
    ---------------------

    Doubly Occupied:

       1A    -11.242090     2A    -11.236849     3A    -11.236642
       4A    -11.231999     5A    -11.231709     6A    -11.230947
       7A    -11.230036     8A    -11.216850     9A    -11.213729
      10A    -11.211951    11A     -1.150258    12A     -1.050424
      13A     -1.043327    14A     -1.010094    15A     -0.930852
      16A     -0.923759    17A     -0.824737    18A     -0.796573
      19A     -0.791912    20A     -0.690648    21A     -0.632578
      22A     -0.629703    23A     -0.623594    24A     -0.591846
      25A     -0.581282    26A     -0.576897    27A     -0.562688
      28A     -0.546047    29A     -0.535011    30A     -0.533864
      31A     -0.486905    32A     -0.485525    33A     -0.481823
      34A     -0.468667    35A     -0.465085    36A     -0.463126
      37A     -0.330441    38A     -0.321807

    Virtual:

      39A      0.133494    40A      0.139466    41A      0.169098
      42A      0.192021    43A      0.200833    44A      0.217888
      45A      0.223013    46A      0.230127    47A      0.250403
      48A      0.250653    49A      0.262622    50A      0.270574
      51A      0.272639    52A      0.287479    53A      0.291250
      54A      0.304258    55A      0.306867    56A      0.333131
      57A      0.360136    58A      0.373267    59A      0.384099
      60A      0.429154    61A      0.451256    62A      0.463931
      63A      0.478533    64A      0.497047    65A      0.561023
      66A      0.576527    67A      0.593361    68A      0.607518
      69A      0.612926    70A      0.628400    71A      0.635420
      72A      0.641205    73A      0.683834    74A      0.688977
      75A      0.706271    76A      0.719499    77A      0.738702
      78A      0.741049    79A      0.747556    80A      0.756350
      81A      0.767943    82A      0.777485    83A      0.789224
      84A      0.803971    85A      0.809132    86A      0.830529
      87A      0.850181    88A      0.867039    89A      0.873886
      90A      0.875110    91A      0.879763    92A      0.889091
      93A      0.894175    94A      0.898218    95A      0.903751
      96A      0.904361    97A      0.910004    98A      0.921182
      99A      0.922497   100A      0.931505   101A      0.942979
     102A      0.948350   103A      0.955378   104A      0.979508
     105A      0.984675   106A      1.013502   107A      1.041533
     108A      1.068042   109A      1.115812   110A      1.121161
     111A      1.130825   112A      1.144327   113A      1.158613
     114A      1.162552   115A      1.188723   116A      1.224265
     117A      1.235807   118A      1.247614   119A      1.248517
     120A      1.264924   121A      1.293199   122A      1.308805
     123A      1.321092   124A      1.325244   125A      1.397395
     126A      1.413631   127A      1.466837   128A      1.493696
     129A      1.502958   130A      1.515759   131A      1.544887
     132A      1.558787   133A      1.604688   134A      1.642115
     135A      1.672263   136A      1.680252   137A      1.692965
     138A      1.699361   139A      1.700378   140A      1.732638
     141A      1.752069   142A      1.763712   143A      1.793921
     144A      1.807113   145A      1.841992   146A      1.865373
     147A      1.876802   148A      1.886773   149A      1.887883
     150A      1.892682   151A      1.907481   152A      1.909597
     153A      1.911746   154A      1.926302   155A      1.931920
     156A      1.942829   157A      1.948881   158A      1.960369
     159A      1.965595   160A      1.975612   161A      1.979568
     162A      1.989011   163A      1.994590   164A      2.000350
     165A      2.009220   166A      2.030008   167A      2.040864
     168A      2.060050   169A      2.063813   170A      2.080075
     171A      2.106965   172A      2.124114   173A      2.141410
     174A      2.149784   175A      2.154467   176A      2.165210
     177A      2.172969   178A      2.183494   179A      2.251646
     180A      2.274559   181A      2.289409   182A      2.292721
     183A      2.299378   184A      2.302761   185A      2.319308
     186A      2.330993   187A      2.342734   188A      2.367011
     189A      2.465102   190A      2.471266   191A      2.485172
     192A      2.493898   193A      2.535185   194A      2.547164
     195A      2.573886   196A      2.619839   197A      2.626179
     198A      2.634831   199A      2.737934   200A      2.752589
     201A      2.762411   202A      2.766089   203A      2.768882
     204A      2.783706   205A      2.786225   206A      2.811771
     207A      2.824311   208A      2.845707   209A      2.867934
     210A      2.922476   211A      2.965912   212A      2.977450
     213A      2.982920   214A      3.006606   215A      3.020370
     216A      3.088170   217A      3.152064   218A      3.195905
     219A      3.291947   220A      3.956847

    Final Occupation by Irrep:
              A
    DOCC [    38 ]

  @RHF Final Energy:  -388.02842997307533

   => Energetics <=

    Nuclear Repulsion Energy =            479.3024674209892169
    One-Electron Energy =               -1473.0372449679346119
    Two-Electron Energy =                 605.7063475738700618
    Total Energy =                       -388.0284299730753901

Computation Completed

Properties will be evaluated at   0.000000,   0.000000,   0.000000 [a0]

Properties computed using the SCF density matrix

  Nuclear Dipole Moment: [e a0]
     X:     6.9923      Y:    -5.4452      Z:    -9.7701

  Electronic Dipole Moment: [e a0]
     X:    -7.1597      Y:     5.4689      Z:     9.7924

  Dipole Moment: [e a0]
     X:    -0.1674      Y:     0.0236      Z:     0.0222     Total:     0.1705

  Dipole Moment: [D]
     X:    -0.4254      Y:     0.0600      Z:     0.0565     Total:     0.4333

*** tstop() called on ds3 at Mon Apr 27 18:38:19 2020
Module time:
	user time   =      98.72 seconds =       1.65 minutes
	system time =      45.30 seconds =       0.76 minutes
	total time  =        139 seconds =       2.32 minutes
Total time:
	user time   =      98.72 seconds =       1.65 minutes
	system time =      45.30 seconds =       0.76 minutes
	total time  =        139 seconds =       2.32 minutes
                                     G D M A

                                 by Anthony Stone

                           version 2.2.06, 22 June 2011

               Distributed Multipoles from Gaussian wavefunctions

Starting at 18:38:19 on 27 Apr 2020

Using SCF density matrix from file ./SSI/SSI-142PHE-170ARG-1-dimer.test.25600.fchk

                         Distributed Multipole Analysis

Standard DMA

Positions and radii in angstrom
Multipole moments in atomic units, ea_0^k for rank k

C          x = -3.450242  y =  0.686382  z = -0.029372 angstrom
           Maximum rank =  0   Radius =  0.650 angstrom
                   Q00  =  -0.204347

C          x =  0.321758  y =  0.990382  z =  0.418628 angstrom
           Maximum rank =  0   Radius =  0.650 angstrom
                   Q00  =  -0.067362

C          x = -0.951242  y =  0.996382  z = -0.161372 angstrom
           Maximum rank =  0   Radius =  0.650 angstrom
                   Q00  =  -0.065479

C          x =  0.474758  y =  0.647382  z =  1.761628 angstrom
           Maximum rank =  0   Radius =  0.650 angstrom
                   Q00  =  -0.087818

C          x = -2.078242  y =  0.661382  z =  0.595628 angstrom
           Maximum rank =  0   Radius =  0.650 angstrom
                   Q00  =  -0.093516

C          x = -0.646242  y =  0.313382  z =  2.522628 angstrom
           Maximum rank =  0   Radius =  0.650 angstrom
                   Q00  =  -0.078177

C          x = -1.916242  y =  0.322382  z =  1.939628 angstrom
           Maximum rank =  0   Radius =  0.650 angstrom
                   Q00  =  -0.012682

H          x =  1.185758  y =  1.266382  z = -0.168372 angstrom
           Maximum rank =  0   Radius =  0.325 angstrom
                   Q00  =   0.066413

H          x = -1.060242  y =  1.267382  z = -1.202372 angstrom
           Maximum rank =  0   Radius =  0.325 angstrom
                   Q00  =   0.056616

H          x =  1.455758  y =  0.638382  z =  2.205628 angstrom
           Maximum rank =  0   Radius =  0.325 angstrom
                   Q00  =   0.061545

H          x = -0.536242  y =  0.055382  z =  3.565628 angstrom
           Maximum rank =  0   Radius =  0.325 angstrom
                   Q00  =   0.065872

H          x = -4.123242  y =  0.021382  z =  0.513628 angstrom
           Maximum rank =  0   Radius =  0.325 angstrom
                   Q00  =   0.099167

H          x = -3.356242  y =  0.291382  z = -1.042372 angstrom
           Maximum rank =  0   Radius =  0.325 angstrom
                   Q00  =   0.097099

H          x = -2.775242  y =  0.082382  z =  2.545628 angstrom
           Maximum rank =  0   Radius =  0.325 angstrom
                   Q00  =   0.057981

H          x = -3.890062  y =  1.693224  z = -0.082553 angstrom
           Maximum rank =  0   Radius =  0.325 angstrom
                   Q00  =   0.105656

C          x =  2.191758  y = -1.281618  z = -1.639372 angstrom
           Maximum rank =  0   Radius =  0.650 angstrom
                   Q00  =  -0.067717

C          x =  3.525758  y = -0.546618  z = -1.798372 angstrom
           Maximum rank =  0   Radius =  0.650 angstrom
                   Q00  =  -0.252017

C          x =  1.901758  y = -2.301618  z = -2.734372 angstrom
           Maximum rank =  0   Radius =  0.650 angstrom
                   Q00  =  -0.244425

H          x =  2.168758  y = -1.804618  z = -0.691372 angstrom
           Maximum rank =  0   Radius =  0.325 angstrom
                   Q00  =   0.048818

H          x =  1.380758  y = -0.553618  z = -1.626372 angstrom
           Maximum rank =  0   Radius =  0.325 angstrom
                   Q00  =   0.047471

H          x =  3.703758  y =  0.018382  z = -0.886372 angstrom
           Maximum rank =  0   Radius =  0.325 angstrom
                   Q00  =   0.079216

H          x =  1.717758  y = -1.793618  z = -3.681372 angstrom
           Maximum rank =  0   Radius =  0.325 angstrom
                   Q00  =   0.074626

H          x =  2.737758  y = -2.989618  z = -2.851372 angstrom
           Maximum rank =  0   Radius =  0.325 angstrom
                   Q00  =   0.074159

H          x =  3.475018  y =  0.173529  z = -2.628322 angstrom
           Maximum rank =  0   Radius =  0.325 angstrom
                   Q00  =   0.076457

H          x =  4.347248  y = -1.265600  z = -1.933362 angstrom
           Maximum rank =  0   Radius =  0.325 angstrom
                   Q00  =   0.079887

H          x =  1.027378  y = -2.909188  z = -2.458132 angstrom
           Maximum rank =  0   Radius =  0.325 angstrom
                   Q00  =   0.082558

Total multipoles referred to origin at
           x =   0.000000,  y =    0.000000,  z =    0.000000 angstrom
                   Q00  =  -0.000000

Finished at 18:38:19 on 27 Apr 2020

  DMA results are available in the Python driver through the
	  variable('DMA DISTRIBUTED MULTIPOLES')
  and
	  variable('DMA TOTAL MULTIPOLES')
  commands.

    Psi4 stopped on: Monday, 27 April 2020 06:38PM
    Psi4 wall time for execution: 0:02:18.86

*** Psi4 exiting successfully. Buy a developer a beer!
