                               Psi4 1.3.2 release

  ==> Input File <==

--------------------------------------------------------------------------
import numpy as np
set {scf_type pk
basis cc-pvdz
d_convergence 10
gdma_switch   0
gdma_limit    0
gdma_origin   [ 0.0,  0.0,  0.0 ]
}
molecule test {
    units Angstrom
    0 1
    --
    0 1
    C                0.591264297094564    -1.692871440588144     1.457943078827834
    C                0.432264297094564    -2.435871440588144     2.784943078827834
    H                1.540264297094564    -1.156871440588144     1.435943078827834
    H                0.575264297094564    -2.400871440588143     0.631943078827834
    H               -0.226735702905436    -0.981871440588143     1.331943078827834
    H                1.241264297094564    -3.153871440588144     2.869943078827834
    H                0.516854297094564    -1.731693440588143     3.625763078827834
    H               -0.520895702905436    -2.984658440588143     2.802993078827834
    C               -0.273735702905436     1.023128559411856    -1.041056921172166
    C               -1.561735702905436     1.108128559411857    -1.882056921172166
    C                0.783264297094564     2.071128559411857    -1.388056921172166
    H               -0.531735702905436     1.126128559411856     0.013943078827834
    H                0.189264297094564     0.045128559411857    -1.164056921172166
    H               -1.275735702905436     1.192128559411856    -2.933056921172166
    H                0.421264297094564     3.075128559411856    -1.175056921172166
    H                1.676264297094564     1.890128559411856    -0.789056921172166
    H                1.042264297094564     1.998128559411857    -2.444056921172166
    H               -2.168645702905437     0.197401559411857    -1.771446921172166
    H               -2.137485702905436     2.008812559411856    -1.622686921172166

}
e, wfn = energy('scf', return_wfn=True)
gdma(wfn)
dmavals = variable('DMA DISTRIBUTED MULTIPOLES')
charges = np.array(dmavals)
print(charges)
np.save('SSI-088LEU-108ILE-1-dimer.npy', np.array(charges))--------------------------------------------------------------------------

*** tstart() called on ds3
*** at Tue Apr 28 13:40:34 2020

   => Loading Basis Set <=

    Name: CC-PVDZ
    Role: ORBITAL
    Keyword: BASIS
    atoms 1-2, 9-11  entry C          line   138 file /theoryfs2/ds/metcalf/miniconda2/envs/tf2gpu/share/psi4/basis/cc-pvdz.gbs
    atoms 3-8, 12-19 entry H          line    22 file /theoryfs2/ds/metcalf/miniconda2/envs/tf2gpu/share/psi4/basis/cc-pvdz.gbs

         ---------------------------------------------------------
                                   SCF
               by Justin Turney, Rob Parrish, Andy Simmonett
                          and Daniel G. A. Smith
                              RHF Reference
                        1 Threads,    500 MiB Core
         ---------------------------------------------------------

  ==> Geometry <==

    Molecular point group: c1
    Full point group: C1

    Geometry (in Angstrom), charge = 0, multiplicity = 1:

       Center              X                  Y                   Z               Mass
    ------------   -----------------  -----------------  -----------------  -----------------
         C            0.591264297095    -1.692871440588     1.457943078828    12.000000000000
         C            0.432264297095    -2.435871440588     2.784943078828    12.000000000000
         H            1.540264297095    -1.156871440588     1.435943078828     1.007825032230
         H            0.575264297095    -2.400871440588     0.631943078828     1.007825032230
         H           -0.226735702905    -0.981871440588     1.331943078828     1.007825032230
         H            1.241264297095    -3.153871440588     2.869943078828     1.007825032230
         H            0.516854297095    -1.731693440588     3.625763078828     1.007825032230
         H           -0.520895702905    -2.984658440588     2.802993078828     1.007825032230
         C           -0.273735702905     1.023128559412    -1.041056921172    12.000000000000
         C           -1.561735702905     1.108128559412    -1.882056921172    12.000000000000
         C            0.783264297095     2.071128559412    -1.388056921172    12.000000000000
         H           -0.531735702905     1.126128559412     0.013943078828     1.007825032230
         H            0.189264297095     0.045128559412    -1.164056921172     1.007825032230
         H           -1.275735702905     1.192128559412    -2.933056921172     1.007825032230
         H            0.421264297095     3.075128559412    -1.175056921172     1.007825032230
         H            1.676264297095     1.890128559412    -0.789056921172     1.007825032230
         H            1.042264297095     1.998128559412    -2.444056921172     1.007825032230
         H           -2.168645702905     0.197401559412    -1.771446921172     1.007825032230
         H           -2.137485702905     2.008812559412    -1.622686921172     1.007825032230

  Running in c1 symmetry.

  Rotational constants: A =      0.24067  B =      0.03388  C =      0.03079 [cm^-1]
  Rotational constants: A =   7215.13543  B =   1015.78395  C =    922.91930 [MHz]
  Nuclear repulsion =  173.904633612850148

  Charge       = 0
  Multiplicity = 1
  Electrons    = 44
  Nalpha       = 22
  Nbeta        = 22

  ==> Algorithm <==

  SCF Algorithm Type is PK.
  DIIS enabled.
  MOM disabled.
  Fractional occupation disabled.
  Guess Type is SAD.
  Energy threshold   = 1.00e-06
  Density threshold  = 1.00e-10
  Integral threshold = 0.00e+00

  ==> Primary Basis <==

  Basis Set: CC-PVDZ
    Blend: CC-PVDZ
    Number of shells: 72
    Number of basis function: 140
    Number of Cartesian functions: 145
    Spherical Harmonics?: true
    Max angular momentum: 2

  ==> Pre-Iterations <==

   -------------------------------------------------------
    Irrep   Nso     Nmo     Nalpha   Nbeta   Ndocc  Nsocc
   -------------------------------------------------------
     A        140     140       0       0       0       0
   -------------------------------------------------------
    Total     140     140      22      22      22       0
   -------------------------------------------------------

  ==> Integral Setup <==

  Using integral reordering PK algorithm.
  Sizing the integral batches needed.
  Building batch lookup table.
   Calculation information:
      Number of atoms:                  19
      Number of AO shells:              72
      Number of primitives:            180
      Number of atomic orbitals:       145
      Number of basis functions:       140

      Integral cutoff                 1.00e-12
      Number of threads:                 1

	Batch   1 pq = [       0,    9405] index = [             0,44231715] size =     44231715
	Batch   2 pq = [    9405,    9870] index = [      44231715,48713385] size =      4481670
  Task number: 5
  Buffer size: 11059200
  Buffer per thread: 2
  We computed 2673082 shell quartets total.
  Whereas there are 3454506 unique shell quartets.

  ==> DiskJK: Disk-Based J/K Matrices <==

    J tasked:                  Yes
    K tasked:                  Yes
    wK tasked:                  No
    Memory [MiB]:              375
    Schwarz Cutoff:          1E-12

    OpenMP threads:              1

  Minimum eigenvalue in the overlap matrix is 5.4806958953E-03.
  Using Symmetric Orthogonalization.

  SCF Guess: Superposition of Atomic Densities via on-the-fly atomic UHF.

  ==> Iterations <==

                        Total Energy        Delta E     RMS |[F,P]|

   @RHF iter SAD:  -196.33266607717661   -1.96333e+02   0.00000e+00
   @RHF iter   1:  -197.31372110587347   -9.81055e-01   3.79116e-03 DIIS
   @RHF iter   2:  -197.47304910765996   -1.59328e-01   1.62858e-03 DIIS
   @RHF iter   3:  -197.50108532848458   -2.80362e-02   3.24731e-04 DIIS
   @RHF iter   4:  -197.50329938250275   -2.21405e-03   4.89192e-05 DIIS
   @RHF iter   5:  -197.50333876390684   -3.93814e-05   1.48249e-05 DIIS
   @RHF iter   6:  -197.50334213066287   -3.36676e-06   2.48591e-06 DIIS
   @RHF iter   7:  -197.50334224112328   -1.10460e-07   4.67850e-07 DIIS
   @RHF iter   8:  -197.50334224580803   -4.68475e-09   1.24123e-07 DIIS
   @RHF iter   9:  -197.50334224611899   -3.10962e-10   3.93152e-08 DIIS
   @RHF iter  10:  -197.50334224615472   -3.57261e-11   8.28898e-09 DIIS
   @RHF iter  11:  -197.50334224615580   -1.08002e-12   1.50736e-09 DIIS
   @RHF iter  12:  -197.50334224615668   -8.81073e-13   2.67238e-10 DIIS
   @RHF iter  13:  -197.50334224615679   -1.13687e-13   4.94844e-11 DIIS
  Energy and wave function converged.

  ==> Post-Iterations <==

    Orbital Energies [Eh]
    ---------------------

    Doubly Occupied:

       1A    -11.219015     2A    -11.218522     3A    -11.218206
       4A    -11.216033     5A    -11.214597     6A     -1.050090
       7A     -1.018157     8A     -0.924541     9A     -0.836678
      10A     -0.796064    11A     -0.623309    12A     -0.599182
      13A     -0.597873    14A     -0.592685    15A     -0.549119
      16A     -0.531515    17A     -0.499758    18A     -0.488043
      19A     -0.485532    20A     -0.471767    21A     -0.467022
      22A     -0.464450

    Virtual:

      23A      0.172518    24A      0.192762    25A      0.215543
      26A      0.222478    27A      0.229052    28A      0.252141
      29A      0.257814    30A      0.264861    31A      0.276223
      32A      0.279820    33A      0.294915    34A      0.301298
      35A      0.307374    36A      0.337328    37A      0.370835
      38A      0.403939    39A      0.430742    40A      0.572213
      41A      0.581207    42A      0.598383    43A      0.599502
      44A      0.606187    45A      0.614608    46A      0.626351
      47A      0.668650    48A      0.694594    49A      0.746878
      50A      0.788802    51A      0.807965    52A      0.840423
      53A      0.871461    54A      0.886751    55A      0.891231
      56A      0.893610    57A      0.893911    58A      0.896910
      59A      0.898439    60A      0.904514    61A      0.909767
      62A      0.915474    63A      0.920023    64A      0.933483
      65A      0.953137    66A      0.971953    67A      0.981062
      68A      0.994988    69A      1.120427    70A      1.123489
      71A      1.130412    72A      1.151273    73A      1.204694
      74A      1.242119    75A      1.378695    76A      1.464183
      77A      1.471922    78A      1.480160    79A      1.489706
      80A      1.527671    81A      1.578951    82A      1.629683
      83A      1.672378    84A      1.679091    85A      1.691983
      86A      1.694840    87A      1.703763    88A      1.849469
      89A      1.855192    90A      1.871681    91A      1.878051
      92A      1.885327    93A      1.908728    94A      1.916727
      95A      1.926581    96A      1.939248    97A      1.944022
      98A      1.951128    99A      1.952134   100A      1.953688
     101A      1.971801   102A      1.983315   103A      1.989347
     104A      1.993969   105A      2.009770   106A      2.024220
     107A      2.048765   108A      2.100131   109A      2.118987
     110A      2.123893   111A      2.160025   112A      2.286643
     113A      2.289821   114A      2.302855   115A      2.327608
     116A      2.330382   117A      2.348844   118A      2.451707
     119A      2.468694   120A      2.488255   121A      2.543049
     122A      2.560091   123A      2.573335   124A      2.583949
     125A      2.614355   126A      2.633328   127A      2.749456
     128A      2.763979   129A      2.769232   130A      2.784787
     131A      2.790041   132A      2.814864   133A      2.850249
     134A      2.856701   135A      2.913447   136A      2.941772
     137A      2.950663   138A      2.968457   139A      2.978735
     140A      3.075199

    Final Occupation by Irrep:
              A
    DOCC [    22 ]

  @RHF Final Energy:  -197.50334224615679

   => Energetics <=

    Nuclear Repulsion Energy =            173.9046336128501480
    One-Electron Energy =                -608.6516368276131743
    Two-Electron Energy =                 237.2436609686062354
    Total Energy =                       -197.5033422461567909

Computation Completed

Properties will be evaluated at   0.000000,   0.000000,   0.000000 [a0]

Properties computed using the SCF density matrix

  Nuclear Dipole Moment: [e a0]
     X:     0.3201      Y:    -0.8220      Z:     0.7622

  Electronic Dipole Moment: [e a0]
     X:    -0.2959      Y:     0.7955      Z:    -0.7527

  Dipole Moment: [e a0]
     X:     0.0242      Y:    -0.0265      Z:     0.0095     Total:     0.0371

  Dipole Moment: [D]
     X:     0.0616      Y:    -0.0674      Z:     0.0241     Total:     0.0944

*** tstop() called on ds3 at Tue Apr 28 13:40:55 2020
Module time:
	user time   =      14.04 seconds =       0.23 minutes
	system time =       5.93 seconds =       0.10 minutes
	total time  =         21 seconds =       0.35 minutes
Total time:
	user time   =      14.04 seconds =       0.23 minutes
	system time =       5.93 seconds =       0.10 minutes
	total time  =         21 seconds =       0.35 minutes
                                     G D M A

                                 by Anthony Stone

                           version 2.2.06, 22 June 2011

               Distributed Multipoles from Gaussian wavefunctions

Starting at 13:40:55 on 28 Apr 2020

Using SCF density matrix from file ./SSI/SSI-088LEU-108ILE-1-dimer.test.21418.fchk

                         Distributed Multipole Analysis

Standard DMA

Positions and radii in angstrom
Multipole moments in atomic units, ea_0^k for rank k

C          x =  0.591264  y = -1.692871  z =  1.457943 angstrom
           Maximum rank =  0   Radius =  0.650 angstrom
                   Q00  =  -0.240446

C          x =  0.432264  y = -2.435871  z =  2.784943 angstrom
           Maximum rank =  0   Radius =  0.650 angstrom
                   Q00  =  -0.234768

H          x =  1.540264  y = -1.156871  z =  1.435943 angstrom
           Maximum rank =  0   Radius =  0.325 angstrom
                   Q00  =   0.078523

H          x =  0.575264  y = -2.400871  z =  0.631943 angstrom
           Maximum rank =  0   Radius =  0.325 angstrom
                   Q00  =   0.078235

H          x = -0.226736  y = -0.981871  z =  1.331943 angstrom
           Maximum rank =  0   Radius =  0.325 angstrom
                   Q00  =   0.080784

H          x =  1.241264  y = -3.153871  z =  2.869943 angstrom
           Maximum rank =  0   Radius =  0.325 angstrom
                   Q00  =   0.077899

H          x =  0.516854  y = -1.731693  z =  3.625763 angstrom
           Maximum rank =  0   Radius =  0.325 angstrom
                   Q00  =   0.079669

H          x = -0.520896  y = -2.984658  z =  2.802993 angstrom
           Maximum rank =  0   Radius =  0.325 angstrom
                   Q00  =   0.080191

C          x = -0.273736  y =  1.023129  z = -1.041057 angstrom
           Maximum rank =  0   Radius =  0.650 angstrom
                   Q00  =  -0.091270

C          x = -1.561736  y =  1.108129  z = -1.882057 angstrom
           Maximum rank =  0   Radius =  0.650 angstrom
                   Q00  =  -0.238092

C          x =  0.783264  y =  2.071129  z = -1.388057 angstrom
           Maximum rank =  0   Radius =  0.650 angstrom
                   Q00  =  -0.241941

H          x = -0.531736  y =  1.126129  z =  0.013943 angstrom
           Maximum rank =  0   Radius =  0.325 angstrom
                   Q00  =   0.044905

H          x =  0.189264  y =  0.045129  z = -1.164057 angstrom
           Maximum rank =  0   Radius =  0.325 angstrom
                   Q00  =   0.048510

H          x = -1.275736  y =  1.192129  z = -2.933057 angstrom
           Maximum rank =  0   Radius =  0.325 angstrom
                   Q00  =   0.073579

H          x =  0.421264  y =  3.075129  z = -1.175057 angstrom
           Maximum rank =  0   Radius =  0.325 angstrom
                   Q00  =   0.077188

H          x =  1.676264  y =  1.890129  z = -0.789057 angstrom
           Maximum rank =  0   Radius =  0.325 angstrom
                   Q00  =   0.083976

H          x =  1.042264  y =  1.998129  z = -2.444057 angstrom
           Maximum rank =  0   Radius =  0.325 angstrom
                   Q00  =   0.076505

H          x = -2.168646  y =  0.197402  z = -1.771447 angstrom
           Maximum rank =  0   Radius =  0.325 angstrom
                   Q00  =   0.086799

H          x = -2.137486  y =  2.008813  z = -1.622687 angstrom
           Maximum rank =  0   Radius =  0.325 angstrom
                   Q00  =   0.079754

Total multipoles referred to origin at
           x =   0.000000,  y =    0.000000,  z =    0.000000 angstrom
                   Q00  =  -0.000000

Finished at 13:40:55 on 28 Apr 2020

  DMA results are available in the Python driver through the
	  variable('DMA DISTRIBUTED MULTIPOLES')
  and
	  variable('DMA TOTAL MULTIPOLES')
  commands.

    Psi4 stopped on: Tuesday, 28 April 2020 01:40PM
    Psi4 wall time for execution: 0:00:20.51

*** Psi4 exiting successfully. Buy a developer a beer!
