                               Psi4 1.3.2 release

  ==> Input File <==

--------------------------------------------------------------------------
import numpy as np
set {scf_type pk
basis cc-pvdz
d_convergence 10
gdma_switch   0
gdma_limit    0
gdma_origin   [ 0.0,  0.0,  0.0 ]
}
molecule test {
    units Angstrom
    0 1
    --
    0 1
    C               -2.775132182759924     0.881538362176722    -1.439131970031430
    C                0.793867817240076     0.288538362176722    -0.269131970031430
    C               -0.394132182759924     0.188538362176722    -0.981131970031430
    C                0.901867817240076     1.201538362176722     0.767868029968570
    C               -1.481132182759924     1.009538362176722    -0.677131970031430
    C               -0.176132182759924     2.021538362176722     1.095868029968570
    C               -1.360132182759924     1.927538362176722     0.364868029968570
    O                2.081867817240076     1.295538362176722     1.443868029968570
    H                1.637867817240076    -0.332461637823278    -0.523131970031430
    H               -0.476132182759924    -0.525461637823278    -1.790131970031430
    H                2.758867817240076     0.730538362176722     1.055868029968570
    H               -0.082132182759924     2.742538362176722     1.895868029968570
    H               -2.576132182759924     0.847538362176722    -2.511131970031430
    H               -3.368132182759924     1.760538362176722    -1.223131970031430
    H               -2.187132182759924     2.580538362176722     0.606868029968570
    H               -3.366394182759924     0.002208362176722    -1.143861970031430
    C                0.635867817240076    -3.426461637823278     0.271868029968570
    C                1.253867817240076    -4.474461637823278    -0.660131970031430
    H                0.180867817240076    -2.624461637823278    -0.305131970031430
    H               -0.141132182759924    -3.900461637823278     0.864868029968570
    H                1.397867817240076    -3.019461637823277     0.938868029968570
    H                0.486867817240076    -4.820461637823279    -1.350131970031430
    H                1.533867817240076    -5.315461637823278    -0.029131970031430
    H                2.132146817240076    -4.136551637823279    -1.229731970031430

}
e, wfn = energy('scf', return_wfn=True)
gdma(wfn)
dmavals = variable('DMA DISTRIBUTED MULTIPOLES')
charges = np.array(dmavals)
print(charges)
np.save('SSI-058TYR-068ILE-1-dimer.npy', np.array(charges))--------------------------------------------------------------------------

*** tstart() called on ds3
*** at Tue Apr 28 09:20:28 2020

   => Loading Basis Set <=

    Name: CC-PVDZ
    Role: ORBITAL
    Keyword: BASIS
    atoms 1-7, 17-18  entry C          line   138 file /theoryfs2/ds/metcalf/miniconda2/envs/tf2gpu/share/psi4/basis/cc-pvdz.gbs
    atoms 8           entry O          line   198 file /theoryfs2/ds/metcalf/miniconda2/envs/tf2gpu/share/psi4/basis/cc-pvdz.gbs
    atoms 9-16, 19-24 entry H          line    22 file /theoryfs2/ds/metcalf/miniconda2/envs/tf2gpu/share/psi4/basis/cc-pvdz.gbs

         ---------------------------------------------------------
                                   SCF
               by Justin Turney, Rob Parrish, Andy Simmonett
                          and Daniel G. A. Smith
                              RHF Reference
                        1 Threads,    500 MiB Core
         ---------------------------------------------------------

  ==> Geometry <==

    Molecular point group: c1
    Full point group: C1

    Geometry (in Angstrom), charge = 0, multiplicity = 1:

       Center              X                  Y                   Z               Mass
    ------------   -----------------  -----------------  -----------------  -----------------
         C           -2.775132182760     0.881538362177    -1.439131970031    12.000000000000
         C            0.793867817240     0.288538362177    -0.269131970031    12.000000000000
         C           -0.394132182760     0.188538362177    -0.981131970031    12.000000000000
         C            0.901867817240     1.201538362177     0.767868029969    12.000000000000
         C           -1.481132182760     1.009538362177    -0.677131970031    12.000000000000
         C           -0.176132182760     2.021538362177     1.095868029969    12.000000000000
         C           -1.360132182760     1.927538362177     0.364868029969    12.000000000000
         O            2.081867817240     1.295538362177     1.443868029969    15.994914619570
         H            1.637867817240    -0.332461637823    -0.523131970031     1.007825032230
         H           -0.476132182760    -0.525461637823    -1.790131970031     1.007825032230
         H            2.758867817240     0.730538362177     1.055868029969     1.007825032230
         H           -0.082132182760     2.742538362177     1.895868029969     1.007825032230
         H           -2.576132182760     0.847538362177    -2.511131970031     1.007825032230
         H           -3.368132182760     1.760538362177    -1.223131970031     1.007825032230
         H           -2.187132182760     2.580538362177     0.606868029969     1.007825032230
         H           -3.366394182760     0.002208362177    -1.143861970031     1.007825032230
         C            0.635867817240    -3.426461637823     0.271868029969    12.000000000000
         C            1.253867817240    -4.474461637823    -0.660131970031    12.000000000000
         H            0.180867817240    -2.624461637823    -0.305131970031     1.007825032230
         H           -0.141132182760    -3.900461637823     0.864868029969     1.007825032230
         H            1.397867817240    -3.019461637823     0.938868029969     1.007825032230
         H            0.486867817240    -4.820461637823    -1.350131970031     1.007825032230
         H            1.533867817240    -5.315461637823    -0.029131970031     1.007825032230
         H            2.132146817240    -4.136551637823    -1.229731970031     1.007825032230

  Running in c1 symmetry.

  Rotational constants: A =      0.04491  B =      0.02222  C =      0.01589 [cm^-1]
  Rotational constants: A =   1346.50562  B =    666.22651  C =    476.24373 [MHz]
  Nuclear repulsion =  488.678550572543088

  Charge       = 0
  Multiplicity = 1
  Electrons    = 76
  Nalpha       = 38
  Nbeta        = 38

  ==> Algorithm <==

  SCF Algorithm Type is PK.
  DIIS enabled.
  MOM disabled.
  Fractional occupation disabled.
  Guess Type is SAD.
  Energy threshold   = 1.00e-06
  Density threshold  = 1.00e-10
  Integral threshold = 0.00e+00

  ==> Primary Basis <==

  Basis Set: CC-PVDZ
    Blend: CC-PVDZ
    Number of shells: 102
    Number of basis function: 210
    Number of Cartesian functions: 220
    Spherical Harmonics?: true
    Max angular momentum: 2

  ==> Pre-Iterations <==

   -------------------------------------------------------
    Irrep   Nso     Nmo     Nalpha   Nbeta   Ndocc  Nsocc
   -------------------------------------------------------
     A        210     210       0       0       0       0
   -------------------------------------------------------
    Total     210     210      38      38      38       0
   -------------------------------------------------------

  ==> Integral Setup <==

  Using integral reordering PK algorithm.
  Sizing the integral batches needed.
  Building batch lookup table.
   Calculation information:
      Number of atoms:                  24
      Number of AO shells:             102
      Number of primitives:            290
      Number of atomic orbitals:       220
      Number of basis functions:       210

      Integral cutoff                 1.00e-12
      Number of threads:                 1

	Batch   1 pq = [       0,    9405] index = [             0,44231715] size =     44231715
	Batch   2 pq = [    9405,   13301] index = [      44231715,88464951] size =     44233236
	Batch   3 pq = [   13301,   16290] index = [      88464951,132690195] size =     44225244
	Batch   4 pq = [   16290,   18810] index = [     132690195,176917455] size =     44227260
	Batch   5 pq = [   18810,   21030] index = [     176917455,221140965] size =     44223510
	Batch   6 pq = [   21030,   22155] index = [     221140965,245433090] size =     24292125
  Task number: 23
  Buffer size: 11059200
  Buffer per thread: 2
  We computed 11137265 shell quartets total.
  Whereas there are 13799631 unique shell quartets.

  ==> DiskJK: Disk-Based J/K Matrices <==

    J tasked:                  Yes
    K tasked:                  Yes
    wK tasked:                  No
    Memory [MiB]:              375
    Schwarz Cutoff:          1E-12

    OpenMP threads:              1

  Minimum eigenvalue in the overlap matrix is 3.2296589981E-04.
  Using Symmetric Orthogonalization.

  SCF Guess: Superposition of Atomic Densities via on-the-fly atomic UHF.

  ==> Iterations <==

                        Total Energy        Delta E     RMS |[F,P]|

   @RHF iter SAD:  -422.70277573946385   -4.22703e+02   0.00000e+00
   @RHF iter   1:  -423.60041958025147   -8.97644e-01   2.98116e-03 DIIS
   @RHF iter   2:  -423.81732857613167   -2.16909e-01   1.24992e-03 DIIS
   @RHF iter   3:  -423.85182233553178   -3.44938e-02   2.82698e-04 DIIS
   @RHF iter   4:  -423.85466849785399   -2.84616e-03   1.16499e-04 DIIS
   @RHF iter   5:  -423.85501708351364   -3.48586e-04   2.07028e-05 DIIS
   @RHF iter   6:  -423.85503451493264   -1.74314e-05   6.32438e-06 DIIS
   @RHF iter   7:  -423.85503610780188   -1.59287e-06   2.04591e-06 DIIS
   @RHF iter   8:  -423.85503632155883   -2.13757e-07   7.57644e-07 DIIS
   @RHF iter   9:  -423.85503635463402   -3.30752e-08   2.94399e-07 DIIS
   @RHF iter  10:  -423.85503636052931   -5.89529e-09   1.22514e-07 DIIS
   @RHF iter  11:  -423.85503636229026   -1.76095e-09   5.54433e-08 DIIS
   @RHF iter  12:  -423.85503636266378   -3.73518e-10   2.77335e-08 DIIS
   @RHF iter  13:  -423.85503636273478   -7.09974e-11   8.03478e-09 DIIS
   @RHF iter  14:  -423.85503636274075   -5.96856e-12   2.07601e-09 DIIS
   @RHF iter  15:  -423.85503636274370   -2.95586e-12   6.47517e-10 DIIS
   @RHF iter  16:  -423.85503636274188    1.81899e-12   1.86511e-10 DIIS
   @RHF iter  17:  -423.85503636274291   -1.02318e-12   6.64421e-11 DIIS
  Energy and wave function converged.

  ==> Post-Iterations <==

    Orbital Energies [Eh]
    ---------------------

    Doubly Occupied:

       1A    -20.581646     2A    -11.298101     3A    -11.238236
       4A    -11.238113     5A    -11.232796     6A    -11.231612
       7A    -11.230704     8A    -11.226984     9A    -11.219375
      10A    -11.216523    11A     -1.398840    12A     -1.151011
      13A     -1.037472    14A     -1.019961    15A     -1.017660
      16A     -0.926113    17A     -0.844810    18A     -0.839019
      19A     -0.801911    20A     -0.731389    21A     -0.669152
      22A     -0.641171    23A     -0.607878    24A     -0.600589
      25A     -0.599279    26A     -0.586766    27A     -0.585397
      28A     -0.571589    29A     -0.564060    30A     -0.527870
      31A     -0.502587    32A     -0.497575    33A     -0.488432
      34A     -0.485605    35A     -0.484466    36A     -0.465689
      37A     -0.338483    38A     -0.301230

    Virtual:

      39A      0.129376    40A      0.154655    41A      0.164007
      42A      0.182782    43A      0.198889    44A      0.215751
      45A      0.228708    46A      0.240097    47A      0.248021
      48A      0.255741    49A      0.266891    50A      0.270594
      51A      0.275279    52A      0.295650    53A      0.300623
      54A      0.328458    55A      0.373341    56A      0.376289
      57A      0.397643    58A      0.429767    59A      0.456933
      60A      0.489365    61A      0.496200    62A      0.512538
      63A      0.591413    64A      0.599431    65A      0.604745
      66A      0.615525    67A      0.633484    68A      0.649990
      69A      0.660443    70A      0.664923    71A      0.677552
      72A      0.690793    73A      0.703023    74A      0.716148
      75A      0.734625    76A      0.737302    77A      0.763299
      78A      0.771640    79A      0.784663    80A      0.794006
      81A      0.802446    82A      0.832609    83A      0.845808
      84A      0.850801    85A      0.876428    86A      0.881323
      87A      0.887214    88A      0.889086    89A      0.893868
      90A      0.897427    91A      0.902973    92A      0.911298
      93A      0.916306    94A      0.933234    95A      0.936490
      96A      0.944664    97A      0.949797    98A      0.961758
      99A      1.008935   100A      1.021543   101A      1.032377
     102A      1.066891   103A      1.115803   104A      1.120072
     105A      1.136879   106A      1.148048   107A      1.152073
     108A      1.174378   109A      1.204068   110A      1.235244
     111A      1.246976   112A      1.260148   113A      1.274572
     114A      1.288142   115A      1.303571   116A      1.313525
     117A      1.318510   118A      1.352861   119A      1.364303
     120A      1.387426   121A      1.457581   122A      1.484220
     123A      1.491876   124A      1.507917   125A      1.524093
     126A      1.554058   127A      1.586428   128A      1.624117
     129A      1.624918   130A      1.680134   131A      1.686333
     132A      1.692450   133A      1.701213   134A      1.735006
     135A      1.751705   136A      1.781610   137A      1.804771
     138A      1.808239   139A      1.863762   140A      1.866836
     141A      1.869531   142A      1.881223   143A      1.891586
     144A      1.899179   145A      1.908254   146A      1.921510
     147A      1.924936   148A      1.938760   149A      1.946320
     150A      1.949887   151A      1.961103   152A      1.962850
     153A      1.969301   154A      1.976584   155A      1.986350
     156A      1.996797   157A      2.033403   158A      2.045302
     159A      2.068880   160A      2.068982   161A      2.069759
     162A      2.094323   163A      2.128868   164A      2.139009
     165A      2.146647   166A      2.182777   167A      2.211377
     168A      2.223434   169A      2.254641   170A      2.274945
     171A      2.297591   172A      2.313838   173A      2.315664
     174A      2.336521   175A      2.366062   176A      2.409979
     177A      2.446420   178A      2.458237   179A      2.476848
     180A      2.478157   181A      2.504567   182A      2.527256
     183A      2.542822   184A      2.560034   185A      2.587690
     186A      2.609691   187A      2.650024   188A      2.751186
     189A      2.771844   190A      2.777654   191A      2.790731
     192A      2.798107   193A      2.816985   194A      2.846017
     195A      2.852223   196A      2.867115   197A      2.900619
     198A      2.948763   199A      2.962737   200A      2.977776
     201A      3.002985   202A      3.089579   203A      3.116281
     204A      3.254861   205A      3.283308   206A      3.346739
     207A      3.578108   208A      3.671069   209A      3.983101
     210A      4.187612

    Final Occupation by Irrep:
              A
    DOCC [    38 ]

  @RHF Final Energy:  -423.85503636274291

   => Energetics <=

    Nuclear Repulsion Energy =            488.6785505725430880
    One-Electron Energy =               -1543.0669896356359914
    Two-Electron Energy =                 630.5334027003499386
    Total Energy =                       -423.8550363627429078

Computation Completed

Properties will be evaluated at   0.000000,   0.000000,   0.000000 [a0]

Properties computed using the SCF density matrix

  Nuclear Dipole Moment: [e a0]
     X:    -1.9295      Y:   -15.0035      Z:    -4.4396

  Electronic Dipole Moment: [e a0]
     X:     1.9538      Y:    14.6583      Z:     4.0196

  Dipole Moment: [e a0]
     X:     0.0244      Y:    -0.3451      Z:    -0.4201     Total:     0.5442

  Dipole Moment: [D]
     X:     0.0620      Y:    -0.8773      Z:    -1.0677     Total:     1.3833

*** tstop() called on ds3 at Tue Apr 28 09:22:29 2020
Module time:
	user time   =      86.62 seconds =       1.44 minutes
	system time =      38.79 seconds =       0.65 minutes
	total time  =        121 seconds =       2.02 minutes
Total time:
	user time   =      86.62 seconds =       1.44 minutes
	system time =      38.79 seconds =       0.65 minutes
	total time  =        121 seconds =       2.02 minutes
                                     G D M A

                                 by Anthony Stone

                           version 2.2.06, 22 June 2011

               Distributed Multipoles from Gaussian wavefunctions

Starting at 9:22:29 on 28 Apr 2020

Using SCF density matrix from file ./SSI/SSI-058TYR-068ILE-1-dimer.test.10232.fchk

                         Distributed Multipole Analysis

Standard DMA

Positions and radii in angstrom
Multipole moments in atomic units, ea_0^k for rank k

C          x = -2.775132  y =  0.881538  z = -1.439132 angstrom
           Maximum rank =  0   Radius =  0.650 angstrom
                   Q00  =  -0.193848

C          x =  0.793868  y =  0.288538  z = -0.269132 angstrom
           Maximum rank =  0   Radius =  0.650 angstrom
                   Q00  =  -0.175762

C          x = -0.394132  y =  0.188538  z = -0.981132 angstrom
           Maximum rank =  0   Radius =  0.650 angstrom
                   Q00  =   0.021423

C          x =  0.901868  y =  1.201538  z =  0.767868 angstrom
           Maximum rank =  0   Radius =  0.650 angstrom
                   Q00  =   0.323054

C          x = -1.481132  y =  1.009538  z = -0.677132 angstrom
           Maximum rank =  0   Radius =  0.650 angstrom
                   Q00  =  -0.137153

C          x = -0.176132  y =  2.021538  z =  1.095868 angstrom
           Maximum rank =  0   Radius =  0.650 angstrom
                   Q00  =  -0.121161

C          x = -1.360132  y =  1.927538  z =  0.364868 angstrom
           Maximum rank =  0   Radius =  0.650 angstrom
                   Q00  =  -0.052167

O          x =  2.081868  y =  1.295538  z =  1.443868 angstrom
           Maximum rank =  0   Radius =  0.650 angstrom
                   Q00  =  -0.646199

H          x =  1.637868  y = -0.332462  z = -0.523132 angstrom
           Maximum rank =  0   Radius =  0.325 angstrom
                   Q00  =   0.070869

H          x = -0.476132  y = -0.525462  z = -1.790132 angstrom
           Maximum rank =  0   Radius =  0.325 angstrom
                   Q00  =   0.066669

H          x =  2.758868  y =  0.730538  z =  1.055868 angstrom
           Maximum rank =  0   Radius =  0.325 angstrom
                   Q00  =   0.406279

H          x = -0.082132  y =  2.742538  z =  1.895868 angstrom
           Maximum rank =  0   Radius =  0.325 angstrom
                   Q00  =   0.081743

H          x = -2.576132  y =  0.847538  z = -2.511132 angstrom
           Maximum rank =  0   Radius =  0.325 angstrom
                   Q00  =   0.096738

H          x = -3.368132  y =  1.760538  z = -1.223132 angstrom
           Maximum rank =  0   Radius =  0.325 angstrom
                   Q00  =   0.095616

H          x = -2.187132  y =  2.580538  z =  0.606868 angstrom
           Maximum rank =  0   Radius =  0.325 angstrom
                   Q00  =   0.065033

H          x = -3.366394  y =  0.002208  z = -1.143862 angstrom
           Maximum rank =  0   Radius =  0.325 angstrom
                   Q00  =   0.099237

C          x =  0.635868  y = -3.426462  z =  0.271868 angstrom
           Maximum rank =  0   Radius =  0.650 angstrom
                   Q00  =  -0.228205

C          x =  1.253868  y = -4.474462  z = -0.660132 angstrom
           Maximum rank =  0   Radius =  0.650 angstrom
                   Q00  =  -0.245538

H          x =  0.180868  y = -2.624462  z = -0.305132 angstrom
           Maximum rank =  0   Radius =  0.325 angstrom
                   Q00  =   0.082469

H          x = -0.141132  y = -3.900462  z =  0.864868 angstrom
           Maximum rank =  0   Radius =  0.325 angstrom
                   Q00  =   0.082908

H          x =  1.397868  y = -3.019462  z =  0.938868 angstrom
           Maximum rank =  0   Radius =  0.325 angstrom
                   Q00  =   0.074873

H          x =  0.486868  y = -4.820462  z = -1.350132 angstrom
           Maximum rank =  0   Radius =  0.325 angstrom
                   Q00  =   0.078054

H          x =  1.533868  y = -5.315462  z = -0.029132 angstrom
           Maximum rank =  0   Radius =  0.325 angstrom
                   Q00  =   0.076457

H          x =  2.132147  y = -4.136552  z = -1.229732 angstrom
           Maximum rank =  0   Radius =  0.325 angstrom
                   Q00  =   0.078609

Total multipoles referred to origin at
           x =   0.000000,  y =    0.000000,  z =    0.000000 angstrom
                   Q00  =  -0.000000

Finished at 9:22:29 on 28 Apr 2020

  DMA results are available in the Python driver through the
	  variable('DMA DISTRIBUTED MULTIPOLES')
  and
	  variable('DMA TOTAL MULTIPOLES')
  commands.

    Psi4 stopped on: Tuesday, 28 April 2020 09:22AM
    Psi4 wall time for execution: 0:02:00.96

*** Psi4 exiting successfully. Buy a developer a beer!
