                               Psi4 1.3.2 release

  ==> Input File <==

--------------------------------------------------------------------------
import numpy as np
set {scf_type pk
basis cc-pvdz
d_convergence 10
gdma_switch   0
gdma_limit    0
gdma_origin   [ 0.0,  0.0,  0.0 ]
}
molecule test {
    units Angstrom
    0 1
    --
    0 1
    C                1.735337730899518     2.036540494464312     0.090865683810279
    C                2.928337730899518     2.315540494464311     0.999865683810279
    C                0.799337730899518     3.232540494464312    -0.081134316189721
    H                2.095337730899518     1.726540494464312    -0.890134316189721
    H                1.162337730899518     1.206540494464312     0.502865683810279
    H                2.597337730899519     2.803540494464311     1.916865683810278
    H                1.376337730899518     4.142540494464312    -0.245134316189721
    H                0.163337730899518     3.064540494464312    -0.951134316189721
    H                3.651527730899518     2.961140494464312     0.480065683810278
    H                3.393707730899519     1.368264494464312     1.309865683810278
    H                0.157967730899518     3.346400494464312     0.805255683810278
    C               -2.225662269100481     0.218540494464312    -2.359134316189721
    C               -0.606662269100482    -0.775459505535688    -0.567134316189722
    C               -1.849662269100482    -0.166459505535688    -0.968134316189721
    C               -0.671662269100482    -0.984459505535688     0.835865683810279
    C               -2.592662269100482    -0.032459505535688     0.162865683810279
    C                0.551337730899518    -1.176459505535688    -1.254134316189722
    C                0.376337730899518    -1.563459505535688     1.553865683810278
    C                1.604337730899518    -1.753459505535688    -0.536134316189721
    C                1.511337730899518    -1.945459505535688     0.854865683810279
    N               -1.892662269100482    -0.516459505535688     1.244865683810279
    H                0.629337730899518    -1.028459505535688    -2.321134316189722
    H               -2.217662269100481    -0.668459505535688    -2.982134316189722
    H               -1.417662269100482     0.858540494464312    -2.707134316189721
    H               -3.594662269100482     0.382540494464312     0.208865683810279
    H               -2.246662269100482    -0.521459505535688     2.195865683810278
    H                0.298337730899518    -1.713459505535688     2.620865683810278
    H                2.504337730899519    -2.053459505535688    -1.057134316189721
    H                2.330337730899519    -2.404459505535688     1.389865683810278
    H               -3.161562269100482     0.783814494464312    -2.479804316189722

}
e, wfn = energy('scf', return_wfn=True)
gdma(wfn)
dmavals = variable('DMA DISTRIBUTED MULTIPOLES')
charges = np.array(dmavals)
print(charges)
np.save('SSI-076ARG-120TRP-1-dimer.npy', np.array(charges))--------------------------------------------------------------------------

*** tstart() called on ds3
*** at Mon Apr 27 22:50:26 2020

   => Loading Basis Set <=

    Name: CC-PVDZ
    Role: ORBITAL
    Keyword: BASIS
    atoms 1-3, 12-20  entry C          line   138 file /theoryfs2/ds/metcalf/miniconda2/envs/tf2gpu/share/psi4/basis/cc-pvdz.gbs
    atoms 4-11, 22-30 entry H          line    22 file /theoryfs2/ds/metcalf/miniconda2/envs/tf2gpu/share/psi4/basis/cc-pvdz.gbs
    atoms 21          entry N          line   168 file /theoryfs2/ds/metcalf/miniconda2/envs/tf2gpu/share/psi4/basis/cc-pvdz.gbs

         ---------------------------------------------------------
                                   SCF
               by Justin Turney, Rob Parrish, Andy Simmonett
                          and Daniel G. A. Smith
                              RHF Reference
                        1 Threads,    500 MiB Core
         ---------------------------------------------------------

  ==> Geometry <==

    Molecular point group: c1
    Full point group: C1

    Geometry (in Angstrom), charge = 0, multiplicity = 1:

       Center              X                  Y                   Z               Mass
    ------------   -----------------  -----------------  -----------------  -----------------
         C            1.735337730900     2.036540494464     0.090865683810    12.000000000000
         C            2.928337730900     2.315540494464     0.999865683810    12.000000000000
         C            0.799337730900     3.232540494464    -0.081134316190    12.000000000000
         H            2.095337730900     1.726540494464    -0.890134316190     1.007825032230
         H            1.162337730900     1.206540494464     0.502865683810     1.007825032230
         H            2.597337730900     2.803540494464     1.916865683810     1.007825032230
         H            1.376337730900     4.142540494464    -0.245134316190     1.007825032230
         H            0.163337730900     3.064540494464    -0.951134316190     1.007825032230
         H            3.651527730900     2.961140494464     0.480065683810     1.007825032230
         H            3.393707730900     1.368264494464     1.309865683810     1.007825032230
         H            0.157967730900     3.346400494464     0.805255683810     1.007825032230
         C           -2.225662269100     0.218540494464    -2.359134316190    12.000000000000
         C           -0.606662269100    -0.775459505536    -0.567134316190    12.000000000000
         C           -1.849662269100    -0.166459505536    -0.968134316190    12.000000000000
         C           -0.671662269100    -0.984459505536     0.835865683810    12.000000000000
         C           -2.592662269100    -0.032459505536     0.162865683810    12.000000000000
         C            0.551337730900    -1.176459505536    -1.254134316190    12.000000000000
         C            0.376337730900    -1.563459505536     1.553865683810    12.000000000000
         C            1.604337730900    -1.753459505536    -0.536134316190    12.000000000000
         C            1.511337730900    -1.945459505536     0.854865683810    12.000000000000
         N           -1.892662269100    -0.516459505536     1.244865683810    14.003074004430
         H            0.629337730900    -1.028459505536    -2.321134316190     1.007825032230
         H           -2.217662269100    -0.668459505536    -2.982134316190     1.007825032230
         H           -1.417662269100     0.858540494464    -2.707134316190     1.007825032230
         H           -3.594662269100     0.382540494464     0.208865683810     1.007825032230
         H           -2.246662269100    -0.521459505536     2.195865683810     1.007825032230
         H            0.298337730900    -1.713459505536     2.620865683810     1.007825032230
         H            2.504337730900    -2.053459505536    -1.057134316190     1.007825032230
         H            2.330337730900    -2.404459505536     1.389865683810     1.007825032230
         H           -3.161562269100     0.783814494464    -2.479804316190     1.007825032230

  Running in c1 symmetry.

  Rotational constants: A =      0.02805  B =      0.02018  C =      0.01606 [cm^-1]
  Rotational constants: A =    840.79394  B =    604.90898  C =    481.51089 [MHz]
  Nuclear repulsion =  770.140664836813244

  Charge       = 0
  Multiplicity = 1
  Electrons    = 96
  Nalpha       = 48
  Nbeta        = 48

  ==> Algorithm <==

  SCF Algorithm Type is PK.
  DIIS enabled.
  MOM disabled.
  Fractional occupation disabled.
  Guess Type is SAD.
  Energy threshold   = 1.00e-06
  Density threshold  = 1.00e-10
  Integral threshold = 0.00e+00

  ==> Primary Basis <==

  Basis Set: CC-PVDZ
    Blend: CC-PVDZ
    Number of shells: 129
    Number of basis function: 267
    Number of Cartesian functions: 280
    Spherical Harmonics?: true
    Max angular momentum: 2

  ==> Pre-Iterations <==

   -------------------------------------------------------
    Irrep   Nso     Nmo     Nalpha   Nbeta   Ndocc  Nsocc
   -------------------------------------------------------
     A        267     267       0       0       0       0
   -------------------------------------------------------
    Total     267     267      48      48      48       0
   -------------------------------------------------------

  ==> Integral Setup <==

  Using integral reordering PK algorithm.
  Sizing the integral batches needed.
  Building batch lookup table.
   Calculation information:
      Number of atoms:                  30
      Number of AO shells:             129
      Number of primitives:            371
      Number of atomic orbitals:       280
      Number of basis functions:       267

      Integral cutoff                 1.00e-12
      Number of threads:                 1

	Batch   1 pq = [       0,    9405] index = [             0,44231715] size =     44231715
	Batch   2 pq = [    9405,   13301] index = [      44231715,88464951] size =     44233236
	Batch   3 pq = [   13301,   16290] index = [      88464951,132690195] size =     44225244
	Batch   4 pq = [   16290,   18810] index = [     132690195,176917455] size =     44227260
	Batch   5 pq = [   18810,   21030] index = [     176917455,221140965] size =     44223510
	Batch   6 pq = [   21030,   23037] index = [     221140965,265363203] size =     44222238
	Batch   7 pq = [   23037,   24883] index = [     265363203,309594286] size =     44231083
	Batch   8 pq = [   24883,   26601] index = [     309594286,353819901] size =     44225615
	Batch   9 pq = [   26601,   28214] index = [     353819901,398029005] size =     44209104
	Batch  10 pq = [   28214,   29740] index = [     398029005,442248670] size =     44219665
	Batch  11 pq = [   29740,   31191] index = [     442248670,486454836] size =     44206166
	Batch  12 pq = [   31191,   32578] index = [     486454836,530679331] size =     44224495
	Batch  13 pq = [   32578,   33908] index = [     530679331,574893186] size =     44213855
	Batch  14 pq = [   33908,   35188] index = [     574893186,619115266] size =     44222080
	Batch  15 pq = [   35188,   35778] index = [     619115266,640050531] size =     20935265
  Task number: 58
  Buffer size: 11059200
  Buffer per thread: 2
  We computed 41006073 shell quartets total.
  Whereas there are 35158305 unique shell quartets.
    16.63 percent of shell quartets recomputed by reordering.

  ==> DiskJK: Disk-Based J/K Matrices <==

    J tasked:                  Yes
    K tasked:                  Yes
    wK tasked:                  No
    Memory [MiB]:              375
    Schwarz Cutoff:          1E-12

    OpenMP threads:              1

  Minimum eigenvalue in the overlap matrix is 2.4786484189E-04.
  Using Symmetric Orthogonalization.

  SCF Guess: Superposition of Atomic Densities via on-the-fly atomic UHF.

  ==> Iterations <==

                        Total Energy        Delta E     RMS |[F,P]|

   @RHF iter SAD:  -518.01224937771576   -5.18012e+02   0.00000e+00
   @RHF iter   1:  -518.49310671430817   -4.80857e-01   2.49711e-03 DIIS
   @RHF iter   2:  -518.75168068125197   -2.58574e-01   1.11056e-03 DIIS
   @RHF iter   3:  -518.79828230232863   -4.66016e-02   2.84730e-04 DIIS
   @RHF iter   4:  -518.80240100296317   -4.11870e-03   1.31335e-04 DIIS
   @RHF iter   5:  -518.80308986730165   -6.88864e-04   1.95985e-05 DIIS
   @RHF iter   6:  -518.80312140902220   -3.15417e-05   8.63628e-06 DIIS
   @RHF iter   7:  -518.80312787319849   -6.46418e-06   3.52729e-06 DIIS
   @RHF iter   8:  -518.80312964523318   -1.77203e-06   1.49602e-06 DIIS
   @RHF iter   9:  -518.80313003638616   -3.91153e-07   6.63283e-07 DIIS
   @RHF iter  10:  -518.80313011899716   -8.26110e-08   2.88039e-07 DIIS
   @RHF iter  11:  -518.80313013681143   -1.78143e-08   1.10352e-07 DIIS
   @RHF iter  12:  -518.80313013925479   -2.44336e-09   3.93678e-08 DIIS
   @RHF iter  13:  -518.80313013945579   -2.00998e-10   1.04692e-08 DIIS
   @RHF iter  14:  -518.80313013946989   -1.40972e-11   3.86823e-09 DIIS
   @RHF iter  15:  -518.80313013947807   -8.18545e-12   2.17555e-09 DIIS
   @RHF iter  16:  -518.80313013947284    5.22959e-12   9.55005e-10 DIIS
   @RHF iter  17:  -518.80313013947477   -1.93268e-12   3.94612e-10 DIIS
   @RHF iter  18:  -518.80313013947978   -5.00222e-12   1.48351e-10 DIIS
   @RHF iter  19:  -518.80313013947716    2.61480e-12   5.71991e-11 DIIS
  Energy and wave function converged.

  ==> Post-Iterations <==

    Orbital Energies [Eh]
    ---------------------

    Doubly Occupied:

       1A    -15.601408     2A    -11.266731     3A    -11.263991
       4A    -11.233979     5A    -11.233593     6A    -11.232334
       7A    -11.226371     8A    -11.224591     9A    -11.222859
      10A    -11.219444    11A    -11.205069    12A    -11.204361
      13A    -11.200926    14A     -1.295067    15A     -1.127699
      16A     -1.074698    17A     -1.039135    18A     -0.997135
      19A     -0.988291    20A     -0.934026    21A     -0.912674
      22A     -0.840457    23A     -0.804057    24A     -0.781585
      25A     -0.752867    26A     -0.720057    27A     -0.663812
      28A     -0.642763    29A     -0.613251    30A     -0.603767
      31A     -0.594134    32A     -0.591149    33A     -0.580157
      34A     -0.571320    35A     -0.553233    36A     -0.538922
      37A     -0.535174    38A     -0.526916    39A     -0.524485
      40A     -0.495880    41A     -0.474501    42A     -0.469160
      43A     -0.456639    44A     -0.453492    45A     -0.445236
      46A     -0.371924    47A     -0.295890    48A     -0.276921

    Virtual:

      49A      0.123602    50A      0.164839    51A      0.173080
      52A      0.179974    53A      0.196993    54A      0.202692
      55A      0.219793    56A      0.227875    57A      0.232580
      58A      0.245806    59A      0.249929    60A      0.254242
      61A      0.264115    62A      0.271933    63A      0.278113
      64A      0.282036    65A      0.289922    66A      0.306974
      67A      0.319446    68A      0.346919    69A      0.372022
      70A      0.381578    71A      0.390034    72A      0.408985
      73A      0.417166    74A      0.435551    75A      0.441864
      76A      0.469658    77A      0.479311    78A      0.499445
      79A      0.512930    80A      0.589247    81A      0.594168
      82A      0.602205    83A      0.607996    84A      0.613844
      85A      0.621257    86A      0.630394    87A      0.638566
      88A      0.651356    89A      0.661787    90A      0.698204
      91A      0.708676    92A      0.729902    93A      0.732096
      94A      0.739644    95A      0.747537    96A      0.758353
      97A      0.759554    98A      0.775209    99A      0.779796
     100A      0.788530   101A      0.798525   102A      0.804848
     103A      0.825625   104A      0.831469   105A      0.845002
     106A      0.866523   107A      0.871583   108A      0.879433
     109A      0.882809   110A      0.890302   111A      0.892583
     112A      0.901237   113A      0.906004   114A      0.909225
     115A      0.912326   116A      0.922441   117A      0.929758
     118A      0.933960   119A      0.939986   120A      0.953021
     121A      0.955989   122A      0.962409   123A      0.972379
     124A      0.980510   125A      0.995337   126A      1.013931
     127A      1.018785   128A      1.049626   129A      1.069233
     130A      1.083138   131A      1.098257   132A      1.121710
     133A      1.129700   134A      1.137616   135A      1.146361
     136A      1.153623   137A      1.165388   138A      1.176034
     139A      1.210749   140A      1.220492   141A      1.227536
     142A      1.231898   143A      1.245712   144A      1.267831
     145A      1.292862   146A      1.296651   147A      1.306374
     148A      1.326218   149A      1.346431   150A      1.359683
     151A      1.370897   152A      1.394274   153A      1.410860
     154A      1.440857   155A      1.473856   156A      1.490424
     157A      1.522754   158A      1.555991   159A      1.567485
     160A      1.581201   161A      1.595104   162A      1.635160
     163A      1.640680   164A      1.652653   165A      1.666189
     166A      1.685550   167A      1.688562   168A      1.694392
     169A      1.700444   170A      1.731966   171A      1.742099
     172A      1.761571   173A      1.771807   174A      1.785840
     175A      1.811718   176A      1.828083   177A      1.839284
     178A      1.868780   179A      1.874347   180A      1.877640
     181A      1.888224   182A      1.892973   183A      1.904113
     184A      1.911727   185A      1.921254   186A      1.928442
     187A      1.932955   188A      1.943538   189A      1.945959
     190A      1.960021   191A      1.968007   192A      1.979634
     193A      1.985018   194A      1.988773   195A      2.000287
     196A      2.002251   197A      2.014737   198A      2.024098
     199A      2.028059   200A      2.034003   201A      2.043576
     202A      2.058350   203A      2.084695   204A      2.093977
     205A      2.103452   206A      2.105948   207A      2.115650
     208A      2.134998   209A      2.145275   210A      2.158969
     211A      2.167557   212A      2.172776   213A      2.183946
     214A      2.190675   215A      2.217810   216A      2.225192
     217A      2.292294   218A      2.295465   219A      2.301361
     220A      2.311551   221A      2.316474   222A      2.322813
     223A      2.342986   224A      2.355525   225A      2.365845
     226A      2.396165   227A      2.444954   228A      2.448183
     229A      2.462399   230A      2.494972   231A      2.534752
     232A      2.545848   233A      2.582255   234A      2.596163
     235A      2.599541   236A      2.638698   237A      2.647532
     238A      2.653092   239A      2.661041   240A      2.676330
     241A      2.703128   242A      2.768683   243A      2.771903
     244A      2.778508   245A      2.783812   246A      2.788932
     247A      2.794664   248A      2.798676   249A      2.809740
     250A      2.852713   251A      2.862181   252A      2.874091
     253A      2.900045   254A      2.926769   255A      2.969032
     256A      2.974582   257A      2.987555   258A      3.036585
     259A      3.053568   260A      3.079234   261A      3.106899
     262A      3.130648   263A      3.201139   264A      3.299486
     265A      3.377659   266A      3.741391   267A      3.936242

    Final Occupation by Irrep:
              A
    DOCC [    48 ]

  @RHF Final Energy:  -518.80313013947716

   => Energetics <=

    Nuclear Repulsion Energy =            770.1406648368132437
    One-Electron Energy =               -2230.1233304810839400
    Two-Electron Energy =                 941.1795355047934208
    Total Energy =                       -518.8031301394771617

Computation Completed

Properties will be evaluated at   0.000000,   0.000000,   0.000000 [a0]

Properties computed using the SCF density matrix

  Nuclear Dipole Moment: [e a0]
     X:     7.2447      Y:    13.3648      Z:    -2.0692

  Electronic Dipole Moment: [e a0]
     X:    -7.9102      Y:   -13.3552      Z:     2.5209

  Dipole Moment: [e a0]
     X:    -0.6655      Y:     0.0096      Z:     0.4517     Total:     0.8044

  Dipole Moment: [D]
     X:    -1.6917      Y:     0.0243      Z:     1.1480     Total:     2.0446

*** tstop() called on ds3 at Mon Apr 27 22:59:37 2020
Module time:
	user time   =     334.71 seconds =       5.58 minutes
	system time =     107.47 seconds =       1.79 minutes
	total time  =        551 seconds =       9.18 minutes
Total time:
	user time   =     334.71 seconds =       5.58 minutes
	system time =     107.47 seconds =       1.79 minutes
	total time  =        551 seconds =       9.18 minutes
                                     G D M A

                                 by Anthony Stone

                           version 2.2.06, 22 June 2011

               Distributed Multipoles from Gaussian wavefunctions

Starting at 22:59:37 on 27 Apr 2020

Using SCF density matrix from file ./SSI/SSI-076ARG-120TRP-1-dimer.test.29250.fchk

                         Distributed Multipole Analysis

Standard DMA

Positions and radii in angstrom
Multipole moments in atomic units, ea_0^k for rank k

C          x =  1.735338  y =  2.036540  z =  0.090866 angstrom
           Maximum rank =  0   Radius =  0.650 angstrom
                   Q00  =  -0.073202

C          x =  2.928338  y =  2.315540  z =  0.999866 angstrom
           Maximum rank =  0   Radius =  0.650 angstrom
                   Q00  =  -0.239009

C          x =  0.799338  y =  3.232540  z = -0.081134 angstrom
           Maximum rank =  0   Radius =  0.650 angstrom
                   Q00  =  -0.243619

H          x =  2.095338  y =  1.726540  z = -0.890134 angstrom
           Maximum rank =  0   Radius =  0.325 angstrom
                   Q00  =   0.039791

H          x =  1.162338  y =  1.206540  z =  0.502866 angstrom
           Maximum rank =  0   Radius =  0.325 angstrom
                   Q00  =   0.061502

H          x =  2.597338  y =  2.803540  z =  1.916866 angstrom
           Maximum rank =  0   Radius =  0.325 angstrom
                   Q00  =   0.069231

H          x =  1.376338  y =  4.142540  z = -0.245134 angstrom
           Maximum rank =  0   Radius =  0.325 angstrom
                   Q00  =   0.068890

H          x =  0.163338  y =  3.064540  z = -0.951134 angstrom
           Maximum rank =  0   Radius =  0.325 angstrom
                   Q00  =   0.080899

H          x =  3.651528  y =  2.961140  z =  0.480066 angstrom
           Maximum rank =  0   Radius =  0.325 angstrom
                   Q00  =   0.072441

H          x =  3.393708  y =  1.368264  z =  1.309866 angstrom
           Maximum rank =  0   Radius =  0.325 angstrom
                   Q00  =   0.080593

H          x =  0.157968  y =  3.346400  z =  0.805256 angstrom
           Maximum rank =  0   Radius =  0.325 angstrom
                   Q00  =   0.075121

C          x = -2.225662  y =  0.218540  z = -2.359134 angstrom
           Maximum rank =  0   Radius =  0.650 angstrom
                   Q00  =  -0.201142

C          x = -0.606662  y = -0.775460  z = -0.567134 angstrom
           Maximum rank =  0   Radius =  0.650 angstrom
                   Q00  =  -0.062982

C          x = -1.849662  y = -0.166460  z = -0.968134 angstrom
           Maximum rank =  0   Radius =  0.650 angstrom
                   Q00  =  -0.117538

C          x = -0.671662  y = -0.984460  z =  0.835866 angstrom
           Maximum rank =  0   Radius =  0.650 angstrom
                   Q00  =   0.293116

C          x = -2.592662  y = -0.032460  z =  0.162866 angstrom
           Maximum rank =  0   Radius =  0.650 angstrom
                   Q00  =   0.071244

C          x =  0.551338  y = -1.176460  z = -1.254134 angstrom
           Maximum rank =  0   Radius =  0.650 angstrom
                   Q00  =  -0.091872

C          x =  0.376338  y = -1.563460  z =  1.553866 angstrom
           Maximum rank =  0   Radius =  0.650 angstrom
                   Q00  =  -0.123938

C          x =  1.604338  y = -1.753460  z = -0.536134 angstrom
           Maximum rank =  0   Radius =  0.650 angstrom
                   Q00  =  -0.088241

C          x =  1.511338  y = -1.945460  z =  0.854866 angstrom
           Maximum rank =  0   Radius =  0.650 angstrom
                   Q00  =  -0.067967

N          x = -1.892662  y = -0.516460  z =  1.244866 angstrom
           Maximum rank =  0   Radius =  0.650 angstrom
                   Q00  =  -0.498663

H          x =  0.629338  y = -1.028460  z = -2.321134 angstrom
           Maximum rank =  0   Radius =  0.325 angstrom
                   Q00  =   0.071709

H          x = -2.217662  y = -0.668460  z = -2.982134 angstrom
           Maximum rank =  0   Radius =  0.325 angstrom
                   Q00  =   0.100269

H          x = -1.417662  y =  0.858540  z = -2.707134 angstrom
           Maximum rank =  0   Radius =  0.325 angstrom
                   Q00  =   0.093103

H          x = -3.594662  y =  0.382540  z =  0.208866 angstrom
           Maximum rank =  0   Radius =  0.325 angstrom
                   Q00  =   0.103659

H          x = -2.246662  y = -0.521460  z =  2.195866 angstrom
           Maximum rank =  0   Radius =  0.325 angstrom
                   Q00  =   0.215961

H          x =  0.298338  y = -1.713460  z =  2.620866 angstrom
           Maximum rank =  0   Radius =  0.325 angstrom
                   Q00  =   0.073516

H          x =  2.504338  y = -2.053460  z = -1.057134 angstrom
           Maximum rank =  0   Radius =  0.325 angstrom
                   Q00  =   0.062805

H          x =  2.330338  y = -2.404460  z =  1.389866 angstrom
           Maximum rank =  0   Radius =  0.325 angstrom
                   Q00  =   0.066902

H          x = -3.161562  y =  0.783814  z = -2.479804 angstrom
           Maximum rank =  0   Radius =  0.325 angstrom
                   Q00  =   0.107423

Total multipoles referred to origin at
           x =   0.000000,  y =    0.000000,  z =    0.000000 angstrom
                   Q00  =  -0.000000

Finished at 22:59:37 on 27 Apr 2020

  DMA results are available in the Python driver through the
	  variable('DMA DISTRIBUTED MULTIPOLES')
  and
	  variable('DMA TOTAL MULTIPOLES')
  commands.

    Psi4 stopped on: Monday, 27 April 2020 10:59PM
    Psi4 wall time for execution: 0:09:10.68

*** Psi4 exiting successfully. Buy a developer a beer!
