                               Psi4 1.3.2 release

  ==> Input File <==

--------------------------------------------------------------------------
import numpy as np
set {scf_type pk
basis cc-pvdz
d_convergence 10
gdma_switch   0
gdma_limit    0
gdma_origin   [ 0.0,  0.0,  0.0 ]
}
molecule test {
    units Angstrom
    0 1
    --
    0 1
    C               -0.281350437186072    -1.302681025197809    -3.229905871394102
    C               -1.513350437186072    -1.679681025197809    -2.397905871394102
    H               -0.466350437186072    -1.483681025197809    -4.288905871394103
    H               -0.048350437186072    -0.246681025197809    -3.088905871394102
    H                0.587649562813928    -1.876681025197809    -2.910905871394102
    H               -1.252350437186072    -1.582681025197809    -1.345905871394102
    H               -1.818230437186072    -2.718273025197809    -2.593805871394102
    H               -2.333090437186072    -0.976941025197809    -2.608105871394103
    C               -1.377350437186072    -0.718681025197809     2.247094128605898
    C                0.231649562813928     1.290318974802191    -0.534905871394103
    C               -0.712350437186072     0.614318974802191     0.229094128605898
    C                1.555649562813928     1.389318974802191    -0.101905871394102
    C               -0.350350437186072     0.035318974802191     1.443094128605897
    C                1.934649562813928     0.808318974802191     1.103094128605898
    C                0.979649562813928     0.129318974802191     1.872094128605898
    H               -0.062350437186072     1.749318974802192    -1.470905871394102
    H               -1.735350437186072     0.554318974802191    -0.115905871394102
    H                2.283649562813928     1.922318974802191    -0.699905871394102
    H                2.957649562813928     0.889318974802191     1.447094128605898
    H               -2.363350437186072    -0.300681025197809     2.034094128605898
    H               -1.188350437186072    -0.565681025197809     3.311094128605897
    H                1.277649562813928    -0.307681025197809     2.815094128605898
    H               -1.397480437186072    -1.794021025197809     2.016394128605898

}
e, wfn = energy('scf', return_wfn=True)
gdma(wfn)
dmavals = variable('DMA DISTRIBUTED MULTIPOLES')
charges = np.array(dmavals)
print(charges)
np.save('SSI-101VAL-132PHE-2-dimer.npy', np.array(charges))--------------------------------------------------------------------------

*** tstart() called on ds3
*** at Tue Apr 28 12:04:39 2020

   => Loading Basis Set <=

    Name: CC-PVDZ
    Role: ORBITAL
    Keyword: BASIS
    atoms 1-2, 9-15  entry C          line   138 file /theoryfs2/ds/metcalf/miniconda2/envs/tf2gpu/share/psi4/basis/cc-pvdz.gbs
    atoms 3-8, 16-23 entry H          line    22 file /theoryfs2/ds/metcalf/miniconda2/envs/tf2gpu/share/psi4/basis/cc-pvdz.gbs

         ---------------------------------------------------------
                                   SCF
               by Justin Turney, Rob Parrish, Andy Simmonett
                          and Daniel G. A. Smith
                              RHF Reference
                        1 Threads,    500 MiB Core
         ---------------------------------------------------------

  ==> Geometry <==

    Molecular point group: c1
    Full point group: C1

    Geometry (in Angstrom), charge = 0, multiplicity = 1:

       Center              X                  Y                   Z               Mass
    ------------   -----------------  -----------------  -----------------  -----------------
         C           -0.281350437186    -1.302681025198    -3.229905871394    12.000000000000
         C           -1.513350437186    -1.679681025198    -2.397905871394    12.000000000000
         H           -0.466350437186    -1.483681025198    -4.288905871394     1.007825032230
         H           -0.048350437186    -0.246681025198    -3.088905871394     1.007825032230
         H            0.587649562814    -1.876681025198    -2.910905871394     1.007825032230
         H           -1.252350437186    -1.582681025198    -1.345905871394     1.007825032230
         H           -1.818230437186    -2.718273025198    -2.593805871394     1.007825032230
         H           -2.333090437186    -0.976941025198    -2.608105871394     1.007825032230
         C           -1.377350437186    -0.718681025198     2.247094128606    12.000000000000
         C            0.231649562814     1.290318974802    -0.534905871394    12.000000000000
         C           -0.712350437186     0.614318974802     0.229094128606    12.000000000000
         C            1.555649562814     1.389318974802    -0.101905871394    12.000000000000
         C           -0.350350437186     0.035318974802     1.443094128606    12.000000000000
         C            1.934649562814     0.808318974802     1.103094128606    12.000000000000
         C            0.979649562814     0.129318974802     1.872094128606    12.000000000000
         H           -0.062350437186     1.749318974802    -1.470905871394     1.007825032230
         H           -1.735350437186     0.554318974802    -0.115905871394     1.007825032230
         H            2.283649562814     1.922318974802    -0.699905871394     1.007825032230
         H            2.957649562814     0.889318974802     1.447094128606     1.007825032230
         H           -2.363350437186    -0.300681025198     2.034094128606     1.007825032230
         H           -1.188350437186    -0.565681025198     3.311094128606     1.007825032230
         H            1.277649562814    -0.307681025198     2.815094128606     1.007825032230
         H           -1.397480437186    -1.794021025198     2.016394128606     1.007825032230

  Running in c1 symmetry.

  Rotational constants: A =      0.06332  B =      0.03149  C =      0.02393 [cm^-1]
  Rotational constants: A =   1898.20341  B =    944.10392  C =    717.25940 [MHz]
  Nuclear repulsion =  414.058658148580548

  Charge       = 0
  Multiplicity = 1
  Electrons    = 68
  Nalpha       = 34
  Nbeta        = 34

  ==> Algorithm <==

  SCF Algorithm Type is PK.
  DIIS enabled.
  MOM disabled.
  Fractional occupation disabled.
  Guess Type is SAD.
  Energy threshold   = 1.00e-06
  Density threshold  = 1.00e-10
  Integral threshold = 0.00e+00

  ==> Primary Basis <==

  Basis Set: CC-PVDZ
    Blend: CC-PVDZ
    Number of shells: 96
    Number of basis function: 196
    Number of Cartesian functions: 205
    Spherical Harmonics?: true
    Max angular momentum: 2

  ==> Pre-Iterations <==

   -------------------------------------------------------
    Irrep   Nso     Nmo     Nalpha   Nbeta   Ndocc  Nsocc
   -------------------------------------------------------
     A        196     196       0       0       0       0
   -------------------------------------------------------
    Total     196     196      34      34      34       0
   -------------------------------------------------------

  ==> Integral Setup <==

  Using integral reordering PK algorithm.
  Sizing the integral batches needed.
  Building batch lookup table.
   Calculation information:
      Number of atoms:                  23
      Number of AO shells:              96
      Number of primitives:            268
      Number of atomic orbitals:       205
      Number of basis functions:       196

      Integral cutoff                 1.00e-12
      Number of threads:                 1

	Batch   1 pq = [       0,    9405] index = [             0,44231715] size =     44231715
	Batch   2 pq = [    9405,   13301] index = [      44231715,88464951] size =     44233236
	Batch   3 pq = [   13301,   16290] index = [      88464951,132690195] size =     44225244
	Batch   4 pq = [   16290,   18810] index = [     132690195,176917455] size =     44227260
	Batch   5 pq = [   18810,   19306] index = [     176917455,186370471] size =      9453016
  Task number: 17
  Buffer size: 11059200
  Buffer per thread: 2
  We computed 10108812 shell quartets total.
  Whereas there are 10841496 unique shell quartets.

  ==> DiskJK: Disk-Based J/K Matrices <==

    J tasked:                  Yes
    K tasked:                  Yes
    wK tasked:                  No
    Memory [MiB]:              375
    Schwarz Cutoff:          1E-12

    OpenMP threads:              1

  Minimum eigenvalue in the overlap matrix is 3.1502295498E-04.
  Using Symmetric Orthogonalization.

  SCF Guess: Superposition of Atomic Densities via on-the-fly atomic UHF.

  ==> Iterations <==

                        Total Energy        Delta E     RMS |[F,P]|

   @RHF iter SAD:  -347.83700905536375   -3.47837e+02   0.00000e+00
   @RHF iter   1:  -348.76787582905490   -9.30867e-01   2.88456e-03 DIIS
   @RHF iter   2:  -348.95925587654824   -1.91380e-01   1.19889e-03 DIIS
   @RHF iter   3:  -348.98936806828482   -3.01122e-02   2.58850e-04 DIIS
   @RHF iter   4:  -348.99184279944177   -2.47473e-03   5.33454e-05 DIIS
   @RHF iter   5:  -348.99191702088621   -7.42214e-05   1.81598e-05 DIIS
   @RHF iter   6:  -348.99192505076417   -8.02988e-06   4.87682e-06 DIIS
   @RHF iter   7:  -348.99192571738837   -6.66624e-07   1.21209e-06 DIIS
   @RHF iter   8:  -348.99192576630219   -4.89138e-08   3.04475e-07 DIIS
   @RHF iter   9:  -348.99192577213103   -5.82884e-09   1.42304e-07 DIIS
   @RHF iter  10:  -348.99192577344826   -1.31723e-09   6.69225e-08 DIIS
   @RHF iter  11:  -348.99192577394507   -4.96811e-10   2.92687e-08 DIIS
   @RHF iter  12:  -348.99192577402755   -8.24798e-11   1.39722e-08 DIIS
   @RHF iter  13:  -348.99192577404347   -1.59162e-11   4.16148e-09 DIIS
   @RHF iter  14:  -348.99192577404739   -3.92220e-12   1.10512e-09 DIIS
   @RHF iter  15:  -348.99192577404534    2.04636e-12   3.61487e-10 DIIS
   @RHF iter  16:  -348.99192577404426    1.08002e-12   1.21901e-10 DIIS
   @RHF iter  17:  -348.99192577404426    0.00000e+00   5.13566e-11 DIIS
  Energy and wave function converged.

  ==> Post-Iterations <==

    Orbital Energies [Eh]
    ---------------------

    Doubly Occupied:

       1A    -11.241941     2A    -11.237440     3A    -11.236264
       4A    -11.233049     5A    -11.232549     6A    -11.230663
       7A    -11.230215     8A    -11.214670     9A    -11.212015
      10A     -1.151626    11A     -1.044057    12A     -1.013746
      13A     -1.009614    14A     -0.931002    15A     -0.833491
      16A     -0.824297    17A     -0.795289    18A     -0.690672
      19A     -0.631459    20A     -0.630148    21A     -0.595817
      22A     -0.592517    23A     -0.580926    24A     -0.577213
      25A     -0.562264    26A     -0.534458    27A     -0.495090
      28A     -0.488457    29A     -0.487287    30A     -0.482659
      31A     -0.479392    32A     -0.478232    33A     -0.331786
      34A     -0.322104

    Virtual:

      35A      0.133016    36A      0.139216    37A      0.173466
      38A      0.194378    39A      0.202322    40A      0.219942
      41A      0.231804    42A      0.241141    43A      0.253157
      44A      0.262442    45A      0.271992    46A      0.275960
      47A      0.282335    48A      0.303137    49A      0.318947
      50A      0.334652    51A      0.365585    52A      0.380560
      53A      0.403697    54A      0.450960    55A      0.460868
      56A      0.480040    57A      0.486371    58A      0.558696
      59A      0.587545    60A      0.597138    61A      0.609531
      62A      0.614640    63A      0.641514    64A      0.666896
      65A      0.675755    66A      0.684030    67A      0.704231
      68A      0.707104    69A      0.720859    70A      0.740512
      71A      0.744348    72A      0.749338    73A      0.761118
      74A      0.775638    75A      0.780408    76A      0.819209
      77A      0.841648    78A      0.852063    79A      0.860827
      80A      0.866171    81A      0.874766    82A      0.878431
      83A      0.887570    84A      0.896210    85A      0.903324
      86A      0.909753    87A      0.916233    88A      0.921309
      89A      0.935351    90A      0.946011    91A      0.979426
      92A      0.986473    93A      0.997844    94A      1.012754
      95A      1.028178    96A      1.072016    97A      1.118101
      98A      1.123879    99A      1.130457   100A      1.140951
     101A      1.155162   102A      1.167867   103A      1.191220
     104A      1.236955   105A      1.238278   106A      1.247343
     107A      1.253768   108A      1.280499   109A      1.295847
     110A      1.308188   111A      1.319564   112A      1.331635
     113A      1.411810   114A      1.478193   115A      1.489053
     116A      1.505181   117A      1.520955   118A      1.553030
     119A      1.589651   120A      1.602526   121A      1.671977
     122A      1.694455   123A      1.699685   124A      1.712768
     125A      1.738705   126A      1.753151   127A      1.767732
     128A      1.797211   129A      1.809060   130A      1.852892
     131A      1.870897   132A      1.876753   133A      1.886440
     134A      1.890328   135A      1.900292   136A      1.913846
     137A      1.920412   138A      1.923960   139A      1.935900
     140A      1.944239   141A      1.950575   142A      1.953082
     143A      1.955304   144A      1.964155   145A      1.981857
     146A      1.985560   147A      1.991249   148A      2.008338
     149A      2.041628   150A      2.061582   151A      2.064669
     152A      2.110974   153A      2.115024   154A      2.132106
     155A      2.143293   156A      2.154927   157A      2.167985
     158A      2.171170   159A      2.176623   160A      2.257413
     161A      2.282184   162A      2.289745   163A      2.293372
     164A      2.299933   165A      2.315300   166A      2.328577
     167A      2.331882   168A      2.452393   169A      2.461084
     170A      2.468393   171A      2.487623   172A      2.504623
     173A      2.537440   174A      2.576256   175A      2.582615
     176A      2.621519   177A      2.734214   178A      2.750402
     179A      2.763649   180A      2.776878   181A      2.783429
     182A      2.798811   183A      2.808450   184A      2.842816
     185A      2.849385   186A      2.863505   187A      2.886818
     188A      2.959710   189A      2.970590   190A      2.983841
     191A      3.006639   192A      3.031390   193A      3.146409
     194A      3.193236   195A      3.290937   196A      3.957496

    Final Occupation by Irrep:
              A
    DOCC [    34 ]

  @RHF Final Energy:  -348.99192577404426

   => Energetics <=

    Nuclear Repulsion Energy =            414.0586581485805482
    One-Electron Energy =               -1290.8363499472102376
    Two-Electron Energy =                 527.7857660245854277
    Total Energy =                       -348.9919257740442617

Computation Completed

Properties will be evaluated at   0.000000,   0.000000,   0.000000 [a0]

Properties computed using the SCF density matrix

  Nuclear Dipole Moment: [e a0]
     X:    -5.2111      Y:    -6.3164      Z:    -7.0305

  Electronic Dipole Moment: [e a0]
     X:     5.1691      Y:     6.2832      Z:     7.1589

  Dipole Moment: [e a0]
     X:    -0.0419      Y:    -0.0332      Z:     0.1284     Total:     0.1391

  Dipole Moment: [D]
     X:    -0.1066      Y:    -0.0844      Z:     0.3263     Total:     0.3535

*** tstop() called on ds3 at Tue Apr 28 12:06:38 2020
Module time:
	user time   =      70.77 seconds =       1.18 minutes
	system time =      26.72 seconds =       0.45 minutes
	total time  =        119 seconds =       1.98 minutes
Total time:
	user time   =      70.77 seconds =       1.18 minutes
	system time =      26.72 seconds =       0.45 minutes
	total time  =        119 seconds =       1.98 minutes
                                     G D M A

                                 by Anthony Stone

                           version 2.2.06, 22 June 2011

               Distributed Multipoles from Gaussian wavefunctions

Starting at 12:6:38 on 28 Apr 2020

Using SCF density matrix from file ./SSI/SSI-101VAL-132PHE-2-dimer.test.906.fchk

                         Distributed Multipole Analysis

Standard DMA

Positions and radii in angstrom
Multipole moments in atomic units, ea_0^k for rank k

C          x = -0.281350  y = -1.302681  z = -3.229906 angstrom
           Maximum rank =  0   Radius =  0.650 angstrom
                   Q00  =  -0.241817

C          x = -1.513350  y = -1.679681  z = -2.397906 angstrom
           Maximum rank =  0   Radius =  0.650 angstrom
                   Q00  =  -0.232689

H          x = -0.466350  y = -1.483681  z = -4.288906 angstrom
           Maximum rank =  0   Radius =  0.325 angstrom
                   Q00  =   0.074437

H          x = -0.048350  y = -0.246681  z = -3.088906 angstrom
           Maximum rank =  0   Radius =  0.325 angstrom
                   Q00  =   0.079499

H          x =  0.587650  y = -1.876681  z = -2.910906 angstrom
           Maximum rank =  0   Radius =  0.325 angstrom
                   Q00  =   0.082641

H          x = -1.252350  y = -1.582681  z = -1.345906 angstrom
           Maximum rank =  0   Radius =  0.325 angstrom
                   Q00  =   0.087220

H          x = -1.818230  y = -2.718273  z = -2.593806 angstrom
           Maximum rank =  0   Radius =  0.325 angstrom
                   Q00  =   0.078889

H          x = -2.333090  y = -0.976941  z = -2.608106 angstrom
           Maximum rank =  0   Radius =  0.325 angstrom
                   Q00  =   0.072587

C          x = -1.377350  y = -0.718681  z =  2.247094 angstrom
           Maximum rank =  0   Radius =  0.650 angstrom
                   Q00  =  -0.202491

C          x =  0.231650  y =  1.290319  z = -0.534906 angstrom
           Maximum rank =  0   Radius =  0.650 angstrom
                   Q00  =   0.006966

C          x = -0.712350  y =  0.614319  z =  0.229094 angstrom
           Maximum rank =  0   Radius =  0.650 angstrom
                   Q00  =  -0.089944

C          x =  1.555650  y =  1.389319  z = -0.101906 angstrom
           Maximum rank =  0   Radius =  0.650 angstrom
                   Q00  =  -0.088044

C          x = -0.350350  y =  0.035319  z =  1.443094 angstrom
           Maximum rank =  0   Radius =  0.650 angstrom
                   Q00  =  -0.095690

C          x =  1.934650  y =  0.808319  z =  1.103094 angstrom
           Maximum rank =  0   Radius =  0.650 angstrom
                   Q00  =  -0.068492

C          x =  0.979650  y =  0.129319  z =  1.872094 angstrom
           Maximum rank =  0   Radius =  0.650 angstrom
                   Q00  =  -0.078281

H          x = -0.062350  y =  1.749319  z = -1.470906 angstrom
           Maximum rank =  0   Radius =  0.325 angstrom
                   Q00  =   0.066024

H          x = -1.735350  y =  0.554319  z = -0.115906 angstrom
           Maximum rank =  0   Radius =  0.325 angstrom
                   Q00  =   0.060404

H          x =  2.283650  y =  1.922319  z = -0.699906 angstrom
           Maximum rank =  0   Radius =  0.325 angstrom
                   Q00  =   0.062609

H          x =  2.957650  y =  0.889319  z =  1.447094 angstrom
           Maximum rank =  0   Radius =  0.325 angstrom
                   Q00  =   0.066893

H          x = -2.363350  y = -0.300681  z =  2.034094 angstrom
           Maximum rank =  0   Radius =  0.325 angstrom
                   Q00  =   0.096444

H          x = -1.188350  y = -0.565681  z =  3.311094 angstrom
           Maximum rank =  0   Radius =  0.325 angstrom
                   Q00  =   0.099585

H          x =  1.277650  y = -0.307681  z =  2.815094 angstrom
           Maximum rank =  0   Radius =  0.325 angstrom
                   Q00  =   0.057802

H          x = -1.397480  y = -1.794021  z =  2.016394 angstrom
           Maximum rank =  0   Radius =  0.325 angstrom
                   Q00  =   0.105446

Total multipoles referred to origin at
           x =   0.000000,  y =    0.000000,  z =    0.000000 angstrom
                   Q00  =  -0.000000

Finished at 12:6:38 on 28 Apr 2020

  DMA results are available in the Python driver through the
	  variable('DMA DISTRIBUTED MULTIPOLES')
  and
	  variable('DMA TOTAL MULTIPOLES')
  commands.

    Psi4 stopped on: Tuesday, 28 April 2020 12:06PM
    Psi4 wall time for execution: 0:01:59.16

*** Psi4 exiting successfully. Buy a developer a beer!
