                               Psi4 1.3.2 release

  ==> Input File <==

--------------------------------------------------------------------------
import numpy as np
set {scf_type pk
basis cc-pvdz
d_convergence 10
gdma_switch   0
gdma_limit    0
gdma_origin   [ 0.0,  0.0,  0.0 ]
}
molecule test {
    units Angstrom
    0 1
    --
    0 1
    C                0.070862618110183    -0.368740374007391    -1.580939907216440
    C                0.260862618110183     0.351259625992609    -2.928939907216439
    H               -0.245137381889817    -1.398740374007391    -1.752939907216440
    H                1.016862618110183    -0.379740374007391    -1.042939907216440
    H               -0.674137381889817     0.151259625992609    -0.982939907216440
    H                1.104862618110183    -0.113740374007391    -3.435939907216440
    H               -0.638127381889817     0.320531625992609    -3.562089907216440
    H                0.479722618110183     1.413038625992609    -2.742589907216439
    C                0.586862618110183     0.030259625992609     2.142060092783560
    C               -0.929137381889817    -0.018740374007391     2.369060092783561
    H                1.022862618110183    -0.967740374007391     2.191060092783560
    H                0.788862618110183     0.426259625992609     1.148060092783560
    H                1.067862618110183     0.685259625992609     2.869060092783561
    H               -1.360137381889816    -0.783740374007391     1.732060092783560
    H               -1.069117381889817    -0.241861374007391     3.437060092783561
    H               -1.368767381889817     0.960196625992609     2.127370092783560

}
e, wfn = energy('scf', return_wfn=True)
gdma(wfn)
dmavals = variable('DMA DISTRIBUTED MULTIPOLES')
charges = np.array(dmavals)
print(charges)
np.save('SSI-062LEU-079LEU-1-dimer.npy', np.array(charges))--------------------------------------------------------------------------

*** tstart() called on ds3
*** at Tue Apr 28 09:37:43 2020

   => Loading Basis Set <=

    Name: CC-PVDZ
    Role: ORBITAL
    Keyword: BASIS
    atoms 1-2, 9-10  entry C          line   138 file /theoryfs2/ds/metcalf/miniconda2/envs/tf2gpu/share/psi4/basis/cc-pvdz.gbs
    atoms 3-8, 11-16 entry H          line    22 file /theoryfs2/ds/metcalf/miniconda2/envs/tf2gpu/share/psi4/basis/cc-pvdz.gbs

         ---------------------------------------------------------
                                   SCF
               by Justin Turney, Rob Parrish, Andy Simmonett
                          and Daniel G. A. Smith
                              RHF Reference
                        1 Threads,    500 MiB Core
         ---------------------------------------------------------

  ==> Geometry <==

    Molecular point group: c1
    Full point group: C1

    Geometry (in Angstrom), charge = 0, multiplicity = 1:

       Center              X                  Y                   Z               Mass
    ------------   -----------------  -----------------  -----------------  -----------------
         C            0.070862618110    -0.368740374007    -1.580939907216    12.000000000000
         C            0.260862618110     0.351259625993    -2.928939907216    12.000000000000
         H           -0.245137381890    -1.398740374007    -1.752939907216     1.007825032230
         H            1.016862618110    -0.379740374007    -1.042939907216     1.007825032230
         H           -0.674137381890     0.151259625993    -0.982939907216     1.007825032230
         H            1.104862618110    -0.113740374007    -3.435939907216     1.007825032230
         H           -0.638127381890     0.320531625993    -3.562089907216     1.007825032230
         H            0.479722618110     1.413038625993    -2.742589907216     1.007825032230
         C            0.586862618110     0.030259625993     2.142060092784    12.000000000000
         C           -0.929137381890    -0.018740374007     2.369060092784    12.000000000000
         H            1.022862618110    -0.967740374007     2.191060092784     1.007825032230
         H            0.788862618110     0.426259625993     1.148060092784     1.007825032230
         H            1.067862618110     0.685259625993     2.869060092784     1.007825032230
         H           -1.360137381890    -0.783740374007     1.732060092784     1.007825032230
         H           -1.069117381890    -0.241861374007     3.437060092784     1.007825032230
         H           -1.368767381890     0.960196625993     2.127370092784     1.007825032230

  Running in c1 symmetry.

  Rotational constants: A =      0.48856  B =      0.04962  C =      0.04769 [cm^-1]
  Rotational constants: A =  14646.52641  B =   1487.43288  C =   1429.72506 [MHz]
  Nuclear repulsion =  122.540226310277376

  Charge       = 0
  Multiplicity = 1
  Electrons    = 36
  Nalpha       = 18
  Nbeta        = 18

  ==> Algorithm <==

  SCF Algorithm Type is PK.
  DIIS enabled.
  MOM disabled.
  Fractional occupation disabled.
  Guess Type is SAD.
  Energy threshold   = 1.00e-06
  Density threshold  = 1.00e-10
  Integral threshold = 0.00e+00

  ==> Primary Basis <==

  Basis Set: CC-PVDZ
    Blend: CC-PVDZ
    Number of shells: 60
    Number of basis function: 116
    Number of Cartesian functions: 120
    Spherical Harmonics?: true
    Max angular momentum: 2

  ==> Pre-Iterations <==

   -------------------------------------------------------
    Irrep   Nso     Nmo     Nalpha   Nbeta   Ndocc  Nsocc
   -------------------------------------------------------
     A        116     116       0       0       0       0
   -------------------------------------------------------
    Total     116     116      18      18      18       0
   -------------------------------------------------------

  ==> Integral Setup <==

  Using integral reordering PK algorithm.
  Sizing the integral batches needed.
  Building batch lookup table.
   Calculation information:
      Number of atoms:                  16
      Number of AO shells:              60
      Number of primitives:            148
      Number of atomic orbitals:       120
      Number of basis functions:       116

      Integral cutoff                 1.00e-12
      Number of threads:                 1

	Batch   1 pq = [       0,    6786] index = [             0,23028291] size =     23028291
  Task number: 3
  Buffer size: 11059200
  Buffer per thread: 2
  We computed 1445004 shell quartets total.
  Whereas there are 1675365 unique shell quartets.

  ==> DiskJK: Disk-Based J/K Matrices <==

    J tasked:                  Yes
    K tasked:                  Yes
    wK tasked:                  No
    Memory [MiB]:              375
    Schwarz Cutoff:          1E-12

    OpenMP threads:              1

  Minimum eigenvalue in the overlap matrix is 7.5057707533E-03.
  Using Symmetric Orthogonalization.

  SCF Guess: Superposition of Atomic Densities via on-the-fly atomic UHF.

  ==> Iterations <==

                        Total Energy        Delta E     RMS |[F,P]|

   @RHF iter SAD:  -157.33427277088899   -1.57334e+02   0.00000e+00
   @RHF iter   1:  -158.30731549898172   -9.73043e-01   4.18976e-03 DIIS
   @RHF iter   2:  -158.43978326016455   -1.32468e-01   1.77339e-03 DIIS
   @RHF iter   3:  -158.46267630254061   -2.28930e-02   3.48108e-04 DIIS
   @RHF iter   4:  -158.46449347962877   -1.81718e-03   3.86398e-05 DIIS
   @RHF iter   5:  -158.46451722933597   -2.37497e-05   6.31559e-06 DIIS
   @RHF iter   6:  -158.46451785223439   -6.22898e-07   7.71613e-07 DIIS
   @RHF iter   7:  -158.46451786027362   -8.03922e-09   2.13494e-07 DIIS
   @RHF iter   8:  -158.46451786069403   -4.20414e-10   4.72351e-08 DIIS
   @RHF iter   9:  -158.46451786072862   -3.45892e-11   1.01221e-08 DIIS
   @RHF iter  10:  -158.46451786073047   -1.84741e-12   2.41640e-09 DIIS
   @RHF iter  11:  -158.46451786073087   -3.97904e-13   4.51133e-10 DIIS
   @RHF iter  12:  -158.46451786073027    5.96856e-13   1.42545e-10 DIIS
   @RHF iter  13:  -158.46451786073078   -5.11591e-13   3.18437e-11 DIIS
  Energy and wave function converged.

  ==> Post-Iterations <==

    Orbital Energies [Eh]
    ---------------------

    Doubly Occupied:

       1A    -11.220318     2A    -11.218799     3A    -11.218078
       4A    -11.214414     5A     -1.018179     6A     -1.015301
       7A     -0.839078     8A     -0.834264     9A     -0.604279
      10A     -0.600390    11A     -0.597497    12A     -0.591124
      13A     -0.501258    14A     -0.496596    15A     -0.490133
      16A     -0.488947    17A     -0.485598    18A     -0.475965

    Virtual:

      19A      0.173110    20A      0.195756    21A      0.225497
      22A      0.236071    23A      0.246901    24A      0.262233
      25A      0.263380    26A      0.272271    27A      0.286663
      28A      0.288906    29A      0.297924    30A      0.334966
      31A      0.391975    32A      0.394149    33A      0.570828
      34A      0.594884    35A      0.599233    36A      0.607110
      37A      0.608351    38A      0.649732    39A      0.670192
      40A      0.687532    41A      0.708679    42A      0.772667
      43A      0.841312    44A      0.847239    45A      0.888324
      46A      0.890542    47A      0.893341    48A      0.897517
      49A      0.901479    50A      0.904119    51A      0.915479
      52A      0.931249    53A      0.937709    54A      0.955219
      55A      0.970000    56A      1.000443    57A      1.117568
      58A      1.122704    59A      1.130641    60A      1.161550
      61A      1.229919    62A      1.257209    63A      1.461539
      64A      1.478092    65A      1.480428    66A      1.496990
      67A      1.566865    68A      1.581746    69A      1.673716
      70A      1.679802    71A      1.688076    72A      1.704440
      73A      1.852943    74A      1.858318    75A      1.871685
      76A      1.879828    77A      1.891568    78A      1.915550
      79A      1.935725    80A      1.937974    81A      1.939561
      82A      1.944423    83A      1.949970    84A      1.952514
      85A      1.957718    86A      1.980337    87A      1.982768
      88A      2.016880    89A      2.094249    90A      2.110293
      91A      2.122565    92A      2.147975    93A      2.273020
      94A      2.296498    95A      2.312204    96A      2.321028
      97A      2.447090    98A      2.452423    99A      2.459620
     100A      2.471504   101A      2.554757   102A      2.571055
     103A      2.579482   104A      2.590700   105A      2.761816
     106A      2.772023   107A      2.788460   108A      2.795364
     109A      2.828946   110A      2.836567   111A      2.857709
     112A      2.861827   113A      2.938439   114A      2.951821
     115A      2.957535   116A      2.977474

    Final Occupation by Irrep:
              A
    DOCC [    18 ]

  @RHF Final Energy:  -158.46451786073078

   => Energetics <=

    Nuclear Repulsion Energy =            122.5402263102773759
    One-Electron Energy =                -454.1890527112112181
    Two-Electron Energy =                 173.1843085402030624
    Total Energy =                       -158.4645178607307798

Computation Completed

Properties will be evaluated at   0.000000,   0.000000,   0.000000 [a0]

Properties computed using the SCF density matrix

  Nuclear Dipole Moment: [e a0]
     X:     0.1178      Y:     0.0665      Z:    -0.0138

  Electronic Dipole Moment: [e a0]
     X:    -0.1052      Y:    -0.0708      Z:    -0.0042

  Dipole Moment: [e a0]
     X:     0.0125      Y:    -0.0042      Z:    -0.0180     Total:     0.0223

  Dipole Moment: [D]
     X:     0.0318      Y:    -0.0107      Z:    -0.0458     Total:     0.0568

*** tstop() called on ds3 at Tue Apr 28 09:37:55 2020
Module time:
	user time   =       8.33 seconds =       0.14 minutes
	system time =       3.31 seconds =       0.06 minutes
	total time  =         12 seconds =       0.20 minutes
Total time:
	user time   =       8.33 seconds =       0.14 minutes
	system time =       3.31 seconds =       0.06 minutes
	total time  =         12 seconds =       0.20 minutes
                                     G D M A

                                 by Anthony Stone

                           version 2.2.06, 22 June 2011

               Distributed Multipoles from Gaussian wavefunctions

Starting at 9:37:55 on 28 Apr 2020

Using SCF density matrix from file ./SSI/SSI-062LEU-079LEU-1-dimer.test.10947.fchk

                         Distributed Multipole Analysis

Standard DMA

Positions and radii in angstrom
Multipole moments in atomic units, ea_0^k for rank k

C          x =  0.070863  y = -0.368740  z = -1.580940 angstrom
           Maximum rank =  0   Radius =  0.650 angstrom
                   Q00  =  -0.241992

C          x =  0.260863  y =  0.351260  z = -2.928940 angstrom
           Maximum rank =  0   Radius =  0.650 angstrom
                   Q00  =  -0.237042

H          x = -0.245137  y = -1.398740  z = -1.752940 angstrom
           Maximum rank =  0   Radius =  0.325 angstrom
                   Q00  =   0.080284

H          x =  1.016863  y = -0.379740  z = -1.042940 angstrom
           Maximum rank =  0   Radius =  0.325 angstrom
                   Q00  =   0.081367

H          x = -0.674137  y =  0.151260  z = -0.982940 angstrom
           Maximum rank =  0   Radius =  0.325 angstrom
                   Q00  =   0.079708

H          x =  1.104863  y = -0.113740  z = -3.435940 angstrom
           Maximum rank =  0   Radius =  0.325 angstrom
                   Q00  =   0.080197

H          x = -0.638127  y =  0.320532  z = -3.562090 angstrom
           Maximum rank =  0   Radius =  0.325 angstrom
                   Q00  =   0.081534

H          x =  0.479723  y =  1.413039  z = -2.742590 angstrom
           Maximum rank =  0   Radius =  0.325 angstrom
                   Q00  =   0.076481

C          x =  0.586863  y =  0.030260  z =  2.142060 angstrom
           Maximum rank =  0   Radius =  0.650 angstrom
                   Q00  =  -0.251304

C          x = -0.929137  y = -0.018740  z =  2.369060 angstrom
           Maximum rank =  0   Radius =  0.650 angstrom
                   Q00  =  -0.223460

H          x =  1.022863  y = -0.967740  z =  2.191060 angstrom
           Maximum rank =  0   Radius =  0.325 angstrom
                   Q00  =   0.078926

H          x =  0.788863  y =  0.426260  z =  1.148060 angstrom
           Maximum rank =  0   Radius =  0.325 angstrom
                   Q00  =   0.079328

H          x =  1.067863  y =  0.685260  z =  2.869060 angstrom
           Maximum rank =  0   Radius =  0.325 angstrom
                   Q00  =   0.077892

H          x = -1.360137  y = -0.783740  z =  1.732060 angstrom
           Maximum rank =  0   Radius =  0.325 angstrom
                   Q00  =   0.084096

H          x = -1.069117  y = -0.241861  z =  3.437060 angstrom
           Maximum rank =  0   Radius =  0.325 angstrom
                   Q00  =   0.075894

H          x = -1.368767  y =  0.960197  z =  2.127370 angstrom
           Maximum rank =  0   Radius =  0.325 angstrom
                   Q00  =   0.078092

Total multipoles referred to origin at
           x =   0.000000,  y =    0.000000,  z =    0.000000 angstrom
                   Q00  =  -0.000000

Finished at 9:37:55 on 28 Apr 2020

  DMA results are available in the Python driver through the
	  variable('DMA DISTRIBUTED MULTIPOLES')
  and
	  variable('DMA TOTAL MULTIPOLES')
  commands.

    Psi4 stopped on: Tuesday, 28 April 2020 09:37AM
    Psi4 wall time for execution: 0:00:12.14

*** Psi4 exiting successfully. Buy a developer a beer!
