                               Psi4 1.3.2 release

  ==> Input File <==

--------------------------------------------------------------------------
import numpy as np
set {scf_type pk
basis cc-pvdz
d_convergence 10
gdma_switch   0
gdma_limit    0
gdma_origin   [ 0.0,  0.0,  0.0 ]
}
molecule test {
    units Angstrom
    0 1
    --
    0 1
    C               -0.933719048947026     0.279627887093618     2.795248296478024
    C               -0.425719048947026    -0.872372112906382     0.598248296478024
    C               -0.016719048947026    -0.030372112906382     1.634248296478024
    C                0.432280951052974    -1.166372112906382    -0.469751703521976
    C                1.271280951052974     0.495627887093618     1.596248296478024
    C                1.717280951052974    -0.625372112906382    -0.496751703521976
    C                2.136280951052973     0.201627887093618     0.543248296478024
    O                2.574280951052974    -0.913372112906382    -1.523751703521976
    H               -1.412719048947026    -1.310372112906382     0.618248296478024
    H                0.110280951052974    -1.811372112906382    -1.272751703521976
    H               -0.320719048947026     0.285627887093618     3.691248296478024
    H               -1.659719048947026    -0.525372112906382     2.904248296478024
    H                1.618280951052974     1.131627887093618     2.401248296478025
    H                3.134280951052973     0.618627887093619     0.537248296478024
    H                3.394280951052973    -0.411372112906381    -1.459751703521976
    H               -1.462275048947026     1.243257887093619     2.749948296478024
    C               -3.108719048947026     0.487627887093618    -1.725751703521976
    C               -3.204719048947027     1.909627887093618    -2.285751703521975
    H               -4.103719048947027     0.062627887093618    -1.603751703521976
    H               -2.540719048947027    -0.140372112906382    -2.411751703521976
    H               -2.595719048947026     0.505627887093618    -0.763751703521976
    H               -2.194719048947027     2.250627887093619    -2.507751703521976
    H               -3.647492048947026     2.592417887093619    -1.545651703521976
    H               -3.784058048947027     1.911807887093618    -3.220824703521976

}
e, wfn = energy('scf', return_wfn=True)
gdma(wfn)
dmavals = variable('DMA DISTRIBUTED MULTIPOLES')
charges = np.array(dmavals)
print(charges)
np.save('SSI-123TYR-154VAL-1-dimer.npy', np.array(charges))--------------------------------------------------------------------------

*** tstart() called on ds3
*** at Mon Apr 27 22:32:37 2020

   => Loading Basis Set <=

    Name: CC-PVDZ
    Role: ORBITAL
    Keyword: BASIS
    atoms 1-7, 17-18  entry C          line   138 file /theoryfs2/ds/metcalf/miniconda2/envs/tf2gpu/share/psi4/basis/cc-pvdz.gbs
    atoms 8           entry O          line   198 file /theoryfs2/ds/metcalf/miniconda2/envs/tf2gpu/share/psi4/basis/cc-pvdz.gbs
    atoms 9-16, 19-24 entry H          line    22 file /theoryfs2/ds/metcalf/miniconda2/envs/tf2gpu/share/psi4/basis/cc-pvdz.gbs

         ---------------------------------------------------------
                                   SCF
               by Justin Turney, Rob Parrish, Andy Simmonett
                          and Daniel G. A. Smith
                              RHF Reference
                        1 Threads,    500 MiB Core
         ---------------------------------------------------------

  ==> Geometry <==

    Molecular point group: c1
    Full point group: C1

    Geometry (in Angstrom), charge = 0, multiplicity = 1:

       Center              X                  Y                   Z               Mass
    ------------   -----------------  -----------------  -----------------  -----------------
         C           -0.933719048947     0.279627887094     2.795248296478    12.000000000000
         C           -0.425719048947    -0.872372112906     0.598248296478    12.000000000000
         C           -0.016719048947    -0.030372112906     1.634248296478    12.000000000000
         C            0.432280951053    -1.166372112906    -0.469751703522    12.000000000000
         C            1.271280951053     0.495627887094     1.596248296478    12.000000000000
         C            1.717280951053    -0.625372112906    -0.496751703522    12.000000000000
         C            2.136280951053     0.201627887094     0.543248296478    12.000000000000
         O            2.574280951053    -0.913372112906    -1.523751703522    15.994914619570
         H           -1.412719048947    -1.310372112906     0.618248296478     1.007825032230
         H            0.110280951053    -1.811372112906    -1.272751703522     1.007825032230
         H           -0.320719048947     0.285627887094     3.691248296478     1.007825032230
         H           -1.659719048947    -0.525372112906     2.904248296478     1.007825032230
         H            1.618280951053     1.131627887094     2.401248296478     1.007825032230
         H            3.134280951053     0.618627887094     0.537248296478     1.007825032230
         H            3.394280951053    -0.411372112906    -1.459751703522     1.007825032230
         H           -1.462275048947     1.243257887094     2.749948296478     1.007825032230
         C           -3.108719048947     0.487627887094    -1.725751703522    12.000000000000
         C           -3.204719048947     1.909627887094    -2.285751703522    12.000000000000
         H           -4.103719048947     0.062627887094    -1.603751703522     1.007825032230
         H           -2.540719048947    -0.140372112906    -2.411751703522     1.007825032230
         H           -2.595719048947     0.505627887094    -0.763751703522     1.007825032230
         H           -2.194719048947     2.250627887094    -2.507751703522     1.007825032230
         H           -3.647492048947     2.592417887094    -1.545651703522     1.007825032230
         H           -3.784058048947     1.911807887094    -3.220824703522     1.007825032230

  Running in c1 symmetry.

  Rotational constants: A =      0.04201  B =      0.02322  C =      0.01710 [cm^-1]
  Rotational constants: A =   1259.54414  B =    695.98443  C =    512.52426 [MHz]
  Nuclear repulsion =  489.064004272964780

  Charge       = 0
  Multiplicity = 1
  Electrons    = 76
  Nalpha       = 38
  Nbeta        = 38

  ==> Algorithm <==

  SCF Algorithm Type is PK.
  DIIS enabled.
  MOM disabled.
  Fractional occupation disabled.
  Guess Type is SAD.
  Energy threshold   = 1.00e-06
  Density threshold  = 1.00e-10
  Integral threshold = 0.00e+00

  ==> Primary Basis <==

  Basis Set: CC-PVDZ
    Blend: CC-PVDZ
    Number of shells: 102
    Number of basis function: 210
    Number of Cartesian functions: 220
    Spherical Harmonics?: true
    Max angular momentum: 2

  ==> Pre-Iterations <==

   -------------------------------------------------------
    Irrep   Nso     Nmo     Nalpha   Nbeta   Ndocc  Nsocc
   -------------------------------------------------------
     A        210     210       0       0       0       0
   -------------------------------------------------------
    Total     210     210      38      38      38       0
   -------------------------------------------------------

  ==> Integral Setup <==

  Using integral reordering PK algorithm.
  Sizing the integral batches needed.
  Building batch lookup table.
   Calculation information:
      Number of atoms:                  24
      Number of AO shells:             102
      Number of primitives:            290
      Number of atomic orbitals:       220
      Number of basis functions:       210

      Integral cutoff                 1.00e-12
      Number of threads:                 1

	Batch   1 pq = [       0,    9405] index = [             0,44231715] size =     44231715
	Batch   2 pq = [    9405,   13301] index = [      44231715,88464951] size =     44233236
	Batch   3 pq = [   13301,   16290] index = [      88464951,132690195] size =     44225244
	Batch   4 pq = [   16290,   18810] index = [     132690195,176917455] size =     44227260
	Batch   5 pq = [   18810,   21030] index = [     176917455,221140965] size =     44223510
	Batch   6 pq = [   21030,   22155] index = [     221140965,245433090] size =     24292125
  Task number: 23
  Buffer size: 11059200
  Buffer per thread: 2
  We computed 11368500 shell quartets total.
  Whereas there are 13799631 unique shell quartets.

  ==> DiskJK: Disk-Based J/K Matrices <==

    J tasked:                  Yes
    K tasked:                  Yes
    wK tasked:                  No
    Memory [MiB]:              375
    Schwarz Cutoff:          1E-12

    OpenMP threads:              1

  Minimum eigenvalue in the overlap matrix is 3.2745230987E-04.
  Using Symmetric Orthogonalization.

  SCF Guess: Superposition of Atomic Densities via on-the-fly atomic UHF.

  ==> Iterations <==

                        Total Energy        Delta E     RMS |[F,P]|

   @RHF iter SAD:  -422.63092280942084   -4.22631e+02   0.00000e+00
   @RHF iter   1:  -423.60212053328974   -9.71198e-01   2.97636e-03 DIIS
   @RHF iter   2:  -423.81778124437812   -2.15661e-01   1.26016e-03 DIIS
   @RHF iter   3:  -423.85279163884803   -3.50104e-02   2.84101e-04 DIIS
   @RHF iter   4:  -423.85565954169789   -2.86790e-03   1.17586e-04 DIIS
   @RHF iter   5:  -423.85601519747200   -3.55656e-04   2.09307e-05 DIIS
   @RHF iter   6:  -423.85603306099483   -1.78635e-05   6.49189e-06 DIIS
   @RHF iter   7:  -423.85603479212068   -1.73113e-06   2.15903e-06 DIIS
   @RHF iter   8:  -423.85603504865446   -2.56534e-07   8.34345e-07 DIIS
   @RHF iter   9:  -423.85603509656693   -4.79125e-08   3.62864e-07 DIIS
   @RHF iter  10:  -423.85603510704431   -1.04774e-08   1.59549e-07 DIIS
   @RHF iter  11:  -423.85603511043240   -3.38810e-09   6.51769e-08 DIIS
   @RHF iter  12:  -423.85603511092688   -4.94481e-10   2.93696e-08 DIIS
   @RHF iter  13:  -423.85603511100112   -7.42375e-11   8.08912e-09 DIIS
   @RHF iter  14:  -423.85603511100356   -2.44427e-12   2.20592e-09 DIIS
   @RHF iter  15:  -423.85603511100072    2.84217e-12   6.69958e-10 DIIS
   @RHF iter  16:  -423.85603511100311   -2.38742e-12   1.96165e-10 DIIS
   @RHF iter  17:  -423.85603511100391   -7.95808e-13   6.83593e-11 DIIS
  Energy and wave function converged.

  ==> Post-Iterations <==

    Orbital Energies [Eh]
    ---------------------

    Doubly Occupied:

       1A    -20.583249     2A    -11.300722     3A    -11.239639
       4A    -11.239408     5A    -11.234550     6A    -11.234158
       7A    -11.231979     8A    -11.228239     9A    -11.215115
      10A    -11.211787    11A     -1.397339    12A     -1.150023
      13A     -1.037275    14A     -1.016679    15A     -1.013035
      16A     -0.927087    17A     -0.844101    18A     -0.832174
      19A     -0.802207    20A     -0.731420    21A     -0.667803
      22A     -0.641670    23A     -0.607910    24A     -0.594709
      25A     -0.592922    26A     -0.585735    27A     -0.585230
      28A     -0.568227    29A     -0.567103    30A     -0.527066
      31A     -0.498935    32A     -0.494399    33A     -0.486045
      34A     -0.482516    35A     -0.480543    36A     -0.465935
      37A     -0.337360    38A     -0.303176

    Virtual:

      39A      0.127610    40A      0.154001    41A      0.177497
      42A      0.180000    43A      0.197405    44A      0.206251
      45A      0.220599    46A      0.246452    47A      0.253625
      48A      0.257436    49A      0.268445    50A      0.275785
      51A      0.284326    52A      0.290740    53A      0.298824
      54A      0.322394    55A      0.367981    56A      0.376889
      57A      0.403595    58A      0.424629    59A      0.453923
      60A      0.483077    61A      0.496319    62A      0.507446
      63A      0.597109    64A      0.601601    65A      0.611801
      66A      0.615887    67A      0.635305    68A      0.644053
      69A      0.657131    70A      0.671150    71A      0.683743
      72A      0.693740    73A      0.700026    74A      0.708524
      75A      0.734015    76A      0.739203    77A      0.760712
      78A      0.767475    79A      0.781317    80A      0.785804
      81A      0.808501    82A      0.842033    83A      0.844876
      84A      0.849389    85A      0.872516    86A      0.879411
      87A      0.887940    88A      0.892649    89A      0.895942
      90A      0.898825    91A      0.899960    92A      0.902859
      93A      0.921033    94A      0.924815    95A      0.934099
      96A      0.943063    97A      0.948376    98A      0.974826
      99A      1.000110   100A      1.017204   101A      1.024346
     102A      1.065704   103A      1.118066   104A      1.129825
     105A      1.137690   106A      1.142559   107A      1.145279
     108A      1.166791   109A      1.197596   110A      1.239135
     111A      1.246114   112A      1.255402   113A      1.281765
     114A      1.285185   115A      1.298252   116A      1.306897
     117A      1.309811   118A      1.351793   119A      1.360165
     120A      1.381934   121A      1.473334   122A      1.486275
     123A      1.489385   124A      1.503134   125A      1.520087
     126A      1.547530   127A      1.577557   128A      1.613635
     129A      1.620647   130A      1.681067   131A      1.687802
     132A      1.698723   133A      1.708568   134A      1.733205
     135A      1.748960   136A      1.781127   137A      1.800491
     138A      1.801984   139A      1.860339   140A      1.867611
     141A      1.882862   142A      1.883996   143A      1.895440
     144A      1.897054   145A      1.912501   146A      1.914458
     147A      1.930216   148A      1.936912   149A      1.944567
     150A      1.950132   151A      1.956396   152A      1.960816
     153A      1.970411   154A      1.973487   155A      1.984506
     156A      1.993145   157A      2.033345   158A      2.045336
     159A      2.059194   160A      2.062685   161A      2.068137
     162A      2.103892   163A      2.131274   164A      2.141369
     165A      2.142808   166A      2.164951   167A      2.197510
     168A      2.227542   169A      2.256739   170A      2.271871
     171A      2.299153   172A      2.302968   173A      2.315005
     174A      2.329248   175A      2.364544   176A      2.421575
     177A      2.452865   178A      2.455211   179A      2.469131
     180A      2.477105   181A      2.495081   182A      2.529024
     183A      2.538744   184A      2.566525   185A      2.583966
     186A      2.595350   187A      2.638207   188A      2.745483
     189A      2.765758   190A      2.771087   191A      2.788652
     192A      2.800810   193A      2.807402   194A      2.846733
     195A      2.854101   196A      2.863215   197A      2.898544
     198A      2.950460   199A      2.964763   200A      2.970654
     201A      2.999274   202A      3.081456   203A      3.110179
     204A      3.249133   205A      3.275954   206A      3.344160
     207A      3.567674   208A      3.661394   209A      3.966222
     210A      4.182478

    Final Occupation by Irrep:
              A
    DOCC [    38 ]

  @RHF Final Energy:  -423.85603511100391

   => Energetics <=

    Nuclear Repulsion Energy =            489.0640042729647803
    One-Electron Energy =               -1543.9251404402907610
    Two-Electron Energy =                 631.0051010563221325
    Total Energy =                       -423.8560351110039619

Computation Completed

Properties will be evaluated at   0.000000,   0.000000,   0.000000 [a0]

Properties computed using the SCF density matrix

  Nuclear Dipole Moment: [e a0]
     X:   -14.4853      Y:     5.9986      Z:    -1.7733

  Electronic Dipole Moment: [e a0]
     X:    14.7855      Y:    -5.6286      Z:     2.1506

  Dipole Moment: [e a0]
     X:     0.3001      Y:     0.3700      Z:     0.3772     Total:     0.6077

  Dipole Moment: [D]
     X:     0.7629      Y:     0.9404      Z:     0.9588     Total:     1.5446

*** tstop() called on ds3 at Mon Apr 27 22:34:53 2020
Module time:
	user time   =      93.44 seconds =       1.56 minutes
	system time =      48.07 seconds =       0.80 minutes
	total time  =        136 seconds =       2.27 minutes
Total time:
	user time   =      93.44 seconds =       1.56 minutes
	system time =      48.07 seconds =       0.80 minutes
	total time  =        136 seconds =       2.27 minutes
                                     G D M A

                                 by Anthony Stone

                           version 2.2.06, 22 June 2011

               Distributed Multipoles from Gaussian wavefunctions

Starting at 22:34:53 on 27 Apr 2020

Using SCF density matrix from file ./SSI/SSI-123TYR-154VAL-1-dimer.test.31221.fchk

                         Distributed Multipole Analysis

Standard DMA

Positions and radii in angstrom
Multipole moments in atomic units, ea_0^k for rank k

C          x = -0.933719  y =  0.279628  z =  2.795248 angstrom
           Maximum rank =  0   Radius =  0.650 angstrom
                   Q00  =  -0.198883

C          x = -0.425719  y = -0.872372  z =  0.598248 angstrom
           Maximum rank =  0   Radius =  0.650 angstrom
                   Q00  =  -0.017695

C          x = -0.016719  y = -0.030372  z =  1.634248 angstrom
           Maximum rank =  0   Radius =  0.650 angstrom
                   Q00  =  -0.136339

C          x =  0.432281  y = -1.166372  z = -0.469752 angstrom
           Maximum rank =  0   Radius =  0.650 angstrom
                   Q00  =  -0.123609

C          x =  1.271281  y =  0.495628  z =  1.596248 angstrom
           Maximum rank =  0   Radius =  0.650 angstrom
                   Q00  =   0.028746

C          x =  1.717281  y = -0.625372  z = -0.496752 angstrom
           Maximum rank =  0   Radius =  0.650 angstrom
                   Q00  =   0.313982

C          x =  2.136281  y =  0.201628  z =  0.543248 angstrom
           Maximum rank =  0   Radius =  0.650 angstrom
                   Q00  =  -0.178048

O          x =  2.574281  y = -0.913372  z = -1.523752 angstrom
           Maximum rank =  0   Radius =  0.650 angstrom
                   Q00  =  -0.677998

H          x = -1.412719  y = -1.310372  z =  0.618248 angstrom
           Maximum rank =  0   Radius =  0.325 angstrom
                   Q00  =   0.068319

H          x =  0.110281  y = -1.811372  z = -1.272752 angstrom
           Maximum rank =  0   Radius =  0.325 angstrom
                   Q00  =   0.082367

H          x = -0.320719  y =  0.285628  z =  3.691248 angstrom
           Maximum rank =  0   Radius =  0.325 angstrom
                   Q00  =   0.094475

H          x = -1.659719  y = -0.525372  z =  2.904248 angstrom
           Maximum rank =  0   Radius =  0.325 angstrom
                   Q00  =   0.097590

H          x =  1.618281  y =  1.131628  z =  2.401248 angstrom
           Maximum rank =  0   Radius =  0.325 angstrom
                   Q00  =   0.067932

H          x =  3.134281  y =  0.618628  z =  0.537248 angstrom
           Maximum rank =  0   Radius =  0.325 angstrom
                   Q00  =   0.070994

H          x =  3.394281  y = -0.411372  z = -1.459752 angstrom
           Maximum rank =  0   Radius =  0.325 angstrom
                   Q00  =   0.407217

H          x = -1.462275  y =  1.243258  z =  2.749948 angstrom
           Maximum rank =  0   Radius =  0.325 angstrom
                   Q00  =   0.100397

C          x = -3.108719  y =  0.487628  z = -1.725752 angstrom
           Maximum rank =  0   Radius =  0.650 angstrom
                   Q00  =  -0.239444

C          x = -3.204719  y =  1.909628  z = -2.285752 angstrom
           Maximum rank =  0   Radius =  0.650 angstrom
                   Q00  =  -0.234089

H          x = -4.103719  y =  0.062628  z = -1.603752 angstrom
           Maximum rank =  0   Radius =  0.325 angstrom
                   Q00  =   0.073699

H          x = -2.540719  y = -0.140372  z = -2.411752 angstrom
           Maximum rank =  0   Radius =  0.325 angstrom
                   Q00  =   0.079682

H          x = -2.595719  y =  0.505628  z = -0.763752 angstrom
           Maximum rank =  0   Radius =  0.325 angstrom
                   Q00  =   0.085791

H          x = -2.194719  y =  2.250628  z = -2.507752 angstrom
           Maximum rank =  0   Radius =  0.325 angstrom
                   Q00  =   0.080149

H          x = -3.647492  y =  2.592418  z = -1.545652 angstrom
           Maximum rank =  0   Radius =  0.325 angstrom
                   Q00  =   0.077907

H          x = -3.784058  y =  1.911808  z = -3.220825 angstrom
           Maximum rank =  0   Radius =  0.325 angstrom
                   Q00  =   0.076858

Total multipoles referred to origin at
           x =   0.000000,  y =    0.000000,  z =    0.000000 angstrom
                   Q00  =  -0.000000

Finished at 22:34:54 on 27 Apr 2020

  DMA results are available in the Python driver through the
	  variable('DMA DISTRIBUTED MULTIPOLES')
  and
	  variable('DMA TOTAL MULTIPOLES')
  commands.

    Psi4 stopped on: Monday, 27 April 2020 10:34PM
    Psi4 wall time for execution: 0:02:16.61

*** Psi4 exiting successfully. Buy a developer a beer!
