                               Psi4 1.3.2 release

  ==> Input File <==

--------------------------------------------------------------------------
import numpy as np
set {scf_type pk
basis cc-pvdz
d_convergence 10
gdma_switch   0
gdma_limit    0
gdma_origin   [ 0.0,  0.0,  0.0 ]
}
molecule test {
    units Angstrom
    0 1
    --
    0 1
    C                2.324601763696504     0.492209699001284    -2.771088794793800
    C                1.208601763696504     0.869209699001284    -1.849088794793800
    O                1.378601763696504     0.675209699001284    -0.613088794793800
    O                0.162601763696504     1.374209699001284    -2.292088794793800
    H                2.723601763696504    -0.485790300998716    -2.493088794793800
    H                3.135601763696504     1.214209699001284    -2.657088794793800
    H                2.017041763696504     0.478359699001284    -3.827128794793801
    C               -1.348398236303496    -2.441790300998716     0.687911205206200
    C               -0.920398236303496    -0.250790300998716     1.721911205206200
    N               -0.071398236303496     0.636209699001284     2.218911205206200
    N               -0.469398236303496    -1.390790300998716     1.234911205206200
    N               -2.213398236303496     0.012209699001284     1.624911205206200
    H                0.918601763696504     0.471209699001284     2.136911205206200
    H               -0.402398236303496     1.529209699001284     2.542911205206199
    H                0.527601763696504    -1.546790300998716     1.236911205206200
    H               -2.846398236303496    -0.678790300998716     1.268911205206200
    H               -2.573398236303496     0.887209699001284     1.971911205206200
    H               -2.394398236303496    -2.145790300998716     0.631911205206200
    H               -1.303398236303496    -3.300790300998715     1.361911205206200
    H               -1.049808236303496    -2.783350300998716    -0.314178794793800

}
e, wfn = energy('scf', return_wfn=True)
gdma(wfn)
dmavals = variable('DMA DISTRIBUTED MULTIPOLES')
charges = np.array(dmavals)
print(charges)
np.save('SSI-034ASP-061ARG-1-dimer.npy', np.array(charges))--------------------------------------------------------------------------

*** tstart() called on ds3
*** at Tue Apr 28 00:58:54 2020

   => Loading Basis Set <=

    Name: CC-PVDZ
    Role: ORBITAL
    Keyword: BASIS
    atoms 1-2, 8-9   entry C          line   138 file /theoryfs2/ds/metcalf/miniconda2/envs/tf2gpu/share/psi4/basis/cc-pvdz.gbs
    atoms 3-4        entry O          line   198 file /theoryfs2/ds/metcalf/miniconda2/envs/tf2gpu/share/psi4/basis/cc-pvdz.gbs
    atoms 5-7, 13-20 entry H          line    22 file /theoryfs2/ds/metcalf/miniconda2/envs/tf2gpu/share/psi4/basis/cc-pvdz.gbs
    atoms 10-12      entry N          line   168 file /theoryfs2/ds/metcalf/miniconda2/envs/tf2gpu/share/psi4/basis/cc-pvdz.gbs

         ---------------------------------------------------------
                                   SCF
               by Justin Turney, Rob Parrish, Andy Simmonett
                          and Daniel G. A. Smith
                              RHF Reference
                        1 Threads,    500 MiB Core
         ---------------------------------------------------------

  ==> Geometry <==

    Molecular point group: c1
    Full point group: C1

    Geometry (in Angstrom), charge = 0, multiplicity = 1:

       Center              X                  Y                   Z               Mass
    ------------   -----------------  -----------------  -----------------  -----------------
         C            2.324601763697     0.492209699001    -2.771088794794    12.000000000000
         C            1.208601763697     0.869209699001    -1.849088794794    12.000000000000
         O            1.378601763697     0.675209699001    -0.613088794794    15.994914619570
         O            0.162601763697     1.374209699001    -2.292088794794    15.994914619570
         H            2.723601763697    -0.485790300999    -2.493088794794     1.007825032230
         H            3.135601763697     1.214209699001    -2.657088794794     1.007825032230
         H            2.017041763697     0.478359699001    -3.827128794794     1.007825032230
         C           -1.348398236303    -2.441790300999     0.687911205206    12.000000000000
         C           -0.920398236303    -0.250790300999     1.721911205206    12.000000000000
         N           -0.071398236303     0.636209699001     2.218911205206    14.003074004430
         N           -0.469398236303    -1.390790300999     1.234911205206    14.003074004430
         N           -2.213398236303     0.012209699001     1.624911205206    14.003074004430
         H            0.918601763697     0.471209699001     2.136911205206     1.007825032230
         H           -0.402398236303     1.529209699001     2.542911205206     1.007825032230
         H            0.527601763697    -1.546790300999     1.236911205206     1.007825032230
         H           -2.846398236303    -0.678790300999     1.268911205206     1.007825032230
         H           -2.573398236303     0.887209699001     1.971911205206     1.007825032230
         H           -2.394398236303    -2.145790300999     0.631911205206     1.007825032230
         H           -1.303398236303    -3.300790300999     1.361911205206     1.007825032230
         H           -1.049808236303    -2.783350300999    -0.314178794794     1.007825032230

  Running in c1 symmetry.

  Rotational constants: A =      0.07750  B =      0.02231  C =      0.02090 [cm^-1]
  Rotational constants: A =   2323.25502  B =    668.86760  C =    626.65358 [MHz]
  Nuclear repulsion =  453.304544456310680

  Charge       = 0
  Multiplicity = 1
  Electrons    = 72
  Nalpha       = 36
  Nbeta        = 36

  ==> Algorithm <==

  SCF Algorithm Type is PK.
  DIIS enabled.
  MOM disabled.
  Fractional occupation disabled.
  Guess Type is SAD.
  Energy threshold   = 1.00e-06
  Density threshold  = 1.00e-10
  Integral threshold = 0.00e+00

  ==> Primary Basis <==

  Basis Set: CC-PVDZ
    Blend: CC-PVDZ
    Number of shells: 87
    Number of basis function: 181
    Number of Cartesian functions: 190
    Spherical Harmonics?: true
    Max angular momentum: 2

  ==> Pre-Iterations <==

   -------------------------------------------------------
    Irrep   Nso     Nmo     Nalpha   Nbeta   Ndocc  Nsocc
   -------------------------------------------------------
     A        181     181       0       0       0       0
   -------------------------------------------------------
    Total     181     181      36      36      36       0
   -------------------------------------------------------

  ==> Integral Setup <==

  Using integral reordering PK algorithm.
  Sizing the integral batches needed.
  Building batch lookup table.
   Calculation information:
      Number of atoms:                  20
      Number of AO shells:              87
      Number of primitives:            253
      Number of atomic orbitals:       190
      Number of basis functions:       181

      Integral cutoff                 1.00e-12
      Number of threads:                 1

	Batch   1 pq = [       0,    9405] index = [             0,44231715] size =     44231715
	Batch   2 pq = [    9405,   13301] index = [      44231715,88464951] size =     44233236
	Batch   3 pq = [   13301,   16471] index = [      88464951,135655156] size =     47190205
  Task number: 13
  Buffer size: 11059200
  Buffer per thread: 2
  We computed 5680735 shell quartets total.
  Whereas there are 7328706 unique shell quartets.

  ==> DiskJK: Disk-Based J/K Matrices <==

    J tasked:                  Yes
    K tasked:                  Yes
    wK tasked:                  No
    Memory [MiB]:              375
    Schwarz Cutoff:          1E-12

    OpenMP threads:              1

  Minimum eigenvalue in the overlap matrix is 3.7357931901E-03.
  Using Symmetric Orthogonalization.

  SCF Guess: Superposition of Atomic Densities via on-the-fly atomic UHF.

  ==> Iterations <==

                        Total Energy        Delta E     RMS |[F,P]|

   @RHF iter SAD:  -469.66017609527375   -4.69660e+02   0.00000e+00
   @RHF iter   1:  -470.64147937184805   -9.81303e-01   4.34960e-03 DIIS
   @RHF iter   2:  -470.87758176914326   -2.36102e-01   2.29063e-03 DIIS
   @RHF iter   3:  -470.93957124629657   -6.19895e-02   3.95538e-04 DIIS
   @RHF iter   4:  -470.94284909934419   -3.27785e-03   1.37423e-04 DIIS
   @RHF iter   5:  -470.94323842785559   -3.89329e-04   2.41579e-05 DIIS
   @RHF iter   6:  -470.94325800207241   -1.95742e-05   9.73437e-06 DIIS
   @RHF iter   7:  -470.94326005801111   -2.05594e-06   2.91440e-06 DIIS
   @RHF iter   8:  -470.94326042588438   -3.67873e-07   1.54615e-06 DIIS
   @RHF iter   9:  -470.94326048638658   -6.05022e-08   4.80517e-07 DIIS
   @RHF iter  10:  -470.94326049923069   -1.28441e-08   1.87527e-07 DIIS
   @RHF iter  11:  -470.94326050089393   -1.66324e-09   4.48673e-08 DIIS
   @RHF iter  12:  -470.94326050099392   -9.99876e-11   1.40822e-08 DIIS
   @RHF iter  13:  -470.94326050099824   -4.32010e-12   3.80739e-09 DIIS
   @RHF iter  14:  -470.94326050099835   -1.13687e-13   9.88095e-10 DIIS
   @RHF iter  15:  -470.94326050100051   -2.16005e-12   3.19256e-10 DIIS
   @RHF iter  16:  -470.94326050100022    2.84217e-13   1.07284e-10 DIIS
   @RHF iter  17:  -470.94326050099789    2.33058e-12   4.23945e-11 DIIS
  Energy and wave function converged.

  ==> Post-Iterations <==

    Orbital Energies [Eh]
    ---------------------

    Doubly Occupied:

       1A    -20.366951     2A    -20.363770     3A    -15.662901
       4A    -15.654631     5A    -15.648663     6A    -11.458172
       7A    -11.330849     8A    -11.219577     9A    -11.142796
      10A     -1.413246    11A     -1.269078    12A     -1.261327
      13A     -1.256121    14A     -1.139786    15A     -1.022148
      16A     -0.910877    17A     -0.896444    18A     -0.852547
      19A     -0.812217    20A     -0.732248    21A     -0.726578
      22A     -0.693492    23A     -0.670404    24A     -0.620190
      25A     -0.612266    26A     -0.605157    27A     -0.511640
      28A     -0.508622    29A     -0.506454    30A     -0.487196
      31A     -0.453313    32A     -0.441812    33A     -0.404726
      34A     -0.294256    35A     -0.276512    36A     -0.269339

    Virtual:

      37A      0.114300    38A      0.141828    39A      0.156698
      40A      0.167970    41A      0.188424    42A      0.199397
      43A      0.226978    44A      0.240713    45A      0.268515
      46A      0.270344    47A      0.304020    48A      0.327456
      49A      0.330510    50A      0.386930    51A      0.405672
      52A      0.458553    53A      0.472629    54A      0.486888
      55A      0.531870    56A      0.546996    57A      0.583190
      58A      0.603430    59A      0.643881    60A      0.648652
      61A      0.670755    62A      0.680358    63A      0.698241
      64A      0.718463    65A      0.728549    66A      0.772548
      67A      0.777311    68A      0.799732    69A      0.804842
      70A      0.814767    71A      0.853565    72A      0.870678
      73A      0.879462    74A      0.884125    75A      0.896720
      76A      0.925064    77A      0.934721    78A      0.939188
      79A      0.944070    80A      0.955318    81A      0.977613
      82A      0.992522    83A      1.020068    84A      1.026495
      85A      1.037225    86A      1.083369    87A      1.118908
      88A      1.123219    89A      1.183647    90A      1.238192
      91A      1.243844    92A      1.255246    93A      1.261111
      94A      1.268720    95A      1.306364    96A      1.320765
      97A      1.336484    98A      1.398915    99A      1.427095
     100A      1.437050   101A      1.465015   102A      1.479652
     103A      1.484779   104A      1.502433   105A      1.547627
     106A      1.582250   107A      1.586781   108A      1.622578
     109A      1.629656   110A      1.650265   111A      1.655750
     112A      1.715475   113A      1.727489   114A      1.752565
     115A      1.766609   116A      1.793375   117A      1.826177
     118A      1.839695   119A      1.844532   120A      1.872771
     121A      1.875336   122A      1.897801   123A      1.929592
     124A      1.957087   125A      1.964266   126A      1.982042
     127A      2.018125   128A      2.023633   129A      2.035678
     130A      2.046824   131A      2.110963   132A      2.117932
     133A      2.133221   134A      2.159703   135A      2.168572
     136A      2.210491   137A      2.238889   138A      2.261442
     139A      2.300736   140A      2.322904   141A      2.345566
     142A      2.385881   143A      2.390357   144A      2.423697
     145A      2.455137   146A      2.478673   147A      2.484119
     148A      2.498310   149A      2.561736   150A      2.569573
     151A      2.583922   152A      2.628166   153A      2.668308
     154A      2.689547   155A      2.702128   156A      2.714684
     157A      2.746057   158A      2.819882   159A      2.852388
     160A      2.866740   161A      2.873275   162A      2.896669
     163A      2.905553   164A      2.941883   165A      2.973412
     166A      3.060400   167A      3.136378   168A      3.172550
     169A      3.187056   170A      3.191916   171A      3.229658
     172A      3.252937   173A      3.256269   174A      3.536128
     175A      3.673453   176A      3.713507   177A      3.719952
     178A      3.778399   179A      3.954483   180A      3.979917
     181A      4.096955

    Final Occupation by Irrep:
              A
    DOCC [    36 ]

  @RHF Final Energy:  -470.94326050099789

   => Energetics <=

    Nuclear Repulsion Energy =            453.3045444563106798
    One-Electron Energy =               -1543.5030016141379292
    Two-Electron Energy =                 619.2551966568294119
    Total Energy =                       -470.9432605009978943

Computation Completed

Properties will be evaluated at   0.000000,   0.000000,   0.000000 [a0]

Properties computed using the SCF density matrix

  Nuclear Dipole Moment: [e a0]
     X:    -1.1539      Y:    -5.9513      Z:     1.7149

  Electronic Dipole Moment: [e a0]
     X:    -1.5266      Y:     3.4988      Z:     3.2193

  Dipole Moment: [e a0]
     X:    -2.6805      Y:    -2.4525      Z:     4.9342     Total:     6.1275

  Dipole Moment: [D]
     X:    -6.8132      Y:    -6.2337      Z:    12.5416     Total:    15.5746

*** tstop() called on ds3 at Tue Apr 28 00:59:51 2020
Module time:
	user time   =      39.33 seconds =       0.66 minutes
	system time =      18.94 seconds =       0.32 minutes
	total time  =         57 seconds =       0.95 minutes
Total time:
	user time   =      39.33 seconds =       0.66 minutes
	system time =      18.94 seconds =       0.32 minutes
	total time  =         57 seconds =       0.95 minutes
                                     G D M A

                                 by Anthony Stone

                           version 2.2.06, 22 June 2011

               Distributed Multipoles from Gaussian wavefunctions

Starting at 0:59:51 on 28 Apr 2020

Using SCF density matrix from file ./SSI/SSI-034ASP-061ARG-1-dimer.test.5739.fchk

                         Distributed Multipole Analysis

Standard DMA

Positions and radii in angstrom
Multipole moments in atomic units, ea_0^k for rank k

C          x =  2.324602  y =  0.492210  z = -2.771089 angstrom
           Maximum rank =  0   Radius =  0.650 angstrom
                   Q00  =  -0.277118

C          x =  1.208602  y =  0.869210  z = -1.849089 angstrom
           Maximum rank =  0   Radius =  0.650 angstrom
                   Q00  =   0.969276

O          x =  1.378602  y =  0.675210  z = -0.613089 angstrom
           Maximum rank =  0   Radius =  0.650 angstrom
                   Q00  =  -0.998335

O          x =  0.162602  y =  1.374210  z = -2.292089 angstrom
           Maximum rank =  0   Radius =  0.650 angstrom
                   Q00  =  -0.908060

H          x =  2.723602  y = -0.485790  z = -2.493089 angstrom
           Maximum rank =  0   Radius =  0.325 angstrom
                   Q00  =   0.060572

H          x =  3.135602  y =  1.214210  z = -2.657089 angstrom
           Maximum rank =  0   Radius =  0.325 angstrom
                   Q00  =   0.093303

H          x =  2.017042  y =  0.478360  z = -3.827129 angstrom
           Maximum rank =  0   Radius =  0.325 angstrom
                   Q00  =   0.069269

C          x = -1.348398  y = -2.441790  z =  0.687911 angstrom
           Maximum rank =  0   Radius =  0.650 angstrom
                   Q00  =  -0.104661

C          x = -0.920398  y = -0.250790  z =  1.721911 angstrom
           Maximum rank =  0   Radius =  0.650 angstrom
                   Q00  =   1.002001

N          x = -0.071398  y =  0.636210  z =  2.218911 angstrom
           Maximum rank =  0   Radius =  0.650 angstrom
                   Q00  =  -0.538873

N          x = -0.469398  y = -1.390790  z =  1.234911 angstrom
           Maximum rank =  0   Radius =  0.650 angstrom
                   Q00  =  -0.440876

N          x = -2.213398  y =  0.012210  z =  1.624911 angstrom
           Maximum rank =  0   Radius =  0.650 angstrom
                   Q00  =  -0.559091

H          x =  0.918602  y =  0.471210  z =  2.136911 angstrom
           Maximum rank =  0   Radius =  0.325 angstrom
                   Q00  =   0.280984

H          x = -0.402398  y =  1.529210  z =  2.542911 angstrom
           Maximum rank =  0   Radius =  0.325 angstrom
                   Q00  =   0.247727

H          x =  0.527602  y = -1.546790  z =  1.236911 angstrom
           Maximum rank =  0   Radius =  0.325 angstrom
                   Q00  =   0.247367

H          x = -2.846398  y = -0.678790  z =  1.268911 angstrom
           Maximum rank =  0   Radius =  0.325 angstrom
                   Q00  =   0.251778

H          x = -2.573398  y =  0.887210  z =  1.971911 angstrom
           Maximum rank =  0   Radius =  0.325 angstrom
                   Q00  =   0.248351

H          x = -2.394398  y = -2.145790  z =  0.631911 angstrom
           Maximum rank =  0   Radius =  0.325 angstrom
                   Q00  =   0.094292

H          x = -1.303398  y = -3.300790  z =  1.361911 angstrom
           Maximum rank =  0   Radius =  0.325 angstrom
                   Q00  =   0.108573

H          x = -1.049808  y = -2.783350  z = -0.314179 angstrom
           Maximum rank =  0   Radius =  0.325 angstrom
                   Q00  =   0.153520

Total multipoles referred to origin at
           x =   0.000000,  y =    0.000000,  z =    0.000000 angstrom
                   Q00  =  -0.000000

Finished at 0:59:51 on 28 Apr 2020

  DMA results are available in the Python driver through the
	  variable('DMA DISTRIBUTED MULTIPOLES')
  and
	  variable('DMA TOTAL MULTIPOLES')
  commands.

    Psi4 stopped on: Tuesday, 28 April 2020 12:59AM
    Psi4 wall time for execution: 0:00:56.80

*** Psi4 exiting successfully. Buy a developer a beer!
