                               Psi4 1.3.2 release

  ==> Input File <==

--------------------------------------------------------------------------
import numpy as np
set {scf_type pk
basis cc-pvdz
d_convergence 10
gdma_switch   0
gdma_limit    0
gdma_origin   [ 0.0,  0.0,  0.0 ]
}
molecule test {
    units Angstrom
    1 1
    --
    1 1
    C               -0.305055242182007    -2.019410091789766     0.332060776487027
    C               -0.918055242182007    -3.202410091789766    -0.406939223512973
    H                0.657944757817993    -1.754410091789766    -0.107939223512973
    H               -0.987055242182007    -1.173410091789766     0.269060776487027
    H               -0.162055242182007    -2.270410091789766     1.384060776487027
    H               -0.933055242182007    -2.960410091789766    -1.469939223512973
    H               -0.315941242182007    -4.107020091789766    -0.236244223512973
    H               -1.951593242182007    -3.378470091789766    -0.074068223512973
    C                0.147944757817993     1.347589908210234    -0.395939223512973
    C                1.583944757817993     1.847589908210234    -0.561939223512973
    N               -0.442055242182007     1.863589908210234     0.891060776487027
    H               -0.449055242182007     1.684589908210234    -1.250939223512973
    H                0.164944757817993     0.259589908210234    -0.404939223512973
    H                2.155944757817993     1.642589908210234     0.309060776487027
    H                1.559944757817993     2.930589908210234    -0.698939223512973
    H               -0.470055242182007     2.875589908210234     0.901060776487027
    H               -1.392055242182007     1.534589908210234     1.022060776487027
    H                0.103944757817993     1.564589908210234     1.691060776487027
    H                2.102267757817993     1.389489908210234    -1.417207223512973

}
e, wfn = energy('scf', return_wfn=True)
gdma(wfn)
dmavals = variable('DMA DISTRIBUTED MULTIPOLES')
charges = np.array(dmavals)
print(charges)
np.save('SSI-161VAL-170LYS-1-dimer.npy', np.array(charges))--------------------------------------------------------------------------

*** tstart() called on ds3
*** at Tue Apr 28 21:58:36 2020

   => Loading Basis Set <=

    Name: CC-PVDZ
    Role: ORBITAL
    Keyword: BASIS
    atoms 1-2, 9-10  entry C          line   138 file /theoryfs2/ds/metcalf/miniconda2/envs/tf2gpu/share/psi4/basis/cc-pvdz.gbs
    atoms 3-8, 12-19 entry H          line    22 file /theoryfs2/ds/metcalf/miniconda2/envs/tf2gpu/share/psi4/basis/cc-pvdz.gbs
    atoms 11         entry N          line   168 file /theoryfs2/ds/metcalf/miniconda2/envs/tf2gpu/share/psi4/basis/cc-pvdz.gbs

         ---------------------------------------------------------
                                   SCF
               by Justin Turney, Rob Parrish, Andy Simmonett
                          and Daniel G. A. Smith
                              RHF Reference
                        1 Threads,    500 MiB Core
         ---------------------------------------------------------

  ==> Geometry <==

    Molecular point group: c1
    Full point group: C1

    Geometry (in Angstrom), charge = 1, multiplicity = 1:

       Center              X                  Y                   Z               Mass
    ------------   -----------------  -----------------  -----------------  -----------------
         C           -0.305055242182    -2.019410091790     0.332060776487    12.000000000000
         C           -0.918055242182    -3.202410091790    -0.406939223513    12.000000000000
         H            0.657944757818    -1.754410091790    -0.107939223513     1.007825032230
         H           -0.987055242182    -1.173410091790     0.269060776487     1.007825032230
         H           -0.162055242182    -2.270410091790     1.384060776487     1.007825032230
         H           -0.933055242182    -2.960410091790    -1.469939223513     1.007825032230
         H           -0.315941242182    -4.107020091790    -0.236244223513     1.007825032230
         H           -1.951593242182    -3.378470091790    -0.074068223513     1.007825032230
         C            0.147944757818     1.347589908210    -0.395939223513    12.000000000000
         C            1.583944757818     1.847589908210    -0.561939223513    12.000000000000
         N           -0.442055242182     1.863589908210     0.891060776487    14.003074004430
         H           -0.449055242182     1.684589908210    -1.250939223513     1.007825032230
         H            0.164944757818     0.259589908210    -0.404939223513     1.007825032230
         H            2.155944757818     1.642589908210     0.309060776487     1.007825032230
         H            1.559944757818     2.930589908210    -0.698939223513     1.007825032230
         H           -0.470055242182     2.875589908210     0.901060776487     1.007825032230
         H           -1.392055242182     1.534589908210     1.022060776487     1.007825032230
         H            0.103944757818     1.564589908210     1.691060776487     1.007825032230
         H            2.102267757818     1.389489908210    -1.417207223513     1.007825032230

  Running in c1 symmetry.

  Rotational constants: A =      0.22741  B =      0.04216  C =      0.03815 [cm^-1]
  Rotational constants: A =   6817.57041  B =   1263.98897  C =   1143.80140 [MHz]
  Nuclear repulsion =  190.208923449133977

  Charge       = 1
  Multiplicity = 1
  Electrons    = 44
  Nalpha       = 22
  Nbeta        = 22

  ==> Algorithm <==

  SCF Algorithm Type is PK.
  DIIS enabled.
  MOM disabled.
  Fractional occupation disabled.
  Guess Type is SAD.
  Energy threshold   = 1.00e-06
  Density threshold  = 1.00e-10
  Integral threshold = 0.00e+00

  ==> Primary Basis <==

  Basis Set: CC-PVDZ
    Blend: CC-PVDZ
    Number of shells: 72
    Number of basis function: 140
    Number of Cartesian functions: 145
    Spherical Harmonics?: true
    Max angular momentum: 2

  ==> Pre-Iterations <==

   -------------------------------------------------------
    Irrep   Nso     Nmo     Nalpha   Nbeta   Ndocc  Nsocc
   -------------------------------------------------------
     A        140     140       0       0       0       0
   -------------------------------------------------------
    Total     140     140      22      22      22       0
   -------------------------------------------------------

  ==> Integral Setup <==

  Using integral reordering PK algorithm.
  Sizing the integral batches needed.
  Building batch lookup table.
   Calculation information:
      Number of atoms:                  19
      Number of AO shells:              72
      Number of primitives:            180
      Number of atomic orbitals:       145
      Number of basis functions:       140

      Integral cutoff                 1.00e-12
      Number of threads:                 1

	Batch   1 pq = [       0,    9405] index = [             0,44231715] size =     44231715
	Batch   2 pq = [    9405,    9870] index = [      44231715,48713385] size =      4481670
  Task number: 5
  Buffer size: 11059200
  Buffer per thread: 2
  We computed 2943759 shell quartets total.
  Whereas there are 3454506 unique shell quartets.

  ==> DiskJK: Disk-Based J/K Matrices <==

    J tasked:                  Yes
    K tasked:                  Yes
    wK tasked:                  No
    Memory [MiB]:              375
    Schwarz Cutoff:          1E-12

    OpenMP threads:              1

  Minimum eigenvalue in the overlap matrix is 5.5315658044E-03.
  Using Symmetric Orthogonalization.

  SCF Guess: Superposition of Atomic Densities via on-the-fly atomic UHF.

  ==> Iterations <==

                        Total Energy        Delta E     RMS |[F,P]|

   @RHF iter SAD:  -213.21726213200481   -2.13217e+02   0.00000e+00
   @RHF iter   1:  -213.68651013277130   -4.69248e-01   3.56866e-03 DIIS
   @RHF iter   2:  -213.83769289295881   -1.51183e-01   1.34688e-03 DIIS
   @RHF iter   3:  -213.85773871611232   -2.00458e-02   3.44733e-04 DIIS
   @RHF iter   4:  -213.85990507780332   -2.16636e-03   4.81200e-05 DIIS
   @RHF iter   5:  -213.85995250826016   -4.74305e-05   1.40688e-05 DIIS
   @RHF iter   6:  -213.85995573317291   -3.22491e-06   3.96848e-06 DIIS
   @RHF iter   7:  -213.85995597411744   -2.40945e-07   9.45995e-07 DIIS
   @RHF iter   8:  -213.85995599403017   -1.99127e-08   2.77081e-07 DIIS
   @RHF iter   9:  -213.85995599539618   -1.36600e-09   7.22351e-08 DIIS
   @RHF iter  10:  -213.85995599548639   -9.02105e-11   1.33105e-08 DIIS
   @RHF iter  11:  -213.85995599549025   -3.86535e-12   2.74316e-09 DIIS
   @RHF iter  12:  -213.85995599549025    0.00000e+00   7.07477e-10 DIIS
   @RHF iter  13:  -213.85995599549034   -8.52651e-14   1.94409e-10 DIIS
   @RHF iter  14:  -213.85995599549079   -4.54747e-13   4.82136e-11 DIIS
  Energy and wave function converged.

  ==> Post-Iterations <==

    Orbital Energies [Eh]
    ---------------------

    Doubly Occupied:

       1A    -15.905009     2A    -11.478360     3A    -11.402541
       4A    -11.346717     5A    -11.326598     6A     -1.520941
       7A     -1.219593     8A     -1.140727     9A     -1.057513
      10A     -0.979874    11A     -0.967574    12A     -0.955532
      13A     -0.860236    14A     -0.799619    15A     -0.724923
      16A     -0.721731    17A     -0.719554    18A     -0.702628
      19A     -0.685125    20A     -0.617897    21A     -0.604143
      22A     -0.600271

    Virtual:

      23A     -0.049719    24A      0.013598    25A      0.019406
      26A      0.033913    27A      0.079658    28A      0.082184
      29A      0.109926    30A      0.122658    31A      0.127205
      32A      0.139329    33A      0.140951    34A      0.152388
      35A      0.169022    36A      0.178519    37A      0.204530
      38A      0.216062    39A      0.276272    40A      0.378663
      41A      0.398049    42A      0.429773    43A      0.441967
      44A      0.454618    45A      0.478423    46A      0.495579
      47A      0.514047    48A      0.568724    49A      0.598201
      50A      0.606468    51A      0.638407    52A      0.660209
      53A      0.677514    54A      0.704561    55A      0.712400
      56A      0.721430    57A      0.739988    58A      0.752061
      59A      0.763151    60A      0.771531    61A      0.789591
      62A      0.790584    63A      0.799292    64A      0.805299
      65A      0.820795    66A      0.835525    67A      0.845305
      68A      0.892135    69A      0.922525    70A      0.935356
      71A      1.006423    72A      1.012424    73A      1.118595
      74A      1.153385    75A      1.212437    76A      1.270594
      77A      1.294192    78A      1.357719    79A      1.368029
      80A      1.401887    81A      1.452817    82A      1.465599
      83A      1.468349    84A      1.520664    85A      1.549158
      86A      1.580513    87A      1.593023    88A      1.654428
      89A      1.700371    90A      1.714128    91A      1.731157
      92A      1.744723    93A      1.752485    94A      1.770744
      95A      1.787623    96A      1.790874    97A      1.803169
      98A      1.820427    99A      1.826072   100A      1.835886
     101A      1.844477   102A      1.857512   103A      1.864412
     104A      1.891254   105A      1.904491   106A      1.919717
     107A      1.978811   108A      1.983339   109A      1.997722
     110A      2.010034   111A      2.026624   112A      2.140065
     113A      2.157735   114A      2.175344   115A      2.180740
     116A      2.196622   117A      2.297231   118A      2.321895
     119A      2.345215   120A      2.362699   121A      2.388982
     122A      2.438330   123A      2.445958   124A      2.478803
     125A      2.512323   126A      2.557857   127A      2.606011
     128A      2.649956   129A      2.663337   130A      2.666473
     131A      2.687686   132A      2.724844   133A      2.737564
     134A      2.747872   135A      2.785615   136A      2.837448
     137A      2.860091   138A      2.885272   139A      3.094226
     140A      3.124529

    Final Occupation by Irrep:
              A
    DOCC [    22 ]

  @RHF Final Energy:  -213.85995599549079

   => Energetics <=

    Nuclear Repulsion Energy =            190.2089234491339766
    One-Electron Energy =                -655.4635527902289596
    Two-Electron Energy =                 251.3946733456041898
    Total Energy =                       -213.8599559954907932

Computation Completed

Properties will be evaluated at   0.000000,   0.000000,   0.000000 [a0]

Properties computed using the SCF density matrix

  Nuclear Dipole Moment: [e a0]
     X:     0.0801      Y:    -1.6577      Z:    -0.0812

  Electronic Dipole Moment: [e a0]
     X:    -0.4934      Y:     4.6379      Z:     1.1967

  Dipole Moment: [e a0]
     X:    -0.4133      Y:     2.9802      Z:     1.1155     Total:     3.2088

  Dipole Moment: [D]
     X:    -1.0505      Y:     7.5748      Z:     2.8354     Total:     8.1560

*** tstop() called on ds3 at Tue Apr 28 21:58:57 2020
Module time:
	user time   =      14.82 seconds =       0.25 minutes
	system time =       6.35 seconds =       0.11 minutes
	total time  =         21 seconds =       0.35 minutes
Total time:
	user time   =      14.82 seconds =       0.25 minutes
	system time =       6.35 seconds =       0.11 minutes
	total time  =         21 seconds =       0.35 minutes
                                     G D M A

                                 by Anthony Stone

                           version 2.2.06, 22 June 2011

               Distributed Multipoles from Gaussian wavefunctions

Starting at 21:58:57 on 28 Apr 2020

Using SCF density matrix from file ./SSI/SSI-161VAL-170LYS-1-dimer.test.7499.fchk

                         Distributed Multipole Analysis

Standard DMA

Positions and radii in angstrom
Multipole moments in atomic units, ea_0^k for rank k

C          x = -0.305055  y = -2.019410  z =  0.332061 angstrom
           Maximum rank =  0   Radius =  0.650 angstrom
                   Q00  =  -0.280701

C          x = -0.918055  y = -3.202410  z = -0.406939 angstrom
           Maximum rank =  0   Radius =  0.650 angstrom
                   Q00  =  -0.209260

H          x =  0.657945  y = -1.754410  z = -0.107939 angstrom
           Maximum rank =  0   Radius =  0.325 angstrom
                   Q00  =   0.072209

H          x = -0.987055  y = -1.173410  z =  0.269061 angstrom
           Maximum rank =  0   Radius =  0.325 angstrom
                   Q00  =   0.027907

H          x = -0.162055  y = -2.270410  z =  1.384061 angstrom
           Maximum rank =  0   Radius =  0.325 angstrom
                   Q00  =   0.101525

H          x = -0.933055  y = -2.960410  z = -1.469939 angstrom
           Maximum rank =  0   Radius =  0.325 angstrom
                   Q00  =   0.081876

H          x = -0.315941  y = -4.107020  z = -0.236244 angstrom
           Maximum rank =  0   Radius =  0.325 angstrom
                   Q00  =   0.104662

H          x = -1.951593  y = -3.378470  z = -0.074068 angstrom
           Maximum rank =  0   Radius =  0.325 angstrom
                   Q00  =   0.093573

C          x =  0.147945  y =  1.347590  z = -0.395939 angstrom
           Maximum rank =  0   Radius =  0.650 angstrom
                   Q00  =  -0.031262

C          x =  1.583945  y =  1.847590  z = -0.561939 angstrom
           Maximum rank =  0   Radius =  0.650 angstrom
                   Q00  =  -0.243200

N          x = -0.442055  y =  1.863590  z =  0.891061 angstrom
           Maximum rank =  0   Radius =  0.650 angstrom
                   Q00  =  -0.156074

H          x = -0.449055  y =  1.684590  z = -1.250939 angstrom
           Maximum rank =  0   Radius =  0.325 angstrom
                   Q00  =   0.132831

H          x =  0.164945  y =  0.259590  z = -0.404939 angstrom
           Maximum rank =  0   Radius =  0.325 angstrom
                   Q00  =   0.167063

H          x =  2.155945  y =  1.642590  z =  0.309061 angstrom
           Maximum rank =  0   Radius =  0.325 angstrom
                   Q00  =   0.101820

H          x =  1.559945  y =  2.930590  z = -0.698939 angstrom
           Maximum rank =  0   Radius =  0.325 angstrom
                   Q00  =   0.104190

H          x = -0.470055  y =  2.875590  z =  0.901061 angstrom
           Maximum rank =  0   Radius =  0.325 angstrom
                   Q00  =   0.256745

H          x = -1.392055  y =  1.534590  z =  1.022061 angstrom
           Maximum rank =  0   Radius =  0.325 angstrom
                   Q00  =   0.260762

H          x =  0.103945  y =  1.564590  z =  1.691061 angstrom
           Maximum rank =  0   Radius =  0.325 angstrom
                   Q00  =   0.260079

H          x =  2.102268  y =  1.389490  z = -1.417207 angstrom
           Maximum rank =  0   Radius =  0.325 angstrom
                   Q00  =   0.155256

Total multipoles referred to origin at
           x =   0.000000,  y =    0.000000,  z =    0.000000 angstrom
                   Q00  =   1.000000

Finished at 21:58:57 on 28 Apr 2020

  DMA results are available in the Python driver through the
	  variable('DMA DISTRIBUTED MULTIPOLES')
  and
	  variable('DMA TOTAL MULTIPOLES')
  commands.

    Psi4 stopped on: Tuesday, 28 April 2020 09:58PM
    Psi4 wall time for execution: 0:00:20.97

*** Psi4 exiting successfully. Buy a developer a beer!
