                               Psi4 1.3.2 release

  ==> Input File <==

--------------------------------------------------------------------------
import numpy as np
set {scf_type pk
basis cc-pvdz
d_convergence 10
gdma_switch   0
gdma_limit    0
gdma_origin   [ 0.0,  0.0,  0.0 ]
}
molecule test {
    units Angstrom
    0 1
    --
    0 1
    C                0.728002421730314    -0.637049272286262    -1.144101612671091
    C                1.104002421730314    -2.058049272286262    -1.651101612671090
    C               -0.061997578269686     0.311950727713738    -2.099101612671090
    H                0.122002421730314    -0.777049272286262    -0.252101612671091
    H                1.632002421730314    -0.122049272286262    -0.836101612671091
    H                1.728002421730314    -1.958049272286262    -2.540101612671091
    H               -0.941997578269686    -0.217049272286262    -2.463101612671090
    H               -0.423997578269686     1.171950727713738    -1.546101612671091
    H                0.178182421730314    -2.600319272286262    -1.893579612671091
    H                1.707822421730314    -2.614049272286262    -0.918805612671091
    H                0.529542421730314     0.638370727713738    -2.967165612671091
    C               -0.627997578269686     0.580950727713738     1.941898387328910
    C               -1.088997578269686     1.759950727713738     2.867898387328910
    H                0.454002421730314     0.610950727713738     1.800898387328910
    H               -0.911997578269686    -0.383049272286262     2.360898387328909
    H               -1.125997578269686     0.656950727713738     0.974898387328909
    H               -2.174997578269686     1.726950727713738     2.973898387328910
    H               -0.790927578269686     2.737700727713738     2.461504387328910
    H               -0.612847578269686     1.631760727713738     3.851183997328909

}
e, wfn = energy('scf', return_wfn=True)
gdma(wfn)
dmavals = variable('DMA DISTRIBUTED MULTIPOLES')
charges = np.array(dmavals)
print(charges)
np.save('SSI-169LYS-291ILE-1-dimer.npy', np.array(charges))--------------------------------------------------------------------------

*** tstart() called on ds3
*** at Mon Apr 27 18:38:08 2020

   => Loading Basis Set <=

    Name: CC-PVDZ
    Role: ORBITAL
    Keyword: BASIS
    atoms 1-3, 12-13  entry C          line   138 file /theoryfs2/ds/metcalf/miniconda2/envs/tf2gpu/share/psi4/basis/cc-pvdz.gbs
    atoms 4-11, 14-19 entry H          line    22 file /theoryfs2/ds/metcalf/miniconda2/envs/tf2gpu/share/psi4/basis/cc-pvdz.gbs

         ---------------------------------------------------------
                                   SCF
               by Justin Turney, Rob Parrish, Andy Simmonett
                          and Daniel G. A. Smith
                              RHF Reference
                        1 Threads,    500 MiB Core
         ---------------------------------------------------------

  ==> Geometry <==

    Molecular point group: c1
    Full point group: C1

    Geometry (in Angstrom), charge = 0, multiplicity = 1:

       Center              X                  Y                   Z               Mass
    ------------   -----------------  -----------------  -----------------  -----------------
         C            0.728002421730    -0.637049272286    -1.144101612671    12.000000000000
         C            1.104002421730    -2.058049272286    -1.651101612671    12.000000000000
         C           -0.061997578270     0.311950727714    -2.099101612671    12.000000000000
         H            0.122002421730    -0.777049272286    -0.252101612671     1.007825032230
         H            1.632002421730    -0.122049272286    -0.836101612671     1.007825032230
         H            1.728002421730    -1.958049272286    -2.540101612671     1.007825032230
         H           -0.941997578270    -0.217049272286    -2.463101612671     1.007825032230
         H           -0.423997578270     1.171950727714    -1.546101612671     1.007825032230
         H            0.178182421730    -2.600319272286    -1.893579612671     1.007825032230
         H            1.707822421730    -2.614049272286    -0.918805612671     1.007825032230
         H            0.529542421730     0.638370727714    -2.967165612671     1.007825032230
         C           -0.627997578270     0.580950727714     1.941898387329    12.000000000000
         C           -1.088997578270     1.759950727714     2.867898387329    12.000000000000
         H            0.454002421730     0.610950727714     1.800898387329     1.007825032230
         H           -0.911997578270    -0.383049272286     2.360898387329     1.007825032230
         H           -1.125997578270     0.656950727714     0.974898387329     1.007825032230
         H           -2.174997578270     1.726950727714     2.973898387329     1.007825032230
         H           -0.790927578270     2.737700727714     2.461504387329     1.007825032230
         H           -0.612847578270     1.631760727714     3.851183997329     1.007825032230

  Running in c1 symmetry.

  Rotational constants: A =      0.24599  B =      0.03781  C =      0.03406 [cm^-1]
  Rotational constants: A =   7374.62921  B =   1133.62677  C =   1021.08497 [MHz]
  Nuclear repulsion =  175.863688634838610

  Charge       = 0
  Multiplicity = 1
  Electrons    = 44
  Nalpha       = 22
  Nbeta        = 22

  ==> Algorithm <==

  SCF Algorithm Type is PK.
  DIIS enabled.
  MOM disabled.
  Fractional occupation disabled.
  Guess Type is SAD.
  Energy threshold   = 1.00e-06
  Density threshold  = 1.00e-10
  Integral threshold = 0.00e+00

  ==> Primary Basis <==

  Basis Set: CC-PVDZ
    Blend: CC-PVDZ
    Number of shells: 72
    Number of basis function: 140
    Number of Cartesian functions: 145
    Spherical Harmonics?: true
    Max angular momentum: 2

  ==> Pre-Iterations <==

   -------------------------------------------------------
    Irrep   Nso     Nmo     Nalpha   Nbeta   Ndocc  Nsocc
   -------------------------------------------------------
     A        140     140       0       0       0       0
   -------------------------------------------------------
    Total     140     140      22      22      22       0
   -------------------------------------------------------

  ==> Integral Setup <==

  Using integral reordering PK algorithm.
  Sizing the integral batches needed.
  Building batch lookup table.
   Calculation information:
      Number of atoms:                  19
      Number of AO shells:              72
      Number of primitives:            180
      Number of atomic orbitals:       145
      Number of basis functions:       140

      Integral cutoff                 1.00e-12
      Number of threads:                 1

	Batch   1 pq = [       0,    9405] index = [             0,44231715] size =     44231715
	Batch   2 pq = [    9405,    9870] index = [      44231715,48713385] size =      4481670
  Task number: 5
  Buffer size: 11059200
  Buffer per thread: 2
  We computed 2802408 shell quartets total.
  Whereas there are 3454506 unique shell quartets.

  ==> DiskJK: Disk-Based J/K Matrices <==

    J tasked:                  Yes
    K tasked:                  Yes
    wK tasked:                  No
    Memory [MiB]:              375
    Schwarz Cutoff:          1E-12

    OpenMP threads:              1

  Minimum eigenvalue in the overlap matrix is 5.6779890496E-03.
  Using Symmetric Orthogonalization.

  SCF Guess: Superposition of Atomic Densities via on-the-fly atomic UHF.

  ==> Iterations <==

                        Total Energy        Delta E     RMS |[F,P]|

   @RHF iter SAD:  -196.20739368101800   -1.96207e+02   0.00000e+00
   @RHF iter   1:  -197.31790478856414   -1.11051e+00   3.67411e-03 DIIS
   @RHF iter   2:  -197.47123998743371   -1.53335e-01   1.53643e-03 DIIS
   @RHF iter   3:  -197.49653720768805   -2.52972e-02   3.18897e-04 DIIS
   @RHF iter   4:  -197.49869247894705   -2.15527e-03   4.80731e-05 DIIS
   @RHF iter   5:  -197.49873128017305   -3.88012e-05   1.48407e-05 DIIS
   @RHF iter   6:  -197.49873472616929   -3.44600e-06   2.53666e-06 DIIS
   @RHF iter   7:  -197.49873484952369   -1.23354e-07   5.22737e-07 DIIS
   @RHF iter   8:  -197.49873485615939   -6.63570e-09   1.42968e-07 DIIS
   @RHF iter   9:  -197.49873485661570   -4.56311e-10   4.54991e-08 DIIS
   @RHF iter  10:  -197.49873485666356   -4.78622e-11   9.29918e-09 DIIS
   @RHF iter  11:  -197.49873485666527   -1.70530e-12   1.73843e-09 DIIS
   @RHF iter  12:  -197.49873485666637   -1.10845e-12   3.40452e-10 DIIS
   @RHF iter  13:  -197.49873485666581    5.68434e-13   6.75160e-11 DIIS
  Energy and wave function converged.

  ==> Post-Iterations <==

    Orbital Energies [Eh]
    ---------------------

    Doubly Occupied:

       1A    -11.223080     2A    -11.220608     3A    -11.220143
       4A    -11.219492     5A    -11.218850     6A     -1.040702
       7A     -1.008828     8A     -0.925274     9A     -0.841875
      10A     -0.796631    11A     -0.620118    12A     -0.596474
      13A     -0.593387    14A     -0.585191    15A     -0.544642
      16A     -0.534993    17A     -0.497323    18A     -0.492647
      19A     -0.486416    20A     -0.476252    21A     -0.466281
      22A     -0.455117

    Virtual:

      23A      0.171798    24A      0.193454    25A      0.219890
      26A      0.227535    27A      0.231626    28A      0.251960
      29A      0.257792    30A      0.268008    31A      0.274790
      32A      0.286654    33A      0.295732    34A      0.301720
      35A      0.304518    36A      0.335577    37A      0.364412
      38A      0.405549    39A      0.423248    40A      0.561462
      41A      0.586079    42A      0.596616    43A      0.600336
      44A      0.611823    45A      0.619553    46A      0.642784
      47A      0.690005    48A      0.693840    49A      0.755011
      50A      0.776604    51A      0.807391    52A      0.842455
      53A      0.872596    54A      0.879677    55A      0.889204
      56A      0.891716    57A      0.895514    58A      0.897395
      59A      0.900960    60A      0.909107    61A      0.913005
      62A      0.915193    63A      0.926768    64A      0.936635
      65A      0.957056    66A      0.969138    67A      0.998669
      68A      1.021926    69A      1.109454    70A      1.118882
      71A      1.137423    72A      1.151164    73A      1.222441
      74A      1.251874    75A      1.361642    76A      1.456100
      77A      1.458868    78A      1.470807    79A      1.498463
      80A      1.512607    81A      1.579089    82A      1.630461
      83A      1.670767    84A      1.680759    85A      1.683803
      86A      1.695855    87A      1.706894    88A      1.845287
      89A      1.850318    90A      1.872959    91A      1.877638
      92A      1.882495    93A      1.891304    94A      1.915297
      95A      1.917827    96A      1.930309    97A      1.932371
      98A      1.937596    99A      1.945001   100A      1.950257
     101A      1.956875   102A      1.972646   103A      1.982748
     104A      1.998866   105A      2.007900   106A      2.031386
     107A      2.072114   108A      2.084026   109A      2.110629
     110A      2.114061   111A      2.169678   112A      2.275505
     113A      2.277538   114A      2.298405   115A      2.322308
     116A      2.338736   117A      2.348433   118A      2.446869
     119A      2.463643   120A      2.488595   121A      2.530552
     122A      2.545689   123A      2.566295   124A      2.591534
     125A      2.605139   126A      2.640903   127A      2.751264
     128A      2.756893   129A      2.763518   130A      2.778208
     131A      2.785584   132A      2.817017   133A      2.834057
     134A      2.854959   135A      2.918455   136A      2.940720
     137A      2.955146   138A      2.960996   139A      2.966734
     140A      3.064831

    Final Occupation by Irrep:
              A
    DOCC [    22 ]

  @RHF Final Energy:  -197.49873485666581

   => Energetics <=

    Nuclear Repulsion Energy =            175.8636886348386099
    One-Electron Energy =                -612.5961961022403557
    Two-Electron Energy =                 239.2337726107359686
    Total Energy =                       -197.4987348566658056

Computation Completed

Properties will be evaluated at   0.000000,   0.000000,   0.000000 [a0]

Properties computed using the SCF density matrix

  Nuclear Dipole Moment: [e a0]
     X:    -0.5917      Y:     0.4716      Z:     0.9433

  Electronic Dipole Moment: [e a0]
     X:     0.5864      Y:    -0.4613      Z:    -0.8988

  Dipole Moment: [e a0]
     X:    -0.0054      Y:     0.0103      Z:     0.0445     Total:     0.0460

  Dipole Moment: [D]
     X:    -0.0136      Y:     0.0261      Z:     0.1132     Total:     0.1169

*** tstop() called on ds3 at Mon Apr 27 18:38:28 2020
Module time:
	user time   =      14.26 seconds =       0.24 minutes
	system time =       6.03 seconds =       0.10 minutes
	total time  =         20 seconds =       0.33 minutes
Total time:
	user time   =      14.26 seconds =       0.24 minutes
	system time =       6.03 seconds =       0.10 minutes
	total time  =         20 seconds =       0.33 minutes
                                     G D M A

                                 by Anthony Stone

                           version 2.2.06, 22 June 2011

               Distributed Multipoles from Gaussian wavefunctions

Starting at 18:38:28 on 27 Apr 2020

Using SCF density matrix from file ./SSI/SSI-169LYS-291ILE-1-dimer.test.26365.fchk

                         Distributed Multipole Analysis

Standard DMA

Positions and radii in angstrom
Multipole moments in atomic units, ea_0^k for rank k

C          x =  0.728002  y = -0.637049  z = -1.144102 angstrom
           Maximum rank =  0   Radius =  0.650 angstrom
                   Q00  =  -0.096802

C          x =  1.104002  y = -2.058049  z = -1.651102 angstrom
           Maximum rank =  0   Radius =  0.650 angstrom
                   Q00  =  -0.241637

C          x = -0.061998  y =  0.311951  z = -2.099102 angstrom
           Maximum rank =  0   Radius =  0.650 angstrom
                   Q00  =  -0.255530

H          x =  0.122002  y = -0.777049  z = -0.252102 angstrom
           Maximum rank =  0   Radius =  0.325 angstrom
                   Q00  =   0.047133

H          x =  1.632002  y = -0.122049  z = -0.836102 angstrom
           Maximum rank =  0   Radius =  0.325 angstrom
                   Q00  =   0.047435

H          x =  1.728002  y = -1.958049  z = -2.540102 angstrom
           Maximum rank =  0   Radius =  0.325 angstrom
                   Q00  =   0.076616

H          x = -0.941998  y = -0.217049  z = -2.463102 angstrom
           Maximum rank =  0   Radius =  0.325 angstrom
                   Q00  =   0.076062

H          x = -0.423998  y =  1.171951  z = -1.546102 angstrom
           Maximum rank =  0   Radius =  0.325 angstrom
                   Q00  =   0.090096

H          x =  0.178182  y = -2.600319  z = -1.893580 angstrom
           Maximum rank =  0   Radius =  0.325 angstrom
                   Q00  =   0.079074

H          x =  1.707822  y = -2.614049  z = -0.918806 angstrom
           Maximum rank =  0   Radius =  0.325 angstrom
                   Q00  =   0.089446

H          x =  0.529542  y =  0.638371  z = -2.967166 angstrom
           Maximum rank =  0   Radius =  0.325 angstrom
                   Q00  =   0.083540

C          x = -0.627998  y =  0.580951  z =  1.941898 angstrom
           Maximum rank =  0   Radius =  0.650 angstrom
                   Q00  =  -0.251124

C          x = -1.088998  y =  1.759951  z =  2.867898 angstrom
           Maximum rank =  0   Radius =  0.650 angstrom
                   Q00  =  -0.241313

H          x =  0.454002  y =  0.610951  z =  1.800898 angstrom
           Maximum rank =  0   Radius =  0.325 angstrom
                   Q00  =   0.084736

H          x = -0.911998  y = -0.383049  z =  2.360898 angstrom
           Maximum rank =  0   Radius =  0.325 angstrom
                   Q00  =   0.083574

H          x = -1.125998  y =  0.656951  z =  0.974898 angstrom
           Maximum rank =  0   Radius =  0.325 angstrom
                   Q00  =   0.077934

H          x = -2.174998  y =  1.726951  z =  2.973898 angstrom
           Maximum rank =  0   Radius =  0.325 angstrom
                   Q00  =   0.084468

H          x = -0.790928  y =  2.737701  z =  2.461504 angstrom
           Maximum rank =  0   Radius =  0.325 angstrom
                   Q00  =   0.084805

H          x = -0.612848  y =  1.631761  z =  3.851184 angstrom
           Maximum rank =  0   Radius =  0.325 angstrom
                   Q00  =   0.081486

Total multipoles referred to origin at
           x =   0.000000,  y =    0.000000,  z =    0.000000 angstrom
                   Q00  =  -0.000000

Finished at 18:38:28 on 27 Apr 2020

  DMA results are available in the Python driver through the
	  variable('DMA DISTRIBUTED MULTIPOLES')
  and
	  variable('DMA TOTAL MULTIPOLES')
  commands.

    Psi4 stopped on: Monday, 27 April 2020 06:38PM
    Psi4 wall time for execution: 0:00:20.21

*** Psi4 exiting successfully. Buy a developer a beer!
