                               Psi4 1.3.2 release

  ==> Input File <==

--------------------------------------------------------------------------
import numpy as np
set {scf_type pk
basis cc-pvdz
d_convergence 10
gdma_switch   0
gdma_limit    0
gdma_origin   [ 0.0,  0.0,  0.0 ]
}
molecule test {
    units Angstrom
    0 1
    --
    0 1
    C                0.988620538458665     0.993822514668609    -1.681890623951035
    C                0.753620538458665    -0.273177485331391    -2.505890623951035
    C                2.312620538458665     1.045822514668609    -0.931890623951035
    H                0.926620538458665     1.856822514668609    -2.348890623951035
    H                0.186620538458665     1.099822514668609    -0.953890623951035
    H                0.954620538458665    -1.134177485331391    -1.875890623951035
    H                2.348620538458665     0.206822514668609    -0.235890623951035
    H                3.138620538458665     0.959822514668609    -1.638890623951035
    H                1.430170538458665    -0.305497485331391    -3.372627623951035
    H               -0.300939461541335    -0.299167485331391    -2.817710623951035
    H                2.396760538458665     1.997962514668609    -0.387504623951035
    C               -0.943379461541335    -0.380177485331391     1.357109376048965
    C               -1.875379461541335     0.512822514668609     2.177109376048965
    C               -1.235379461541335    -1.862177485331391     1.539109376048965
    H               -1.064379461541335    -0.132177485331391     0.310109376048965
    H                0.089620538458665    -0.184177485331391     1.646109376048965
    H               -1.785379461541335     0.238822514668609     3.230109376048965
    H               -1.046379461541335    -2.031177485331391     2.603109376048965
    H               -2.262379461541335    -2.163177485331391     1.478109376048965
    H               -2.916309461541335     0.389782514668609     1.843467376048965
    H               -1.576579461541335     1.566562514668609     2.075344376048965
    H               -0.527919461541335    -2.506647485331391     0.996744376048965

}
e, wfn = energy('scf', return_wfn=True)
gdma(wfn)
dmavals = variable('DMA DISTRIBUTED MULTIPOLES')
charges = np.array(dmavals)
print(charges)
np.save('SSI-002LYS-006GLU-2-dimer.npy', np.array(charges))--------------------------------------------------------------------------

*** tstart() called on ds3
*** at Tue Apr 28 09:27:34 2020

   => Loading Basis Set <=

    Name: CC-PVDZ
    Role: ORBITAL
    Keyword: BASIS
    atoms 1-3, 12-14  entry C          line   138 file /theoryfs2/ds/metcalf/miniconda2/envs/tf2gpu/share/psi4/basis/cc-pvdz.gbs
    atoms 4-11, 15-22 entry H          line    22 file /theoryfs2/ds/metcalf/miniconda2/envs/tf2gpu/share/psi4/basis/cc-pvdz.gbs

         ---------------------------------------------------------
                                   SCF
               by Justin Turney, Rob Parrish, Andy Simmonett
                          and Daniel G. A. Smith
                              RHF Reference
                        1 Threads,    500 MiB Core
         ---------------------------------------------------------

  ==> Geometry <==

    Molecular point group: c1
    Full point group: C1

    Geometry (in Angstrom), charge = 0, multiplicity = 1:

       Center              X                  Y                   Z               Mass
    ------------   -----------------  -----------------  -----------------  -----------------
         C            0.988620538459     0.993822514669    -1.681890623951    12.000000000000
         C            0.753620538459    -0.273177485331    -2.505890623951    12.000000000000
         C            2.312620538459     1.045822514669    -0.931890623951    12.000000000000
         H            0.926620538459     1.856822514669    -2.348890623951     1.007825032230
         H            0.186620538459     1.099822514669    -0.953890623951     1.007825032230
         H            0.954620538459    -1.134177485331    -1.875890623951     1.007825032230
         H            2.348620538459     0.206822514669    -0.235890623951     1.007825032230
         H            3.138620538459     0.959822514669    -1.638890623951     1.007825032230
         H            1.430170538459    -0.305497485331    -3.372627623951     1.007825032230
         H           -0.300939461541    -0.299167485331    -2.817710623951     1.007825032230
         H            2.396760538459     1.997962514669    -0.387504623951     1.007825032230
         C           -0.943379461541    -0.380177485331     1.357109376049    12.000000000000
         C           -1.875379461541     0.512822514669     2.177109376049    12.000000000000
         C           -1.235379461541    -1.862177485331     1.539109376049    12.000000000000
         H           -1.064379461541    -0.132177485331     0.310109376049     1.007825032230
         H            0.089620538459    -0.184177485331     1.646109376049     1.007825032230
         H           -1.785379461541     0.238822514669     3.230109376049     1.007825032230
         H           -1.046379461541    -2.031177485331     2.603109376049     1.007825032230
         H           -2.262379461541    -2.163177485331     1.478109376049     1.007825032230
         H           -2.916309461541     0.389782514669     1.843467376049     1.007825032230
         H           -1.576579461541     1.566562514669     2.075344376049     1.007825032230
         H           -0.527919461541    -2.506647485331     0.996744376049     1.007825032230

  Running in c1 symmetry.

  Rotational constants: A =      0.13297  B =      0.03326  C =      0.03049 [cm^-1]
  Rotational constants: A =   3986.46564  B =    996.96274  C =    914.01717 [MHz]
  Nuclear repulsion =  241.066867433319828

  Charge       = 0
  Multiplicity = 1
  Electrons    = 52
  Nalpha       = 26
  Nbeta        = 26

  ==> Algorithm <==

  SCF Algorithm Type is PK.
  DIIS enabled.
  MOM disabled.
  Fractional occupation disabled.
  Guess Type is SAD.
  Energy threshold   = 1.00e-06
  Density threshold  = 1.00e-10
  Integral threshold = 0.00e+00

  ==> Primary Basis <==

  Basis Set: CC-PVDZ
    Blend: CC-PVDZ
    Number of shells: 84
    Number of basis function: 164
    Number of Cartesian functions: 170
    Spherical Harmonics?: true
    Max angular momentum: 2

  ==> Pre-Iterations <==

   -------------------------------------------------------
    Irrep   Nso     Nmo     Nalpha   Nbeta   Ndocc  Nsocc
   -------------------------------------------------------
     A        164     164       0       0       0       0
   -------------------------------------------------------
    Total     164     164      26      26      26       0
   -------------------------------------------------------

  ==> Integral Setup <==

  Using integral reordering PK algorithm.
  Sizing the integral batches needed.
  Building batch lookup table.
   Calculation information:
      Number of atoms:                  22
      Number of AO shells:              84
      Number of primitives:            212
      Number of atomic orbitals:       170
      Number of basis functions:       164

      Integral cutoff                 1.00e-12
      Number of threads:                 1

	Batch   1 pq = [       0,    9405] index = [             0,44231715] size =     44231715
	Batch   2 pq = [    9405,   13530] index = [      44231715,91537215] size =     47305500
  Task number: 9
  Buffer size: 11059200
  Buffer per thread: 2
  We computed 5606897 shell quartets total.
  Whereas there are 6374235 unique shell quartets.

  ==> DiskJK: Disk-Based J/K Matrices <==

    J tasked:                  Yes
    K tasked:                  Yes
    wK tasked:                  No
    Memory [MiB]:              375
    Schwarz Cutoff:          1E-12

    OpenMP threads:              1

  Minimum eigenvalue in the overlap matrix is 5.2938752028E-03.
  Using Symmetric Orthogonalization.

  SCF Guess: Superposition of Atomic Densities via on-the-fly atomic UHF.

  ==> Iterations <==

                        Total Energy        Delta E     RMS |[F,P]|

   @RHF iter SAD:  -235.40590453312359   -2.35406e+02   0.00000e+00
   @RHF iter   1:  -236.31076882210243   -9.04864e-01   3.50119e-03 DIIS
   @RHF iter   2:  -236.49802304784913   -1.87254e-01   1.52151e-03 DIIS
   @RHF iter   3:  -236.53153469351844   -3.35116e-02   3.05631e-04 DIIS
   @RHF iter   4:  -236.53414914171969   -2.61445e-03   5.03540e-05 DIIS
   @RHF iter   5:  -236.53420216694815   -5.30252e-05   1.40789e-05 DIIS
   @RHF iter   6:  -236.53420658353483   -4.41659e-06   2.15843e-06 DIIS
   @RHF iter   7:  -236.53420670625482   -1.22720e-07   4.18464e-07 DIIS
   @RHF iter   8:  -236.53420671193055   -5.67573e-09   8.26914e-08 DIIS
   @RHF iter   9:  -236.53420671217671   -2.46160e-10   2.13665e-08 DIIS
   @RHF iter  10:  -236.53420671219192   -1.52056e-11   6.27853e-09 DIIS
   @RHF iter  11:  -236.53420671219314   -1.22213e-12   1.43330e-09 DIIS
   @RHF iter  12:  -236.53420671219317   -2.84217e-14   3.48939e-10 DIIS
   @RHF iter  13:  -236.53420671219274    4.26326e-13   6.18433e-11 DIIS
  Energy and wave function converged.

  ==> Post-Iterations <==

    Orbital Energies [Eh]
    ---------------------

    Doubly Occupied:

       1A    -11.219926     2A    -11.218942     3A    -11.217271
       4A    -11.216491     5A    -11.215708     6A    -11.214125
       7A     -1.057066     8A     -1.052799     9A     -0.925789
      10A     -0.925435    11A     -0.801458    12A     -0.793267
      13A     -0.629474    14A     -0.623776    15A     -0.597512
      16A     -0.594224    17A     -0.557427    18A     -0.551186
      19A     -0.533506    20A     -0.522951    21A     -0.479004
      22A     -0.474955    23A     -0.471759    24A     -0.471129
      25A     -0.465734    26A     -0.453139

    Virtual:

      27A      0.163903    28A      0.193985    29A      0.205304
      30A      0.210847    31A      0.228243    32A      0.246871
      33A      0.251301    34A      0.255696    35A      0.264703
      36A      0.276617    37A      0.291161    38A      0.294891
      39A      0.299464    40A      0.312451    41A      0.324873
      42A      0.345404    43A      0.363303    44A      0.390565
      45A      0.430539    46A      0.436115    47A      0.577286
      48A      0.577609    49A      0.587543    50A      0.600850
      51A      0.612540    52A      0.614912    53A      0.623766
      54A      0.637663    55A      0.650118    56A      0.730086
      57A      0.780564    58A      0.793224    59A      0.803277
      60A      0.819451    61A      0.849859    62A      0.858790
      63A      0.868151    64A      0.882118    65A      0.885650
      66A      0.889472    67A      0.896512    68A      0.899555
      69A      0.904077    70A      0.906767    71A      0.908010
      72A      0.918043    73A      0.927332    74A      0.930647
      75A      0.950585    76A      0.959974    77A      0.981544
      78A      0.994314    79A      1.001252    80A      1.035895
      81A      1.120578    82A      1.123766    83A      1.132610
      84A      1.153969    85A      1.206877    86A      1.236081
      87A      1.365963    88A      1.379164    89A      1.463925
      90A      1.470126    91A      1.483330    92A      1.507930
      93A      1.518181    94A      1.550671    95A      1.616288
      96A      1.643567    97A      1.672863    98A      1.677851
      99A      1.683991   100A      1.692299   101A      1.697475
     102A      1.707200   103A      1.840149   104A      1.840364
     105A      1.868177   106A      1.878330   107A      1.885364
     108A      1.896842   109A      1.909261   110A      1.919408
     111A      1.936655   112A      1.941904   113A      1.948438
     114A      1.956001   115A      1.962055   116A      1.967664
     117A      1.972218   118A      1.979763   119A      1.983112
     120A      1.995743   121A      2.003017   122A      2.012760
     123A      2.021575   124A      2.035020   125A      2.045200
     126A      2.056676   127A      2.130692   128A      2.138992
     129A      2.169266   130A      2.174682   131A      2.276015
     132A      2.285716   133A      2.288867   134A      2.313110
     135A      2.324649   136A      2.331383   137A      2.349193
     138A      2.368525   139A      2.481439   140A      2.505340
     141A      2.532038   142A      2.538516   143A      2.587057
     144A      2.590801   145A      2.605255   146A      2.618406
     147A      2.627504   148A      2.636076   149A      2.748765
     150A      2.756484   151A      2.772324   152A      2.777179
     153A      2.788091   154A      2.799054   155A      2.806971
     156A      2.819892   157A      2.913741   158A      2.936673
     159A      2.949499   160A      2.966794   161A      2.976380
     162A      3.014786   163A      3.062126   164A      3.102106

    Final Occupation by Irrep:
              A
    DOCC [    26 ]

  @RHF Final Energy:  -236.53420671219274

   => Energetics <=

    Nuclear Repulsion Energy =            241.0668674333198283
    One-Electron Energy =                -794.6340419482248763
    Two-Electron Energy =                 317.0329678027122782
    Total Energy =                       -236.5342067121927130

Computation Completed

Properties will be evaluated at   0.000000,   0.000000,   0.000000 [a0]

Properties computed using the SCF density matrix

  Nuclear Dipole Moment: [e a0]
     X:    -0.0081      Y:    -0.4123      Z:     0.5173

  Electronic Dipole Moment: [e a0]
     X:    -0.0061      Y:     0.4401      Z:    -0.4931

  Dipole Moment: [e a0]
     X:    -0.0142      Y:     0.0278      Z:     0.0242     Total:     0.0395

  Dipole Moment: [D]
     X:    -0.0361      Y:     0.0707      Z:     0.0614     Total:     0.1004

*** tstop() called on ds3 at Tue Apr 28 09:28:24 2020
Module time:
	user time   =      30.14 seconds =       0.50 minutes
	system time =      12.30 seconds =       0.20 minutes
	total time  =         50 seconds =       0.83 minutes
Total time:
	user time   =      30.14 seconds =       0.50 minutes
	system time =      12.30 seconds =       0.20 minutes
	total time  =         50 seconds =       0.83 minutes
                                     G D M A

                                 by Anthony Stone

                           version 2.2.06, 22 June 2011

               Distributed Multipoles from Gaussian wavefunctions

Starting at 9:28:24 on 28 Apr 2020

Using SCF density matrix from file ./SSI/SSI-002LYS-006GLU-2-dimer.test.10510.fchk

                         Distributed Multipole Analysis

Standard DMA

Positions and radii in angstrom
Multipole moments in atomic units, ea_0^k for rank k

C          x =  0.988621  y =  0.993823  z = -1.681891 angstrom
           Maximum rank =  0   Radius =  0.650 angstrom
                   Q00  =  -0.093402

C          x =  0.753621  y = -0.273177  z = -2.505891 angstrom
           Maximum rank =  0   Radius =  0.650 angstrom
                   Q00  =  -0.244623

C          x =  2.312621  y =  1.045823  z = -0.931891 angstrom
           Maximum rank =  0   Radius =  0.650 angstrom
                   Q00  =  -0.228612

H          x =  0.926621  y =  1.856823  z = -2.348891 angstrom
           Maximum rank =  0   Radius =  0.325 angstrom
                   Q00  =   0.041916

H          x =  0.186621  y =  1.099823  z = -0.953891 angstrom
           Maximum rank =  0   Radius =  0.325 angstrom
                   Q00  =   0.048853

H          x =  0.954621  y = -1.134177  z = -1.875891 angstrom
           Maximum rank =  0   Radius =  0.325 angstrom
                   Q00  =   0.074883

H          x =  2.348621  y =  0.206823  z = -0.235891 angstrom
           Maximum rank =  0   Radius =  0.325 angstrom
                   Q00  =   0.075475

H          x =  3.138621  y =  0.959823  z = -1.638891 angstrom
           Maximum rank =  0   Radius =  0.325 angstrom
                   Q00  =   0.075456

H          x =  1.430171  y = -0.305497  z = -3.372628 angstrom
           Maximum rank =  0   Radius =  0.325 angstrom
                   Q00  =   0.080334

H          x = -0.300939  y = -0.299167  z = -2.817711 angstrom
           Maximum rank =  0   Radius =  0.325 angstrom
                   Q00  =   0.083977

H          x =  2.396761  y =  1.997963  z = -0.387505 angstrom
           Maximum rank =  0   Radius =  0.325 angstrom
                   Q00  =   0.084111

C          x = -0.943379  y = -0.380177  z =  1.357109 angstrom
           Maximum rank =  0   Radius =  0.650 angstrom
                   Q00  =  -0.069691

C          x = -1.875379  y =  0.512823  z =  2.177109 angstrom
           Maximum rank =  0   Radius =  0.650 angstrom
                   Q00  =  -0.253310

C          x = -1.235379  y = -1.862177  z =  1.539109 angstrom
           Maximum rank =  0   Radius =  0.650 angstrom
                   Q00  =  -0.227983

H          x = -1.064379  y = -0.132177  z =  0.310109 angstrom
           Maximum rank =  0   Radius =  0.325 angstrom
                   Q00  =   0.043752

H          x =  0.089621  y = -0.184177  z =  1.646109 angstrom
           Maximum rank =  0   Radius =  0.325 angstrom
                   Q00  =   0.050011

H          x = -1.785379  y =  0.238823  z =  3.230109 angstrom
           Maximum rank =  0   Radius =  0.325 angstrom
                   Q00  =   0.074943

H          x = -1.046379  y = -2.031177  z =  2.603109 angstrom
           Maximum rank =  0   Radius =  0.325 angstrom
                   Q00  =   0.059451

H          x = -2.262379  y = -2.163177  z =  1.478109 angstrom
           Maximum rank =  0   Radius =  0.325 angstrom
                   Q00  =   0.073023

H          x = -2.916309  y =  0.389783  z =  1.843467 angstrom
           Maximum rank =  0   Radius =  0.325 angstrom
                   Q00  =   0.079208

H          x = -1.576579  y =  1.566563  z =  2.075344 angstrom
           Maximum rank =  0   Radius =  0.325 angstrom
                   Q00  =   0.084245

H          x = -0.527919  y = -2.506647  z =  0.996744 angstrom
           Maximum rank =  0   Radius =  0.325 angstrom
                   Q00  =   0.087986

Total multipoles referred to origin at
           x =   0.000000,  y =    0.000000,  z =    0.000000 angstrom
                   Q00  =  -0.000000

Finished at 9:28:24 on 28 Apr 2020

  DMA results are available in the Python driver through the
	  variable('DMA DISTRIBUTED MULTIPOLES')
  and
	  variable('DMA TOTAL MULTIPOLES')
  commands.

    Psi4 stopped on: Tuesday, 28 April 2020 09:28AM
    Psi4 wall time for execution: 0:00:50.36

*** Psi4 exiting successfully. Buy a developer a beer!
