                               Psi4 1.3.2 release

  ==> Input File <==

--------------------------------------------------------------------------
import numpy as np
set {scf_type pk
basis cc-pvdz
d_convergence 10
gdma_switch   0
gdma_limit    0
gdma_origin   [ 0.0,  0.0,  0.0 ]
}
molecule test {
    units Angstrom
    0 1
    --
    0 1
    C                4.860337477675769     1.954254838720160     0.925835172548956
    C                1.347337477675770     1.143254838720160    -0.101164827451044
    C                2.576337477675769     1.808254838720160    -0.325164827451044
    C                3.473337477675770     1.447254838720160     0.728835172548956
    C                2.765337477675769     0.645254838720160     1.554835172548956
    C                0.261337477675769     1.293254838720160    -0.958164827451044
    C                0.424337477675769     2.090254838720160    -2.069164827451044
    C                1.630337477675770     2.730254838720160    -2.320164827451045
    C                2.705337477675769     2.609254838720160    -1.455164827451044
    N                1.489337477675770     0.453254838720160     1.078835172548956
    H               -0.684662522324231     0.817254838720160    -0.758164827451044
    H               -0.399662522324231     2.213254838720160    -2.757164827451045
    H                0.727337477675769     0.120254838720160     1.646835172548956
    H                1.723337477675769     3.354254838720160    -3.199164827451045
    H                3.152337477675769     0.167254838720160     2.434835172548956
    H                3.628337477675769     3.132254838720160    -1.647164827451044
    H                4.759337477675770     2.940254838720159     1.380835172548956
    H                5.316337477675768     2.107254838720160    -0.052164827451044
    H                5.537347477675770     1.364034838720160     1.560895172548956
    C               -4.484662522324230    -2.969745161279840    -1.710164827451044
    C               -1.354662522324230    -1.648745161279840    -0.021164827451044
    C               -2.231662522324231    -2.144745161279840    -0.987164827451044
    C               -1.801662522324231    -1.463745161279840     1.281835172548956
    C               -3.536662522324231    -2.459745161279840    -0.659164827451044
    C               -3.107662522324230    -1.786745161279840     1.629835172548956
    C               -3.960662522324231    -2.291745161279840     0.652835172548956
    O               -0.912662522324231    -0.975745161279840     2.189835172548956
    H               -0.335662522324231    -1.419745161279840    -0.295164827451044
    H               -1.880662522324230    -2.278745161279840    -2.003164827451044
    H               -0.019662522324231    -1.180745161279840     1.923835172548956
    H               -3.447662522324231    -1.645745161279840     2.645835172548956
    H               -5.017662522324231    -3.838745161279840    -1.320164827451044
    H               -3.909662522324231    -3.296745161279840    -2.576164827451044
    H               -4.978662522324231    -2.544745161279840     0.919835172548956
    H               -5.216364522324231    -2.206605161279840    -2.013854827451044

}
e, wfn = energy('scf', return_wfn=True)
gdma(wfn)
dmavals = variable('DMA DISTRIBUTED MULTIPOLES')
charges = np.array(dmavals)
print(charges)
np.save('SSI-063TRP-081TYR-1-dimer.npy', np.array(charges))--------------------------------------------------------------------------

*** tstart() called on ds3
*** at Tue Apr 28 09:02:42 2020

   => Loading Basis Set <=

    Name: CC-PVDZ
    Role: ORBITAL
    Keyword: BASIS
    atoms 1-9, 20-26   entry C          line   138 file /theoryfs2/ds/metcalf/miniconda2/envs/tf2gpu/share/psi4/basis/cc-pvdz.gbs
    atoms 10           entry N          line   168 file /theoryfs2/ds/metcalf/miniconda2/envs/tf2gpu/share/psi4/basis/cc-pvdz.gbs
    atoms 11-19, 28-35 entry H          line    22 file /theoryfs2/ds/metcalf/miniconda2/envs/tf2gpu/share/psi4/basis/cc-pvdz.gbs
    atoms 27           entry O          line   198 file /theoryfs2/ds/metcalf/miniconda2/envs/tf2gpu/share/psi4/basis/cc-pvdz.gbs

         ---------------------------------------------------------
                                   SCF
               by Justin Turney, Rob Parrish, Andy Simmonett
                          and Daniel G. A. Smith
                              RHF Reference
                        1 Threads,    500 MiB Core
         ---------------------------------------------------------

  ==> Geometry <==

    Molecular point group: c1
    Full point group: C1

    Geometry (in Angstrom), charge = 0, multiplicity = 1:

       Center              X                  Y                   Z               Mass
    ------------   -----------------  -----------------  -----------------  -----------------
         C            4.860337477676     1.954254838720     0.925835172549    12.000000000000
         C            1.347337477676     1.143254838720    -0.101164827451    12.000000000000
         C            2.576337477676     1.808254838720    -0.325164827451    12.000000000000
         C            3.473337477676     1.447254838720     0.728835172549    12.000000000000
         C            2.765337477676     0.645254838720     1.554835172549    12.000000000000
         C            0.261337477676     1.293254838720    -0.958164827451    12.000000000000
         C            0.424337477676     2.090254838720    -2.069164827451    12.000000000000
         C            1.630337477676     2.730254838720    -2.320164827451    12.000000000000
         C            2.705337477676     2.609254838720    -1.455164827451    12.000000000000
         N            1.489337477676     0.453254838720     1.078835172549    14.003074004430
         H           -0.684662522324     0.817254838720    -0.758164827451     1.007825032230
         H           -0.399662522324     2.213254838720    -2.757164827451     1.007825032230
         H            0.727337477676     0.120254838720     1.646835172549     1.007825032230
         H            1.723337477676     3.354254838720    -3.199164827451     1.007825032230
         H            3.152337477676     0.167254838720     2.434835172549     1.007825032230
         H            3.628337477676     3.132254838720    -1.647164827451     1.007825032230
         H            4.759337477676     2.940254838720     1.380835172549     1.007825032230
         H            5.316337477676     2.107254838720    -0.052164827451     1.007825032230
         H            5.537347477676     1.364034838720     1.560895172549     1.007825032230
         C           -4.484662522324    -2.969745161280    -1.710164827451    12.000000000000
         C           -1.354662522324    -1.648745161280    -0.021164827451    12.000000000000
         C           -2.231662522324    -2.144745161280    -0.987164827451    12.000000000000
         C           -1.801662522324    -1.463745161280     1.281835172549    12.000000000000
         C           -3.536662522324    -2.459745161280    -0.659164827451    12.000000000000
         C           -3.107662522324    -1.786745161280     1.629835172549    12.000000000000
         C           -3.960662522324    -2.291745161280     0.652835172549    12.000000000000
         O           -0.912662522324    -0.975745161280     2.189835172549    15.994914619570
         H           -0.335662522324    -1.419745161280    -0.295164827451     1.007825032230
         H           -1.880662522324    -2.278745161280    -2.003164827451     1.007825032230
         H           -0.019662522324    -1.180745161280     1.923835172549     1.007825032230
         H           -3.447662522324    -1.645745161280     2.645835172549     1.007825032230
         H           -5.017662522324    -3.838745161280    -1.320164827451     1.007825032230
         H           -3.909662522324    -3.296745161280    -2.576164827451     1.007825032230
         H           -4.978662522324    -2.544745161280     0.919835172549     1.007825032230
         H           -5.216364522324    -2.206605161280    -2.013854827451     1.007825032230

  Running in c1 symmetry.

  Rotational constants: A =      0.02817  B =      0.00640  C =      0.00545 [cm^-1]
  Rotational constants: A =    844.52594  B =    191.84889  C =    163.30105 [MHz]
  Nuclear repulsion = 1190.541572922008072

  Charge       = 0
  Multiplicity = 1
  Electrons    = 128
  Nalpha       = 64
  Nbeta        = 64

  ==> Algorithm <==

  SCF Algorithm Type is PK.
  DIIS enabled.
  MOM disabled.
  Fractional occupation disabled.
  Guess Type is SAD.
  Energy threshold   = 1.00e-06
  Density threshold  = 1.00e-10
  Integral threshold = 0.00e+00

  ==> Primary Basis <==

  Basis Set: CC-PVDZ
    Blend: CC-PVDZ
    Number of shells: 159
    Number of basis function: 337
    Number of Cartesian functions: 355
    Spherical Harmonics?: true
    Max angular momentum: 2

  ==> Pre-Iterations <==

   -------------------------------------------------------
    Irrep   Nso     Nmo     Nalpha   Nbeta   Ndocc  Nsocc
   -------------------------------------------------------
     A        337     337       0       0       0       0
   -------------------------------------------------------
    Total     337     337      64      64      64       0
   -------------------------------------------------------

  ==> Integral Setup <==

  Using integral reordering PK algorithm.
  Sizing the integral batches needed.
  Building batch lookup table.
   Calculation information:
      Number of atoms:                  35
      Number of AO shells:             159
      Number of primitives:            481
      Number of atomic orbitals:       355
      Number of basis functions:       337

      Integral cutoff                 1.00e-12
      Number of threads:                 1

	Batch   1 pq = [       0,    9405] index = [             0,44231715] size =     44231715
	Batch   2 pq = [    9405,   13301] index = [      44231715,88464951] size =     44233236
	Batch   3 pq = [   13301,   16290] index = [      88464951,132690195] size =     44225244
	Batch   4 pq = [   16290,   18810] index = [     132690195,176917455] size =     44227260
	Batch   5 pq = [   18810,   21030] index = [     176917455,221140965] size =     44223510
	Batch   6 pq = [   21030,   23037] index = [     221140965,265363203] size =     44222238
	Batch   7 pq = [   23037,   24883] index = [     265363203,309594286] size =     44231083
	Batch   8 pq = [   24883,   26601] index = [     309594286,353819901] size =     44225615
	Batch   9 pq = [   26601,   28214] index = [     353819901,398029005] size =     44209104
	Batch  10 pq = [   28214,   29740] index = [     398029005,442248670] size =     44219665
	Batch  11 pq = [   29740,   31191] index = [     442248670,486454836] size =     44206166
	Batch  12 pq = [   31191,   32578] index = [     486454836,530679331] size =     44224495
	Batch  13 pq = [   32578,   33908] index = [     530679331,574893186] size =     44213855
	Batch  14 pq = [   33908,   35188] index = [     574893186,619115266] size =     44222080
	Batch  15 pq = [   35188,   36423] index = [     619115266,663335676] size =     44220410
	Batch  16 pq = [   36423,   37617] index = [     663335676,707538153] size =     44202477
	Batch  17 pq = [   37617,   38775] index = [     707538153,751769700] size =     44231547
	Batch  18 pq = [   38775,   39899] index = [     751769700,795985050] size =     44215350
	Batch  19 pq = [   39899,   40992] index = [     795985050,840192528] size =     44207478
	Batch  20 pq = [   40992,   42057] index = [     840192528,884416653] size =     44224125
	Batch  21 pq = [   42057,   43095] index = [     884416653,928611060] size =     44194407
	Batch  22 pq = [   43095,   44109] index = [     928611060,972823995] size =     44212935
	Batch  23 pq = [   44109,   45100] index = [     972823995,1017027550] size =     44203555
	Batch  24 pq = [   45100,   46070] index = [    1017027550,1061245485] size =     44217935
	Batch  25 pq = [   46070,   47020] index = [    1061245485,1105463710] size =     44218225
	Batch  26 pq = [   47020,   47951] index = [    1105463710,1149673176] size =     44209466
	Batch  27 pq = [   47951,   48864] index = [    1149673176,1193869680] size =     44196504
	Batch  28 pq = [   48864,   49761] index = [    1193869680,1238103441] size =     44233761
	Batch  29 pq = [   49761,   50642] index = [    1238103441,1282331403] size =     44227962
	Batch  30 pq = [   50642,   51508] index = [    1282331403,1326562786] size =     44231383
	Batch  31 pq = [   51508,   52359] index = [    1326562786,1370758620] size =     44195834
	Batch  32 pq = [   52359,   53197] index = [    1370758620,1414987003] size =     44228383
	Batch  33 pq = [   53197,   54022] index = [    1414987003,1459215253] size =     44228250
	Batch  34 pq = [   54022,   54834] index = [    1459215253,1503411195] size =     44195942
	Batch  35 pq = [   54834,   55634] index = [    1503411195,1547598795] size =     44187600
	Batch  36 pq = [   55634,   56423] index = [    1547598795,1591805676] size =     44206881
	Batch  37 pq = [   56423,   56953] index = [    1591805676,1621850581] size =     30044905
  Task number: 147
  Buffer size: 11059200
  Buffer per thread: 2
  We computed 79715578 shell quartets total.
  Whereas there are 80905560 unique shell quartets.

  ==> DiskJK: Disk-Based J/K Matrices <==

    J tasked:                  Yes
    K tasked:                  Yes
    wK tasked:                  No
    Memory [MiB]:              375
    Schwarz Cutoff:          1E-12

    OpenMP threads:              1

  Minimum eigenvalue in the overlap matrix is 2.2767902168E-04.
  Using Symmetric Orthogonalization.

  SCF Guess: Superposition of Atomic Densities via on-the-fly atomic UHF.

  ==> Iterations <==

                        Total Energy        Delta E     RMS |[F,P]|

   @RHF iter SAD:  -744.68971729638690   -7.44690e+02   0.00000e+00
   @RHF iter   1:  -744.77007837881649   -8.03611e-02   2.21970e-03 DIIS
   @RHF iter   2:  -745.08528272782132   -3.15204e-01   9.93110e-04 DIIS
   @RHF iter   3:  -745.14166337472659   -5.63806e-02   2.76699e-04 DIIS
   @RHF iter   4:  -745.14728174098707   -5.61837e-03   1.23591e-04 DIIS
   @RHF iter   5:  -745.14827747466836   -9.95734e-04   1.67141e-05 DIIS
   @RHF iter   6:  -745.14831372648678   -3.62518e-05   7.87784e-06 DIIS
   @RHF iter   7:  -745.14832115195532   -7.42547e-06   2.89519e-06 DIIS
   @RHF iter   8:  -745.14832281397753   -1.66202e-06   1.11929e-06 DIIS
   @RHF iter   9:  -745.14832309458109   -2.80604e-07   4.87080e-07 DIIS
   @RHF iter  10:  -745.14832315616286   -6.15818e-08   2.25813e-07 DIIS
   @RHF iter  11:  -745.14832317295441   -1.67915e-08   9.66035e-08 DIIS
   @RHF iter  12:  -745.14832317581931   -2.86491e-09   3.86888e-08 DIIS
   @RHF iter  13:  -745.14832317617027   -3.50951e-10   1.33761e-08 DIIS
   @RHF iter  14:  -745.14832317621017   -3.99041e-11   4.67778e-09 DIIS
   @RHF iter  15:  -745.14832317621915   -8.98126e-12   1.91360e-09 DIIS
   @RHF iter  16:  -745.14832317621801    1.13687e-12   8.77072e-10 DIIS
   @RHF iter  17:  -745.14832317622393   -5.91172e-12   4.54408e-10 DIIS
   @RHF iter  18:  -745.14832317622154    2.38742e-12   1.74538e-10 DIIS
   @RHF iter  19:  -745.14832317622415   -2.61480e-12   7.33927e-11 DIIS
  Energy and wave function converged.

  ==> Post-Iterations <==

    Orbital Energies [Eh]
    ---------------------

    Doubly Occupied:

       1A    -20.599587     2A    -15.599172     3A    -11.305481
       4A    -11.264254     5A    -11.260775     6A    -11.243196
       7A    -11.242116     8A    -11.240068     9A    -11.237892
      10A    -11.237425    11A    -11.231928    12A    -11.228479
      13A    -11.228360    14A    -11.227110    15A    -11.225542
      16A    -11.220650    17A    -11.219185    18A    -11.219120
      19A     -1.422628    20A     -1.297922    21A     -1.160212
      22A     -1.133614    23A     -1.079311    24A     -1.046375
      25A     -1.024612    26A     -0.999296    27A     -0.990884
      28A     -0.938485    29A     -0.932206    30A     -0.854230
      31A     -0.841705    32A     -0.816807    33A     -0.804521
      34A     -0.756994    35A     -0.749741    36A     -0.718062
      37A     -0.678757    38A     -0.662489    39A     -0.651128
      40A     -0.644221    41A     -0.623524    42A     -0.612182
      43A     -0.599470    44A     -0.596005    45A     -0.589888
      46A     -0.587786    47A     -0.580668    48A     -0.572462
      49A     -0.569788    50A     -0.552796    51A     -0.539268
      52A     -0.531197    53A     -0.525962    54A     -0.502479
      55A     -0.495387    56A     -0.491991    57A     -0.477072
      58A     -0.474212    59A     -0.464651    60A     -0.374266
      61A     -0.343965    62A     -0.313647    63A     -0.297986
      64A     -0.278266

    Virtual:

      65A      0.120521    66A      0.126831    67A      0.148424
      68A      0.166991    69A      0.181557    70A      0.185333
      71A      0.190971    72A      0.206425    73A      0.209707
      74A      0.213878    75A      0.224600    76A      0.235189
      77A      0.244890    78A      0.256828    79A      0.263465
      80A      0.264327    81A      0.270465    82A      0.280706
      83A      0.288694    84A      0.299743    85A      0.304444
      86A      0.311492    87A      0.361017    88A      0.369699
      89A      0.371205    90A      0.390583    91A      0.404138
      92A      0.415118    93A      0.438608    94A      0.446347
      95A      0.449711    96A      0.459353    97A      0.482087
      98A      0.487592    99A      0.501101   100A      0.508079
     101A      0.513118   102A      0.531741   103A      0.591591
     104A      0.609660   105A      0.618269   106A      0.619860
     107A      0.627195   108A      0.633302   109A      0.638229
     110A      0.654482   111A      0.670194   112A      0.681804
     113A      0.690765   114A      0.696737   115A      0.700353
     116A      0.702531   117A      0.719788   118A      0.721115
     119A      0.726304   120A      0.730575   121A      0.733396
     122A      0.741514   123A      0.743119   124A      0.751122
     125A      0.752670   126A      0.764468   127A      0.771199
     128A      0.777575   129A      0.782084   130A      0.789551
     131A      0.793909   132A      0.799093   133A      0.802179
     134A      0.810232   135A      0.831833   136A      0.844402
     137A      0.847505   138A      0.853658   139A      0.860028
     140A      0.875034   141A      0.876991   142A      0.880740
     143A      0.882271   144A      0.887157   145A      0.895972
     146A      0.899470   147A      0.901537   148A      0.914310
     149A      0.918858   150A      0.931539   151A      0.937307
     152A      0.939027   153A      0.951330   154A      0.966740
     155A      0.975651   156A      0.980605   157A      0.983350
     158A      1.008457   159A      1.020149   160A      1.027521
     161A      1.046324   162A      1.050823   163A      1.065028
     164A      1.087728   165A      1.122937   166A      1.127789
     167A      1.131972   168A      1.139727   169A      1.143764
     170A      1.151687   171A      1.155650   172A      1.165908
     173A      1.176531   174A      1.207571   175A      1.213704
     176A      1.217059   177A      1.226065   178A      1.231936
     179A      1.235838   180A      1.241087   181A      1.247077
     182A      1.257024   183A      1.263856   184A      1.270203
     185A      1.289699   186A      1.294128   187A      1.304547
     188A      1.307768   189A      1.321823   190A      1.326718
     191A      1.330546   192A      1.340304   193A      1.351357
     194A      1.371615   195A      1.387239   196A      1.393035
     197A      1.408884   198A      1.443541   199A      1.454111
     200A      1.480026   201A      1.500446   202A      1.536160
     203A      1.545404   204A      1.558349   205A      1.561448
     206A      1.573985   207A      1.611848   208A      1.622251
     209A      1.628204   210A      1.638257   211A      1.657746
     212A      1.663520   213A      1.675181   214A      1.693602
     215A      1.696372   216A      1.707046   217A      1.725999
     218A      1.741623   219A      1.749991   220A      1.763020
     221A      1.774214   222A      1.781573   223A      1.790001
     224A      1.800264   225A      1.811645   226A      1.820749
     227A      1.831534   228A      1.848843   229A      1.864558
     230A      1.875820   231A      1.880198   232A      1.891179
     233A      1.898180   234A      1.905349   235A      1.911321
     236A      1.913550   237A      1.919678   238A      1.928952
     239A      1.934531   240A      1.939995   241A      1.944345
     242A      1.954616   243A      1.958651   244A      1.963679
     245A      1.973916   246A      1.989583   247A      1.992780
     248A      2.004867   249A      2.011550   250A      2.031266
     251A      2.040123   252A      2.048135   253A      2.055885
     254A      2.059147   255A      2.066011   256A      2.077668
     257A      2.084344   258A      2.089158   259A      2.116691
     260A      2.123851   261A      2.129519   262A      2.134464
     263A      2.147099   264A      2.156547   265A      2.165635
     266A      2.171217   267A      2.177849   268A      2.183549
     269A      2.199659   270A      2.202713   271A      2.231455
     272A      2.242251   273A      2.256443   274A      2.266403
     275A      2.277256   276A      2.287341   277A      2.301734
     278A      2.319623   279A      2.325396   280A      2.343510
     281A      2.346411   282A      2.353907   283A      2.373003
     284A      2.405112   285A      2.414419   286A      2.434489
     287A      2.453128   288A      2.465694   289A      2.472536
     290A      2.483469   291A      2.516977   292A      2.529715
     293A      2.533601   294A      2.565457   295A      2.597614
     296A      2.612080   297A      2.630142   298A      2.647917
     299A      2.663752   300A      2.672694   301A      2.704223
     302A      2.738476   303A      2.742521   304A      2.767181
     305A      2.773558   306A      2.774204   307A      2.785893
     308A      2.792485   309A      2.802255   310A      2.816268
     311A      2.838194   312A      2.849941   313A      2.868364
     314A      2.896813   315A      2.908732   316A      2.958722
     317A      2.971797   318A      2.999352   319A      3.033147
     320A      3.049189   321A      3.076690   322A      3.091866
     323A      3.098032   324A      3.123243   325A      3.137851
     326A      3.228725   327A      3.279026   328A      3.310554
     329A      3.333956   330A      3.381107   331A      3.394869
     332A      3.578802   333A      3.678857   334A      3.746418
     335A      3.975724   336A      3.984209   337A      4.177258

    Final Occupation by Irrep:
              A
    DOCC [    64 ]

  @RHF Final Energy:  -745.14832317622415

   => Energetics <=

    Nuclear Repulsion Energy =           1190.5415729220080721
    One-Electron Energy =               -3374.9208800866449565
    Two-Electron Energy =                1439.2309839884128451
    Total Energy =                       -745.1483231762240393

Computation Completed

Properties will be evaluated at   0.000000,   0.000000,   0.000000 [a0]

Properties computed using the SCF density matrix

  Nuclear Dipole Moment: [e a0]
     X:    -0.9893      Y:    -2.0645      Z:    -3.8451

  Electronic Dipole Moment: [e a0]
     X:     0.8704      Y:     1.4709      Z:     3.9511

  Dipole Moment: [e a0]
     X:    -0.1189      Y:    -0.5936      Z:     0.1060     Total:     0.6146

  Dipole Moment: [D]
     X:    -0.3021      Y:    -1.5087      Z:     0.2694     Total:     1.5621

*** tstop() called on ds3 at Tue Apr 28 09:29:29 2020
Module time:
	user time   =     825.09 seconds =      13.75 minutes
	system time =     294.35 seconds =       4.91 minutes
	total time  =       1607 seconds =      26.78 minutes
Total time:
	user time   =     825.09 seconds =      13.75 minutes
	system time =     294.35 seconds =       4.91 minutes
	total time  =       1607 seconds =      26.78 minutes
                                     G D M A

                                 by Anthony Stone

                           version 2.2.06, 22 June 2011

               Distributed Multipoles from Gaussian wavefunctions

Starting at 9:29:29 on 28 Apr 2020

Using SCF density matrix from file ./SSI/SSI-063TRP-081TYR-1-dimer.test.9362.fchk

                         Distributed Multipole Analysis

Standard DMA

Positions and radii in angstrom
Multipole moments in atomic units, ea_0^k for rank k

C          x =  4.860337  y =  1.954255  z =  0.925835 angstrom
           Maximum rank =  0   Radius =  0.650 angstrom
                   Q00  =  -0.217024

C          x =  1.347337  y =  1.143255  z = -0.101165 angstrom
           Maximum rank =  0   Radius =  0.650 angstrom
                   Q00  =   0.228265

C          x =  2.576337  y =  1.808255  z = -0.325165 angstrom
           Maximum rank =  0   Radius =  0.650 angstrom
                   Q00  =  -0.057414

C          x =  3.473337  y =  1.447255  z =  0.728835 angstrom
           Maximum rank =  0   Radius =  0.650 angstrom
                   Q00  =  -0.103564

C          x =  2.765337  y =  0.645255  z =  1.554835 angstrom
           Maximum rank =  0   Radius =  0.650 angstrom
                   Q00  =   0.073546

C          x =  0.261337  y =  1.293255  z = -0.958165 angstrom
           Maximum rank =  0   Radius =  0.650 angstrom
                   Q00  =  -0.131800

C          x =  0.424337  y =  2.090255  z = -2.069165 angstrom
           Maximum rank =  0   Radius =  0.650 angstrom
                   Q00  =  -0.057209

C          x =  1.630337  y =  2.730255  z = -2.320165 angstrom
           Maximum rank =  0   Radius =  0.650 angstrom
                   Q00  =  -0.045527

C          x =  2.705337  y =  2.609255  z = -1.455165 angstrom
           Maximum rank =  0   Radius =  0.650 angstrom
                   Q00  =  -0.101866

N          x =  1.489337  y =  0.453255  z =  1.078835 angstrom
           Maximum rank =  0   Radius =  0.650 angstrom
                   Q00  =  -0.489671

H          x = -0.684663  y =  0.817255  z = -0.758165 angstrom
           Maximum rank =  0   Radius =  0.325 angstrom
                   Q00  =   0.089102

H          x = -0.399663  y =  2.213255  z = -2.757165 angstrom
           Maximum rank =  0   Radius =  0.325 angstrom
                   Q00  =   0.062369

H          x =  0.727337  y =  0.120255  z =  1.646835 angstrom
           Maximum rank =  0   Radius =  0.325 angstrom
                   Q00  =   0.176911

H          x =  1.723337  y =  3.354255  z = -3.199165 angstrom
           Maximum rank =  0   Radius =  0.325 angstrom
                   Q00  =   0.057441

H          x =  3.152337  y =  0.167255  z =  2.434835 angstrom
           Maximum rank =  0   Radius =  0.325 angstrom
                   Q00  =   0.099153

H          x =  3.628337  y =  3.132255  z = -1.647165 angstrom
           Maximum rank =  0   Radius =  0.325 angstrom
                   Q00  =   0.067886

H          x =  4.759337  y =  2.940255  z =  1.380835 angstrom
           Maximum rank =  0   Radius =  0.325 angstrom
                   Q00  =   0.098029

H          x =  5.316337  y =  2.107255  z = -0.052165 angstrom
           Maximum rank =  0   Radius =  0.325 angstrom
                   Q00  =   0.102559

H          x =  5.537347  y =  1.364035  z =  1.560895 angstrom
           Maximum rank =  0   Radius =  0.325 angstrom
                   Q00  =   0.109408

C          x = -4.484663  y = -2.969745  z = -1.710165 angstrom
           Maximum rank =  0   Radius =  0.650 angstrom
                   Q00  =  -0.193589

C          x = -1.354663  y = -1.648745  z = -0.021165 angstrom
           Maximum rank =  0   Radius =  0.650 angstrom
                   Q00  =  -0.180583

C          x = -2.231663  y = -2.144745  z = -0.987165 angstrom
           Maximum rank =  0   Radius =  0.650 angstrom
                   Q00  =  -0.016554

C          x = -1.801663  y = -1.463745  z =  1.281835 angstrom
           Maximum rank =  0   Radius =  0.650 angstrom
                   Q00  =   0.236527

C          x = -3.536663  y = -2.459745  z = -0.659165 angstrom
           Maximum rank =  0   Radius =  0.650 angstrom
                   Q00  =  -0.129341

C          x = -3.107663  y = -1.786745  z =  1.629835 angstrom
           Maximum rank =  0   Radius =  0.650 angstrom
                   Q00  =  -0.115828

C          x = -3.960663  y = -2.291745  z =  0.652835 angstrom
           Maximum rank =  0   Radius =  0.650 angstrom
                   Q00  =   0.036589

O          x = -0.912663  y = -0.975745  z =  2.189835 angstrom
           Maximum rank =  0   Radius =  0.650 angstrom
                   Q00  =  -0.577118

H          x = -0.335663  y = -1.419745  z = -0.295165 angstrom
           Maximum rank =  0   Radius =  0.325 angstrom
                   Q00  =   0.082138

H          x = -1.880663  y = -2.278745  z = -2.003165 angstrom
           Maximum rank =  0   Radius =  0.325 angstrom
                   Q00  =   0.073022

H          x = -0.019663  y = -1.180745  z =  1.923835 angstrom
           Maximum rank =  0   Radius =  0.325 angstrom
                   Q00  =   0.380361

H          x = -3.447663  y = -1.645745  z =  2.645835 angstrom
           Maximum rank =  0   Radius =  0.325 angstrom
                   Q00  =   0.083597

H          x = -5.017663  y = -3.838745  z = -1.320165 angstrom
           Maximum rank =  0   Radius =  0.325 angstrom
                   Q00  =   0.097237

H          x = -3.909663  y = -3.296745  z = -2.576165 angstrom
           Maximum rank =  0   Radius =  0.325 angstrom
                   Q00  =   0.097461

H          x = -4.978663  y = -2.544745  z =  0.919835 angstrom
           Maximum rank =  0   Radius =  0.325 angstrom
                   Q00  =   0.063273

H          x = -5.216365  y = -2.206605  z = -2.013855 angstrom
           Maximum rank =  0   Radius =  0.325 angstrom
                   Q00  =   0.102213

Total multipoles referred to origin at
           x =   0.000000,  y =    0.000000,  z =    0.000000 angstrom
                   Q00  =  -0.000000

Finished at 9:29:29 on 28 Apr 2020

  DMA results are available in the Python driver through the
	  variable('DMA DISTRIBUTED MULTIPOLES')
  and
	  variable('DMA TOTAL MULTIPOLES')
  commands.

    Psi4 stopped on: Tuesday, 28 April 2020 09:29AM
    Psi4 wall time for execution: 0:26:47.49

*** Psi4 exiting successfully. Buy a developer a beer!
