                               Psi4 1.3.2 release

  ==> Input File <==

--------------------------------------------------------------------------
import numpy as np
set {scf_type pk
basis cc-pvdz
d_convergence 10
gdma_switch   0
gdma_limit    0
gdma_origin   [ 0.0,  0.0,  0.0 ]
}
molecule test {
    units Angstrom
    0 1
    --
    0 1
    C               -2.005387638287176     3.068287964835879     0.744452301311880
    C               -0.646387638287176    -0.011712035164121    -0.895547698688120
    C               -0.728387638287176     1.182287964835879    -0.222547698688120
    C               -1.808387638287176    -0.723712035164121    -1.221547698688120
    C               -1.954387638287176     1.711287964835879     0.155452301311880
    C               -3.069387638287177    -0.205712035164121    -0.842547698688120
    C               -3.125387638287176     1.013287964835879    -0.147547698688120
    H                0.308612361712824    -0.365712035164121    -1.243547698688120
    H                0.178612361712824     1.737287964835879    -0.024547698688120
    H               -1.745387638287176    -1.651712035164121    -1.774547698688120
    H               -3.979387638287177    -0.734712035164121    -1.093547698688120
    H               -1.064387638287176     3.279287964835880     1.254452301311880
    H               -2.796387638287176     3.104287964835879     1.492452301311880
    H               -4.089387638287176     1.429287964835879     0.105452301311880
    H               -2.190961638287177     3.839243964835879    -0.017905698688120
    C                2.709612361712824    -1.431712035164121     0.311452301311880
    C                3.895612361712824    -0.803712035164121    -0.463547698688120
    C                3.000612361712824    -2.916712035164120     0.661452301311880
    C                2.446612361712823    -0.571712035164121     1.561452301311880
    H                1.828612361712824    -1.420712035164121    -0.320547698688120
    H                4.780612361712824    -0.819712035164121     0.176452301311880
    H                3.902612361712824    -2.992712035164121     1.272452301311880
    H                2.166612361712823    -3.346712035164121     1.214452301311880
    H                3.112612361712824    -3.523712035164120    -0.236547698688120
    H                3.328612361712824    -0.564712035164121     2.203452301311879
    H                2.218612361712823     0.453287964835879     1.271452301311880
    H                3.658492361712824     0.223072964835879    -0.778960698688120
    H                4.104022361712824    -1.404175035164121    -1.361327698688120
    H                1.581292361712824    -0.934286035164121     2.135707301311879

}
e, wfn = energy('scf', return_wfn=True)
gdma(wfn)
dmavals = variable('DMA DISTRIBUTED MULTIPOLES')
charges = np.array(dmavals)
print(charges)
np.save('SSI-097PHE-183ILE-1-dimer.npy', np.array(charges))--------------------------------------------------------------------------

*** tstart() called on ds3
*** at Tue Apr 28 14:00:35 2020

   => Loading Basis Set <=

    Name: CC-PVDZ
    Role: ORBITAL
    Keyword: BASIS
    atoms 1-7, 16-19  entry C          line   138 file /theoryfs2/ds/metcalf/miniconda2/envs/tf2gpu/share/psi4/basis/cc-pvdz.gbs
    atoms 8-15, 20-29 entry H          line    22 file /theoryfs2/ds/metcalf/miniconda2/envs/tf2gpu/share/psi4/basis/cc-pvdz.gbs

         ---------------------------------------------------------
                                   SCF
               by Justin Turney, Rob Parrish, Andy Simmonett
                          and Daniel G. A. Smith
                              RHF Reference
                        1 Threads,    500 MiB Core
         ---------------------------------------------------------

  ==> Geometry <==

    Molecular point group: c1
    Full point group: C1

    Geometry (in Angstrom), charge = 0, multiplicity = 1:

       Center              X                  Y                   Z               Mass
    ------------   -----------------  -----------------  -----------------  -----------------
         C           -2.005387638287     3.068287964836     0.744452301312    12.000000000000
         C           -0.646387638287    -0.011712035164    -0.895547698688    12.000000000000
         C           -0.728387638287     1.182287964836    -0.222547698688    12.000000000000
         C           -1.808387638287    -0.723712035164    -1.221547698688    12.000000000000
         C           -1.954387638287     1.711287964836     0.155452301312    12.000000000000
         C           -3.069387638287    -0.205712035164    -0.842547698688    12.000000000000
         C           -3.125387638287     1.013287964836    -0.147547698688    12.000000000000
         H            0.308612361713    -0.365712035164    -1.243547698688     1.007825032230
         H            0.178612361713     1.737287964836    -0.024547698688     1.007825032230
         H           -1.745387638287    -1.651712035164    -1.774547698688     1.007825032230
         H           -3.979387638287    -0.734712035164    -1.093547698688     1.007825032230
         H           -1.064387638287     3.279287964836     1.254452301312     1.007825032230
         H           -2.796387638287     3.104287964836     1.492452301312     1.007825032230
         H           -4.089387638287     1.429287964836     0.105452301312     1.007825032230
         H           -2.190961638287     3.839243964836    -0.017905698688     1.007825032230
         C            2.709612361713    -1.431712035164     0.311452301312    12.000000000000
         C            3.895612361713    -0.803712035164    -0.463547698688    12.000000000000
         C            3.000612361713    -2.916712035164     0.661452301312    12.000000000000
         C            2.446612361713    -0.571712035164     1.561452301312    12.000000000000
         H            1.828612361713    -1.420712035164    -0.320547698688     1.007825032230
         H            4.780612361713    -0.819712035164     0.176452301312     1.007825032230
         H            3.902612361713    -2.992712035164     1.272452301312     1.007825032230
         H            2.166612361713    -3.346712035164     1.214452301312     1.007825032230
         H            3.112612361713    -3.523712035164    -0.236547698688     1.007825032230
         H            3.328612361713    -0.564712035164     2.203452301312     1.007825032230
         H            2.218612361713     0.453287964836     1.271452301312     1.007825032230
         H            3.658492361713     0.223072964836    -0.778960698688     1.007825032230
         H            4.104022361713    -1.404175035164    -1.361327698688     1.007825032230
         H            1.581292361713    -0.934286035164     2.135707301312     1.007825032230

  Running in c1 symmetry.

  Rotational constants: A =      0.05787  B =      0.01328  C =      0.01180 [cm^-1]
  Rotational constants: A =   1734.99493  B =    398.11147  C =    353.90202 [MHz]
  Nuclear repulsion =  563.861223330653843

  Charge       = 0
  Multiplicity = 1
  Electrons    = 84
  Nalpha       = 42
  Nbeta        = 42

  ==> Algorithm <==

  SCF Algorithm Type is PK.
  DIIS enabled.
  MOM disabled.
  Fractional occupation disabled.
  Guess Type is SAD.
  Energy threshold   = 1.00e-06
  Density threshold  = 1.00e-10
  Integral threshold = 0.00e+00

  ==> Primary Basis <==

  Basis Set: CC-PVDZ
    Blend: CC-PVDZ
    Number of shells: 120
    Number of basis function: 244
    Number of Cartesian functions: 255
    Spherical Harmonics?: true
    Max angular momentum: 2

  ==> Pre-Iterations <==

   -------------------------------------------------------
    Irrep   Nso     Nmo     Nalpha   Nbeta   Ndocc  Nsocc
   -------------------------------------------------------
     A        244     244       0       0       0       0
   -------------------------------------------------------
    Total     244     244      42      42      42       0
   -------------------------------------------------------

  ==> Integral Setup <==

  Using integral reordering PK algorithm.
  Sizing the integral batches needed.
  Building batch lookup table.
   Calculation information:
      Number of atoms:                  29
      Number of AO shells:             120
      Number of primitives:            332
      Number of atomic orbitals:       255
      Number of basis functions:       244

      Integral cutoff                 1.00e-12
      Number of threads:                 1

	Batch   1 pq = [       0,    9405] index = [             0,44231715] size =     44231715
	Batch   2 pq = [    9405,   13301] index = [      44231715,88464951] size =     44233236
	Batch   3 pq = [   13301,   16290] index = [      88464951,132690195] size =     44225244
	Batch   4 pq = [   16290,   18810] index = [     132690195,176917455] size =     44227260
	Batch   5 pq = [   18810,   21030] index = [     176917455,221140965] size =     44223510
	Batch   6 pq = [   21030,   23037] index = [     221140965,265363203] size =     44222238
	Batch   7 pq = [   23037,   24883] index = [     265363203,309594286] size =     44231083
	Batch   8 pq = [   24883,   26601] index = [     309594286,353819901] size =     44225615
	Batch   9 pq = [   26601,   28214] index = [     353819901,398029005] size =     44209104
	Batch  10 pq = [   28214,   29740] index = [     398029005,442248670] size =     44219665
	Batch  11 pq = [   29740,   29890] index = [     442248670,446720995] size =      4472325
  Task number: 41
  Buffer size: 11059200
  Buffer per thread: 2
  We computed 23057093 shell quartets total.
  Whereas there are 26357430 unique shell quartets.

  ==> DiskJK: Disk-Based J/K Matrices <==

    J tasked:                  Yes
    K tasked:                  Yes
    wK tasked:                  No
    Memory [MiB]:              375
    Schwarz Cutoff:          1E-12

    OpenMP threads:              1

  Minimum eigenvalue in the overlap matrix is 3.1774779477E-04.
  Using Symmetric Orthogonalization.

  SCF Guess: Superposition of Atomic Densities via on-the-fly atomic UHF.

  ==> Iterations <==

                        Total Energy        Delta E     RMS |[F,P]|

   @RHF iter SAD:  -425.84706021413842   -4.25847e+02   0.00000e+00
   @RHF iter   1:  -426.77352279354068   -9.26463e-01   2.63060e-03 DIIS
   @RHF iter   2:  -427.02085576336748   -2.47333e-01   1.10902e-03 DIIS
   @RHF iter   3:  -427.06060076796689   -3.97450e-02   2.46852e-04 DIIS
   @RHF iter   4:  -427.06387496499491   -3.27420e-03   6.55750e-05 DIIS
   @RHF iter   5:  -427.06403331170941   -1.58347e-04   1.71024e-05 DIIS
   @RHF iter   6:  -427.06404449485836   -1.11831e-05   5.23161e-06 DIIS
   @RHF iter   7:  -427.06404564936639   -1.15451e-06   1.08376e-06 DIIS
   @RHF iter   8:  -427.06404571029998   -6.09336e-08   2.64904e-07 DIIS
   @RHF iter   9:  -427.06404571561887   -5.31890e-09   9.21611e-08 DIIS
   @RHF iter  10:  -427.06404571616190   -5.43025e-10   3.53564e-08 DIIS
   @RHF iter  11:  -427.06404571626075   -9.88507e-11   1.36356e-08 DIIS
   @RHF iter  12:  -427.06404571627792   -1.71667e-11   5.63642e-09 DIIS
   @RHF iter  13:  -427.06404571628644   -8.52651e-12   2.90613e-09 DIIS
   @RHF iter  14:  -427.06404571628690   -4.54747e-13   1.02046e-09 DIIS
   @RHF iter  15:  -427.06404571628912   -2.21689e-12   2.84704e-10 DIIS
   @RHF iter  16:  -427.06404571628747    1.64846e-12   1.01325e-10 DIIS
   @RHF iter  17:  -427.06404571628934   -1.87583e-12   3.54355e-11 DIIS
  Energy and wave function converged.

  ==> Post-Iterations <==

    Orbital Energies [Eh]
    ---------------------

    Doubly Occupied:

       1A    -11.240554     2A    -11.238252     3A    -11.235407
       4A    -11.233245     5A    -11.232324     6A    -11.227169
       7A    -11.227091     8A    -11.226981     9A    -11.217657
      10A    -11.215201    11A    -11.214120    12A     -1.152410
      13A     -1.073480    14A     -1.045541    15A     -1.012843
      16A     -0.930208    17A     -0.926154    18A     -0.920376
      19A     -0.823869    20A     -0.796882    21A     -0.765697
      22A     -0.689870    23A     -0.634753    24A     -0.631517
      25A     -0.627428    26A     -0.585727    27A     -0.582815
      28A     -0.579933    29A     -0.579325    30A     -0.563000
      31A     -0.536679    32A     -0.533484    33A     -0.532828
      34A     -0.505897    35A     -0.487303    36A     -0.484877
      37A     -0.483178    38A     -0.461481    39A     -0.455968
      40A     -0.450376    41A     -0.333423    42A     -0.318683

    Virtual:

      43A      0.134463    44A      0.136723    45A      0.165007
      46A      0.191867    47A      0.202690    48A      0.210712
      49A      0.223347    50A      0.231660    51A      0.240972
      52A      0.249224    53A      0.256082    54A      0.259735
      55A      0.266307    56A      0.273985    57A      0.283013
      58A      0.302331    59A      0.307638    60A      0.317187
      61A      0.338731    62A      0.342459    63A      0.363154
      64A      0.376872    65A      0.390863    66A      0.406103
      67A      0.410233    68A      0.452722    69A      0.458665
      70A      0.484911    71A      0.485633    72A      0.554838
      73A      0.564529    74A      0.571655    75A      0.591296
      76A      0.605282    77A      0.617947    78A      0.636978
      79A      0.649049    80A      0.678925    81A      0.684854
      82A      0.704126    83A      0.713632    84A      0.733421
      85A      0.740028    86A      0.744085    87A      0.752537
      88A      0.762075    89A      0.768705    90A      0.772991
      91A      0.784933    92A      0.789502    93A      0.804708
      94A      0.827954    95A      0.839929    96A      0.851858
      97A      0.852877    98A      0.862937    99A      0.875151
     100A      0.878044   101A      0.884274   102A      0.888088
     103A      0.891468   104A      0.901953   105A      0.903528
     106A      0.911870   107A      0.917089   108A      0.923839
     109A      0.933800   110A      0.939424   111A      0.942075
     112A      0.947466   113A      0.962652   114A      0.966257
     115A      0.975638   116A      0.994675   117A      1.001771
     118A      1.031652   119A      1.040294   120A      1.069668
     121A      1.112063   122A      1.123985   123A      1.134987
     124A      1.138689   125A      1.155217   126A      1.162650
     127A      1.192550   128A      1.198231   129A      1.235695
     130A      1.239419   131A      1.254455   132A      1.269117
     133A      1.305018   134A      1.307388   135A      1.313165
     136A      1.331895   137A      1.361609   138A      1.403574
     139A      1.407963   140A      1.420084   141A      1.509126
     142A      1.523233   143A      1.532972   144A      1.557504
     145A      1.576030   146A      1.603994   147A      1.665585
     148A      1.666713   149A      1.671282   150A      1.685464
     151A      1.693191   152A      1.696079   153A      1.701709
     154A      1.709929   155A      1.719644   156A      1.733454
     157A      1.739351   158A      1.756320   159A      1.791898
     160A      1.809776   161A      1.840013   162A      1.844031
     163A      1.853800   164A      1.860303   165A      1.883494
     166A      1.903164   167A      1.909709   168A      1.914942
     169A      1.917896   170A      1.928366   171A      1.934018
     172A      1.940133   173A      1.945438   174A      1.948289
     175A      1.968439   176A      1.972326   177A      1.974935
     178A      1.979988   179A      1.990379   180A      1.996841
     181A      2.006527   182A      2.015220   183A      2.033671
     184A      2.051564   185A      2.063829   186A      2.077947
     187A      2.090882   188A      2.098867   189A      2.103158
     190A      2.107053   191A      2.130513   192A      2.141077
     193A      2.156331   194A      2.160490   195A      2.167655
     196A      2.189217   197A      2.248433   198A      2.252990
     199A      2.259671   200A      2.284439   201A      2.291467
     202A      2.299211   203A      2.301846   204A      2.319099
     205A      2.327272   206A      2.331843   207A      2.340138
     208A      2.363199   209A      2.368983   210A      2.457492
     211A      2.478115   212A      2.494201   213A      2.505514
     214A      2.541078   215A      2.578478   216A      2.601246
     217A      2.615839   218A      2.634591   219A      2.701042
     220A      2.705702   221A      2.741880   222A      2.749803
     223A      2.751587   224A      2.769928   225A      2.782688
     226A      2.785497   227A      2.789265   228A      2.793627
     229A      2.819248   230A      2.830321   231A      2.839901
     232A      2.842663   233A      2.851176   234A      2.877117
     235A      2.978142   236A      3.002054   237A      3.013585
     238A      3.019800   239A      3.025529   240A      3.128176
     241A      3.158675   242A      3.203300   243A      3.294700
     244A      3.958387

    Final Occupation by Irrep:
              A
    DOCC [    42 ]

  @RHF Final Energy:  -427.06404571628934

   => Energetics <=

    Nuclear Repulsion Energy =            563.8612233306538428
    One-Electron Energy =               -1693.8225282016187521
    Two-Electron Energy =                 702.8972591546754529
    Total Energy =                       -427.0640457162893426

Computation Completed

Properties will be evaluated at   0.000000,   0.000000,   0.000000 [a0]

Properties computed using the SCF density matrix

  Nuclear Dipole Moment: [e a0]
     X:    14.3465      Y:    -3.4622      Z:     4.0075

  Electronic Dipole Moment: [e a0]
     X:   -14.4425      Y:     3.6017      Z:    -4.0274

  Dipole Moment: [e a0]
     X:    -0.0960      Y:     0.1395      Z:    -0.0199     Total:     0.1705

  Dipole Moment: [D]
     X:    -0.2440      Y:     0.3545      Z:    -0.0505     Total:     0.4333

*** tstop() called on ds3 at Tue Apr 28 14:04:23 2020
Module time:
	user time   =     166.97 seconds =       2.78 minutes
	system time =      66.99 seconds =       1.12 minutes
	total time  =        228 seconds =       3.80 minutes
Total time:
	user time   =     166.97 seconds =       2.78 minutes
	system time =      66.99 seconds =       1.12 minutes
	total time  =        228 seconds =       3.80 minutes
                                     G D M A

                                 by Anthony Stone

                           version 2.2.06, 22 June 2011

               Distributed Multipoles from Gaussian wavefunctions

Starting at 14:4:23 on 28 Apr 2020

Using SCF density matrix from file ./SSI/SSI-097PHE-183ILE-1-dimer.test.13386.fchk

                         Distributed Multipole Analysis

Standard DMA

Positions and radii in angstrom
Multipole moments in atomic units, ea_0^k for rank k

C          x = -2.005388  y =  3.068288  z =  0.744452 angstrom
           Maximum rank =  0   Radius =  0.650 angstrom
                   Q00  =  -0.199271

C          x = -0.646388  y = -0.011712  z = -0.895548 angstrom
           Maximum rank =  0   Radius =  0.650 angstrom
                   Q00  =  -0.071579

C          x = -0.728388  y =  1.182288  z = -0.222548 angstrom
           Maximum rank =  0   Radius =  0.650 angstrom
                   Q00  =  -0.010363

C          x = -1.808388  y = -0.723712  z = -1.221548 angstrom
           Maximum rank =  0   Radius =  0.650 angstrom
                   Q00  =  -0.097370

C          x = -1.954388  y =  1.711288  z =  0.155452 angstrom
           Maximum rank =  0   Radius =  0.650 angstrom
                   Q00  =  -0.090444

C          x = -3.069388  y = -0.205712  z = -0.842548 angstrom
           Maximum rank =  0   Radius =  0.650 angstrom
                   Q00  =  -0.073592

C          x = -3.125388  y =  1.013288  z = -0.147548 angstrom
           Maximum rank =  0   Radius =  0.650 angstrom
                   Q00  =  -0.064749

H          x =  0.308612  y = -0.365712  z = -1.243548 angstrom
           Maximum rank =  0   Radius =  0.325 angstrom
                   Q00  =   0.065022

H          x =  0.178612  y =  1.737288  z = -0.024548 angstrom
           Maximum rank =  0   Radius =  0.325 angstrom
                   Q00  =   0.053659

H          x = -1.745388  y = -1.651712  z = -1.774548 angstrom
           Maximum rank =  0   Radius =  0.325 angstrom
                   Q00  =   0.065054

H          x = -3.979388  y = -0.734712  z = -1.093548 angstrom
           Maximum rank =  0   Radius =  0.325 angstrom
                   Q00  =   0.070027

H          x = -1.064388  y =  3.279288  z =  1.254452 angstrom
           Maximum rank =  0   Radius =  0.325 angstrom
                   Q00  =   0.095973

H          x = -2.796388  y =  3.104288  z =  1.492452 angstrom
           Maximum rank =  0   Radius =  0.325 angstrom
                   Q00  =   0.097623

H          x = -4.089388  y =  1.429288  z =  0.105452 angstrom
           Maximum rank =  0   Radius =  0.325 angstrom
                   Q00  =   0.057360

H          x = -2.190962  y =  3.839244  z = -0.017906 angstrom
           Maximum rank =  0   Radius =  0.325 angstrom
                   Q00  =   0.103653

C          x =  2.709612  y = -1.431712  z =  0.311452 angstrom
           Maximum rank =  0   Radius =  0.650 angstrom
                   Q00  =   0.010161

C          x =  3.895612  y = -0.803712  z = -0.463548 angstrom
           Maximum rank =  0   Radius =  0.650 angstrom
                   Q00  =  -0.235975

C          x =  3.000612  y = -2.916712  z =  0.661452 angstrom
           Maximum rank =  0   Radius =  0.650 angstrom
                   Q00  =  -0.265212

C          x =  2.446612  y = -0.571712  z =  1.561452 angstrom
           Maximum rank =  0   Radius =  0.650 angstrom
                   Q00  =  -0.252475

H          x =  1.828612  y = -1.420712  z = -0.320548 angstrom
           Maximum rank =  0   Radius =  0.325 angstrom
                   Q00  =   0.014700

H          x =  4.780612  y = -0.819712  z =  0.176452 angstrom
           Maximum rank =  0   Radius =  0.325 angstrom
                   Q00  =   0.079805

H          x =  3.902612  y = -2.992712  z =  1.272452 angstrom
           Maximum rank =  0   Radius =  0.325 angstrom
                   Q00  =   0.077373

H          x =  2.166612  y = -3.346712  z =  1.214452 angstrom
           Maximum rank =  0   Radius =  0.325 angstrom
                   Q00  =   0.085191

H          x =  3.112612  y = -3.523712  z = -0.236548 angstrom
           Maximum rank =  0   Radius =  0.325 angstrom
                   Q00  =   0.083962

H          x =  3.328612  y = -0.564712  z =  2.203452 angstrom
           Maximum rank =  0   Radius =  0.325 angstrom
                   Q00  =   0.077019

H          x =  2.218612  y =  0.453288  z =  1.271452 angstrom
           Maximum rank =  0   Radius =  0.325 angstrom
                   Q00  =   0.079691

H          x =  3.658492  y =  0.223073  z = -0.778961 angstrom
           Maximum rank =  0   Radius =  0.325 angstrom
                   Q00  =   0.080636

H          x =  4.104022  y = -1.404175  z = -1.361328 angstrom
           Maximum rank =  0   Radius =  0.325 angstrom
                   Q00  =   0.078442

H          x =  1.581292  y = -0.934286  z =  2.135707 angstrom
           Maximum rank =  0   Radius =  0.325 angstrom
                   Q00  =   0.085679

Total multipoles referred to origin at
           x =   0.000000,  y =    0.000000,  z =    0.000000 angstrom
                   Q00  =  -0.000000

Finished at 14:4:23 on 28 Apr 2020

  DMA results are available in the Python driver through the
	  variable('DMA DISTRIBUTED MULTIPOLES')
  and
	  variable('DMA TOTAL MULTIPOLES')
  commands.

    Psi4 stopped on: Tuesday, 28 April 2020 02:04PM
    Psi4 wall time for execution: 0:03:47.77

*** Psi4 exiting successfully. Buy a developer a beer!
