                               Psi4 1.3.2 release

  ==> Input File <==

--------------------------------------------------------------------------
import numpy as np
set {scf_type pk
basis cc-pvdz
d_convergence 10
gdma_switch   0
gdma_limit    0
gdma_origin   [ 0.0,  0.0,  0.0 ]
}
molecule test {
    units Angstrom
    0 1
    --
    0 1
    C               -1.606146545763485     1.865377888940393    -4.731379869117324
    C               -1.392146545763485     0.723377888940393    -0.588379869117324
    C               -1.344146545763485    -0.249622111059607    -1.579379869117325
    C               -1.482146545763485     2.068377888940393    -0.931379869117325
    C               -1.408146545763485     0.125377888940393    -2.930379869117325
    C               -1.557146545763485     2.429377888940393    -2.277379869117325
    C               -1.522146545763485     1.465377888940393    -3.281379869117325
    O               -1.303146545763485     0.330377888940393     0.695620130882675
    H               -1.215146545763485    -0.616622111059607     0.771620130882676
    H               -1.282146545763485    -1.288622111059607    -1.312379869117325
    H               -1.506146545763485     2.814377888940393    -0.152379869117325
    H               -1.385146545763485    -0.636622111059607    -3.699379869117325
    H               -1.630146545763485     3.474377888940392    -2.544379869117325
    H               -1.383146545763485     1.004377888940393    -5.363379869117325
    H               -0.861146545763485     2.631377888940392    -4.925379869117324
    H               -2.604820545763485     2.252264788940393    -4.982309869117325
    C                1.549853454236515     0.716377888940393     2.985620130882675
    C                1.295853454236515    -1.460622111059607     1.589620130882675
    C                1.771853454236515    -0.722622111059607     2.629620130882675
    C                2.528853454236514    -2.770622111059607     2.848620130882676
    N                1.800853454236515    -2.734622111059607     1.738620130882676
    N                2.535853454236515    -1.566622111059607     3.412620130882675
    H                0.710853454236515    -1.093622111059607     0.763620130882675
    H                1.663853454236515    -3.528622111059607     1.111620130882676
    H                1.218853454236515     1.229377888940393     2.083620130882676
    H                2.495853454236515     1.155377888940393     3.295620130882675
    H                3.092853454236514    -3.625622111059607     3.168620130882676
    H                0.804135454236515     0.856378588940393     3.782050130882675

}
e, wfn = energy('scf', return_wfn=True)
gdma(wfn)
dmavals = variable('DMA DISTRIBUTED MULTIPOLES')
charges = np.array(dmavals)
print(charges)
np.save('SSI-047TYR-077HIE-1-dimer.npy', np.array(charges))--------------------------------------------------------------------------

*** tstart() called on ds3
*** at Mon Apr 27 14:02:28 2020

   => Loading Basis Set <=

    Name: CC-PVDZ
    Role: ORBITAL
    Keyword: BASIS
    atoms 1-7, 17-20  entry C          line   138 file /theoryfs2/ds/metcalf/miniconda2/envs/tf2gpu/share/psi4/basis/cc-pvdz.gbs
    atoms 8           entry O          line   198 file /theoryfs2/ds/metcalf/miniconda2/envs/tf2gpu/share/psi4/basis/cc-pvdz.gbs
    atoms 9-16, 23-28 entry H          line    22 file /theoryfs2/ds/metcalf/miniconda2/envs/tf2gpu/share/psi4/basis/cc-pvdz.gbs
    atoms 21-22       entry N          line   168 file /theoryfs2/ds/metcalf/miniconda2/envs/tf2gpu/share/psi4/basis/cc-pvdz.gbs

         ---------------------------------------------------------
                                   SCF
               by Justin Turney, Rob Parrish, Andy Simmonett
                          and Daniel G. A. Smith
                              RHF Reference
                        1 Threads,    500 MiB Core
         ---------------------------------------------------------

  ==> Geometry <==

    Molecular point group: c1
    Full point group: C1

    Geometry (in Angstrom), charge = 0, multiplicity = 1:

       Center              X                  Y                   Z               Mass
    ------------   -----------------  -----------------  -----------------  -----------------
         C           -1.606146545763     1.865377888940    -4.731379869117    12.000000000000
         C           -1.392146545763     0.723377888940    -0.588379869117    12.000000000000
         C           -1.344146545763    -0.249622111060    -1.579379869117    12.000000000000
         C           -1.482146545763     2.068377888940    -0.931379869117    12.000000000000
         C           -1.408146545763     0.125377888940    -2.930379869117    12.000000000000
         C           -1.557146545763     2.429377888940    -2.277379869117    12.000000000000
         C           -1.522146545763     1.465377888940    -3.281379869117    12.000000000000
         O           -1.303146545763     0.330377888940     0.695620130883    15.994914619570
         H           -1.215146545763    -0.616622111060     0.771620130883     1.007825032230
         H           -1.282146545763    -1.288622111060    -1.312379869117     1.007825032230
         H           -1.506146545763     2.814377888940    -0.152379869117     1.007825032230
         H           -1.385146545763    -0.636622111060    -3.699379869117     1.007825032230
         H           -1.630146545763     3.474377888940    -2.544379869117     1.007825032230
         H           -1.383146545763     1.004377888940    -5.363379869117     1.007825032230
         H           -0.861146545763     2.631377888940    -4.925379869117     1.007825032230
         H           -2.604820545763     2.252264788940    -4.982309869117     1.007825032230
         C            1.549853454237     0.716377888940     2.985620130883    12.000000000000
         C            1.295853454237    -1.460622111060     1.589620130883    12.000000000000
         C            1.771853454237    -0.722622111060     2.629620130883    12.000000000000
         C            2.528853454237    -2.770622111060     2.848620130883    12.000000000000
         N            1.800853454237    -2.734622111060     1.738620130883    14.003074004430
         N            2.535853454237    -1.566622111060     3.412620130883    14.003074004430
         H            0.710853454237    -1.093622111060     0.763620130883     1.007825032230
         H            1.663853454237    -3.528622111060     1.111620130883     1.007825032230
         H            1.218853454237     1.229377888940     2.083620130883     1.007825032230
         H            2.495853454237     1.155377888940     3.295620130883     1.007825032230
         H            3.092853454237    -3.625622111060     3.168620130883     1.007825032230
         H            0.804135454237     0.856378588940     3.782050130883     1.007825032230

  Running in c1 symmetry.

  Rotational constants: A =      0.05390  B =      0.00794  C =      0.00735 [cm^-1]
  Rotational constants: A =   1615.80198  B =    237.88734  C =    220.35933 [MHz]
  Nuclear repulsion =  795.937369618288017

  Charge       = 0
  Multiplicity = 1
  Electrons    = 102
  Nalpha       = 51
  Nbeta        = 51

  ==> Algorithm <==

  SCF Algorithm Type is PK.
  DIIS enabled.
  MOM disabled.
  Fractional occupation disabled.
  Guess Type is SAD.
  Energy threshold   = 1.00e-06
  Density threshold  = 1.00e-10
  Integral threshold = 0.00e+00

  ==> Primary Basis <==

  Basis Set: CC-PVDZ
    Blend: CC-PVDZ
    Number of shells: 126
    Number of basis function: 266
    Number of Cartesian functions: 280
    Spherical Harmonics?: true
    Max angular momentum: 2

  ==> Pre-Iterations <==

   -------------------------------------------------------
    Irrep   Nso     Nmo     Nalpha   Nbeta   Ndocc  Nsocc
   -------------------------------------------------------
     A        266     266       0       0       0       0
   -------------------------------------------------------
    Total     266     266      51      51      51       0
   -------------------------------------------------------

  ==> Integral Setup <==

  Using integral reordering PK algorithm.
  Sizing the integral batches needed.
  Building batch lookup table.
   Calculation information:
      Number of atoms:                  28
      Number of AO shells:             126
      Number of primitives:            378
      Number of atomic orbitals:       280
      Number of basis functions:       266

      Integral cutoff                 1.00e-12
      Number of threads:                 1

	Batch   1 pq = [       0,    9405] index = [             0,44231715] size =     44231715
	Batch   2 pq = [    9405,   13301] index = [      44231715,88464951] size =     44233236
	Batch   3 pq = [   13301,   16290] index = [      88464951,132690195] size =     44225244
	Batch   4 pq = [   16290,   18810] index = [     132690195,176917455] size =     44227260
	Batch   5 pq = [   18810,   21030] index = [     176917455,221140965] size =     44223510
	Batch   6 pq = [   21030,   23037] index = [     221140965,265363203] size =     44222238
	Batch   7 pq = [   23037,   24883] index = [     265363203,309594286] size =     44231083
	Batch   8 pq = [   24883,   26601] index = [     309594286,353819901] size =     44225615
	Batch   9 pq = [   26601,   28214] index = [     353819901,398029005] size =     44209104
	Batch  10 pq = [   28214,   29740] index = [     398029005,442248670] size =     44219665
	Batch  11 pq = [   29740,   31191] index = [     442248670,486454836] size =     44206166
	Batch  12 pq = [   31191,   32578] index = [     486454836,530679331] size =     44224495
	Batch  13 pq = [   32578,   33908] index = [     530679331,574893186] size =     44213855
	Batch  14 pq = [   33908,   35188] index = [     574893186,619115266] size =     44222080
	Batch  15 pq = [   35188,   35511] index = [     619115266,630533316] size =     11418050
  Task number: 58
  Buffer size: 11059200
  Buffer per thread: 2
  We computed 25072329 shell quartets total.
  Whereas there are 32012001 unique shell quartets.

  ==> DiskJK: Disk-Based J/K Matrices <==

    J tasked:                  Yes
    K tasked:                  Yes
    wK tasked:                  No
    Memory [MiB]:              375
    Schwarz Cutoff:          1E-12

    OpenMP threads:              1

  Minimum eigenvalue in the overlap matrix is 3.2312324962E-04.
  Using Symmetric Orthogonalization.

  SCF Guess: Superposition of Atomic Densities via on-the-fly atomic UHF.

  ==> Iterations <==

                        Total Energy        Delta E     RMS |[F,P]|

   @RHF iter SAD:  -607.61185982539814   -6.07612e+02   0.00000e+00
   @RHF iter   1:  -608.18088975503713   -5.69030e-01   2.62569e-03 DIIS
   @RHF iter   2:  -608.43580450759998   -2.54915e-01   1.27237e-03 DIIS
   @RHF iter   3:  -608.48907090676676   -5.32664e-02   3.44422e-04 DIIS
   @RHF iter   4:  -608.49414285786963   -5.07195e-03   1.40223e-04 DIIS
   @RHF iter   5:  -608.49493242790425   -7.89570e-04   2.05275e-05 DIIS
   @RHF iter   6:  -608.49496207021934   -2.96423e-05   9.42312e-06 DIIS
   @RHF iter   7:  -608.49496751708068   -5.44686e-06   3.09409e-06 DIIS
   @RHF iter   8:  -608.49496858244356   -1.06536e-06   1.28476e-06 DIIS
   @RHF iter   9:  -608.49496878432001   -2.01876e-07   5.57432e-07 DIIS
   @RHF iter  10:  -608.49496882267033   -3.83503e-08   2.16454e-07 DIIS
   @RHF iter  11:  -608.49496882985807   -7.18774e-09   7.99199e-08 DIIS
   @RHF iter  12:  -608.49496883089330   -1.03523e-09   3.72843e-08 DIIS
   @RHF iter  13:  -608.49496883106315   -1.69848e-10   1.32297e-08 DIIS
   @RHF iter  14:  -608.49496883108850   -2.53522e-11   5.65000e-09 DIIS
   @RHF iter  15:  -608.49496883109498   -6.48015e-12   2.41428e-09 DIIS
   @RHF iter  16:  -608.49496883109543   -4.54747e-13   9.08354e-10 DIIS
   @RHF iter  17:  -608.49496883109680   -1.36424e-12   3.40163e-10 DIIS
   @RHF iter  18:  -608.49496883109623    5.68434e-13   1.47495e-10 DIIS
   @RHF iter  19:  -608.49496883109941   -3.18323e-12   6.35578e-11 DIIS
  Energy and wave function converged.

  ==> Post-Iterations <==

    Orbital Energies [Eh]
    ---------------------

    Doubly Occupied:

       1A    -20.588836     2A    -15.622635     3A    -15.528458
       4A    -11.302508     5A    -11.292551     6A    -11.250496
       7A    -11.243337     8A    -11.242711     9A    -11.242224
      10A    -11.236036    11A    -11.235314    12A    -11.234917
      13A    -11.230076    14A    -11.217035    15A     -1.416133
      16A     -1.341218    17A     -1.154117    18A     -1.153500
      19A     -1.041927    20A     -1.029303    21A     -1.020443
      22A     -0.938626    23A     -0.930112    24A     -0.851894
      25A     -0.818257    26A     -0.808279    27A     -0.763322
      28A     -0.743355    29A     -0.738147    30A     -0.674526
      31A     -0.647737    32A     -0.613327    33A     -0.610089
      34A     -0.604192    35A     -0.602302    36A     -0.591358
      37A     -0.587292    38A     -0.574704    39A     -0.573827
      40A     -0.549149    41A     -0.537774    42A     -0.530604
      43A     -0.514166    44A     -0.499112    45A     -0.489974
      46A     -0.470271    47A     -0.411708    48A     -0.377923
      49A     -0.341356    50A     -0.310749    51A     -0.304825

    Virtual:

      52A      0.121855    53A      0.155670    54A      0.159694
      55A      0.176030    56A      0.184255    57A      0.194400
      58A      0.209426    59A      0.217526    60A      0.226501
      61A      0.227377    62A      0.233128    63A      0.255660
      64A      0.262353    65A      0.270297    66A      0.283567
      67A      0.290725    68A      0.308145    69A      0.318149
      70A      0.365726    71A      0.372216    72A      0.379840
      73A      0.393268    74A      0.411781    75A      0.439994
      76A      0.451057    77A      0.468666    78A      0.477501
      79A      0.488093    80A      0.498627    81A      0.511384
      82A      0.607627    83A      0.610536    84A      0.614909
      85A      0.627985    86A      0.644465    87A      0.652946
      88A      0.662820    89A      0.668227    90A      0.690414
      91A      0.696309    92A      0.697595    93A      0.706947
      94A      0.709909    95A      0.729388    96A      0.731025
      97A      0.738957    98A      0.742823    99A      0.760116
     100A      0.772652   101A      0.779049   102A      0.779541
     103A      0.792872   104A      0.795519   105A      0.809427
     106A      0.835144   107A      0.841115   108A      0.848740
     109A      0.860289   110A      0.867713   111A      0.878806
     112A      0.885356   113A      0.890880   114A      0.891734
     115A      0.896475   116A      0.914600   117A      0.924756
     118A      0.931043   119A      0.934315   120A      0.940253
     121A      0.947022   122A      0.955965   123A      0.974179
     124A      0.997436   125A      1.014486   126A      1.033928
     127A      1.042322   128A      1.048316   129A      1.077487
     130A      1.094674   131A      1.104050   132A      1.111590
     133A      1.132927   134A      1.138873   135A      1.157640
     136A      1.168165   137A      1.174449   138A      1.181480
     139A      1.213127   140A      1.229163   141A      1.240761
     142A      1.251220   143A      1.263082   144A      1.271930
     145A      1.297564   146A      1.303118   147A      1.310469
     148A      1.315360   149A      1.319641   150A      1.345917
     151A      1.353620   152A      1.362821   153A      1.393438
     154A      1.411465   155A      1.433457   156A      1.449633
     157A      1.476885   158A      1.484264   159A      1.497076
     160A      1.531001   161A      1.548556   162A      1.556937
     163A      1.578768   164A      1.608848   165A      1.609360
     166A      1.633508   167A      1.648884   168A      1.677844
     169A      1.689812   170A      1.699722   171A      1.709749
     172A      1.725903   173A      1.746773   174A      1.770099
     175A      1.778260   176A      1.798964   177A      1.805289
     178A      1.812310   179A      1.819117   180A      1.859311
     181A      1.871673   182A      1.882566   183A      1.897605
     184A      1.900072   185A      1.909687   186A      1.916841
     187A      1.922220   188A      1.934647   189A      1.943815
     190A      1.957817   191A      1.961810   192A      1.964764
     193A      1.970247   194A      1.978600   195A      1.992809
     196A      1.996169   197A      2.016145   198A      2.035982
     199A      2.046040   200A      2.053906   201A      2.063619
     202A      2.078222   203A      2.082601   204A      2.111563
     205A      2.129502   206A      2.137602   207A      2.143098
     208A      2.172309   209A      2.192190   210A      2.200364
     211A      2.215557   212A      2.224776   213A      2.239080
     214A      2.253681   215A      2.265568   216A      2.294357
     217A      2.302726   218A      2.345450   219A      2.353353
     220A      2.373230   221A      2.385538   222A      2.406165
     223A      2.439974   224A      2.447195   225A      2.469360
     226A      2.480272   227A      2.497429   228A      2.502342
     229A      2.524799   230A      2.547732   231A      2.562351
     232A      2.611933   233A      2.615458   234A      2.657319
     235A      2.702659   236A      2.738025   237A      2.741553
     238A      2.751077   239A      2.771800   240A      2.788516
     241A      2.790966   242A      2.795334   243A      2.803326
     244A      2.841513   245A      2.847182   246A      2.879921
     247A      2.891281   248A      2.896930   249A      2.919798
     250A      2.955419   251A      2.963860   252A      3.002756
     253A      3.059056   254A      3.092132   255A      3.119671
     256A      3.160321   257A      3.241980   258A      3.260057
     259A      3.277587   260A      3.361997   261A      3.475719
     262A      3.594185   263A      3.685718   264A      3.790007
     265A      3.986010   266A      4.213786

    Final Occupation by Irrep:
              A
    DOCC [    51 ]

  @RHF Final Energy:  -608.49496883109941

   => Energetics <=

    Nuclear Repulsion Energy =            795.9373696182880167
    One-Electron Energy =               -2405.5992105984391856
    Two-Electron Energy =                1001.1668721490518692
    Total Energy =                       -608.4949688310994134

Computation Completed

Properties will be evaluated at   0.000000,   0.000000,   0.000000 [a0]

Properties computed using the SCF density matrix

  Nuclear Dipole Moment: [e a0]
     X:    -1.7827      Y:     4.3529      Z:    -7.5140

  Electronic Dipole Moment: [e a0]
     X:     1.4007      Y:    -5.4306      Z:     6.1233

  Dipole Moment: [e a0]
     X:    -0.3819      Y:    -1.0777      Z:    -1.3908     Total:     1.8004

  Dipole Moment: [D]
     X:    -0.9708      Y:    -2.7393      Z:    -3.5350     Total:     4.5763

*** tstop() called on ds3 at Mon Apr 27 14:09:26 2020
Module time:
	user time   =     219.29 seconds =       3.65 minutes
	system time =     125.40 seconds =       2.09 minutes
	total time  =        418 seconds =       6.97 minutes
Total time:
	user time   =     219.29 seconds =       3.65 minutes
	system time =     125.40 seconds =       2.09 minutes
	total time  =        418 seconds =       6.97 minutes
                                     G D M A

                                 by Anthony Stone

                           version 2.2.06, 22 June 2011

               Distributed Multipoles from Gaussian wavefunctions

Starting at 14:9:26 on 27 Apr 2020

Using SCF density matrix from file ./SSI/SSI-047TYR-077HIE-1-dimer.test.8609.fchk

                         Distributed Multipole Analysis

Standard DMA

Positions and radii in angstrom
Multipole moments in atomic units, ea_0^k for rank k

C          x = -1.606147  y =  1.865378  z = -4.731380 angstrom
           Maximum rank =  0   Radius =  0.650 angstrom
                   Q00  =  -0.190653

C          x = -1.392147  y =  0.723378  z = -0.588380 angstrom
           Maximum rank =  0   Radius =  0.650 angstrom
                   Q00  =   0.281959

C          x = -1.344147  y = -0.249622  z = -1.579380 angstrom
           Maximum rank =  0   Radius =  0.650 angstrom
                   Q00  =  -0.173863

C          x = -1.482147  y =  2.068378  z = -0.931380 angstrom
           Maximum rank =  0   Radius =  0.650 angstrom
                   Q00  =  -0.120943

C          x = -1.408147  y =  0.125378  z = -2.930380 angstrom
           Maximum rank =  0   Radius =  0.650 angstrom
                   Q00  =  -0.058918

C          x = -1.557147  y =  2.429378  z = -2.277380 angstrom
           Maximum rank =  0   Radius =  0.650 angstrom
                   Q00  =   0.050031

C          x = -1.522147  y =  1.465378  z = -3.281380 angstrom
           Maximum rank =  0   Radius =  0.650 angstrom
                   Q00  =  -0.137262

O          x = -1.303147  y =  0.330378  z =  0.695620 angstrom
           Maximum rank =  0   Radius =  0.650 angstrom
                   Q00  =  -0.621655

H          x = -1.215147  y = -0.616622  z =  0.771620 angstrom
           Maximum rank =  0   Radius =  0.325 angstrom
                   Q00  =   0.407731

H          x = -1.282147  y = -1.288622  z = -1.312380 angstrom
           Maximum rank =  0   Radius =  0.325 angstrom
                   Q00  =   0.065896

H          x = -1.506147  y =  2.814378  z = -0.152380 angstrom
           Maximum rank =  0   Radius =  0.325 angstrom
                   Q00  =   0.083151

H          x = -1.385147  y = -0.636622  z = -3.699380 angstrom
           Maximum rank =  0   Radius =  0.325 angstrom
                   Q00  =   0.071111

H          x = -1.630147  y =  3.474378  z = -2.544380 angstrom
           Maximum rank =  0   Radius =  0.325 angstrom
                   Q00  =   0.064043

H          x = -1.383147  y =  1.004378  z = -5.363380 angstrom
           Maximum rank =  0   Radius =  0.325 angstrom
                   Q00  =   0.095528

H          x = -0.861147  y =  2.631378  z = -4.925380 angstrom
           Maximum rank =  0   Radius =  0.325 angstrom
                   Q00  =   0.098161

H          x = -2.604821  y =  2.252265  z = -4.982310 angstrom
           Maximum rank =  0   Radius =  0.325 angstrom
                   Q00  =   0.098701

C          x =  1.549853  y =  0.716378  z =  2.985620 angstrom
           Maximum rank =  0   Radius =  0.650 angstrom
                   Q00  =  -0.194219

C          x =  1.295853  y = -1.460622  z =  1.589620 angstrom
           Maximum rank =  0   Radius =  0.650 angstrom
                   Q00  =  -0.026160

C          x =  1.771853  y = -0.722622  z =  2.629620 angstrom
           Maximum rank =  0   Radius =  0.650 angstrom
                   Q00  =   0.235689

C          x =  2.528853  y = -2.770622  z =  2.848620 angstrom
           Maximum rank =  0   Radius =  0.650 angstrom
                   Q00  =   0.467007

N          x =  1.800853  y = -2.734622  z =  1.738620 angstrom
           Maximum rank =  0   Radius =  0.650 angstrom
                   Q00  =  -0.477438

N          x =  2.535853  y = -1.566622  z =  3.412620 angstrom
           Maximum rank =  0   Radius =  0.650 angstrom
                   Q00  =  -0.773259

H          x =  0.710853  y = -1.093622  z =  0.763620 angstrom
           Maximum rank =  0   Radius =  0.325 angstrom
                   Q00  =   0.088396

H          x =  1.663853  y = -3.528622  z =  1.111620 angstrom
           Maximum rank =  0   Radius =  0.325 angstrom
                   Q00  =   0.220822

H          x =  1.218853  y =  1.229378  z =  2.083620 angstrom
           Maximum rank =  0   Radius =  0.325 angstrom
                   Q00  =   0.104302

H          x =  2.495853  y =  1.155378  z =  3.295620 angstrom
           Maximum rank =  0   Radius =  0.325 angstrom
                   Q00  =   0.111714

H          x =  3.092853  y = -3.625622  z =  3.168620 angstrom
           Maximum rank =  0   Radius =  0.325 angstrom
                   Q00  =   0.120678

H          x =  0.804135  y =  0.856379  z =  3.782050 angstrom
           Maximum rank =  0   Radius =  0.325 angstrom
                   Q00  =   0.109448

Total multipoles referred to origin at
           x =   0.000000,  y =    0.000000,  z =    0.000000 angstrom
                   Q00  =  -0.000000

Finished at 14:9:26 on 27 Apr 2020

  DMA results are available in the Python driver through the
	  variable('DMA DISTRIBUTED MULTIPOLES')
  and
	  variable('DMA TOTAL MULTIPOLES')
  commands.

    Psi4 stopped on: Monday, 27 April 2020 02:09PM
    Psi4 wall time for execution: 0:06:57.97

*** Psi4 exiting successfully. Buy a developer a beer!
