                               Psi4 1.3.2 release

  ==> Input File <==

--------------------------------------------------------------------------
import numpy as np
set {scf_type pk
basis cc-pvdz
d_convergence 10
gdma_switch   0
gdma_limit    0
gdma_origin   [ 0.0,  0.0,  0.0 ]
}
molecule test {
    units Angstrom
    0 1
    --
    0 1
    C               -2.065525742635776     3.086270489840660    -0.806022643517684
    C               -1.317525742635776     1.936270489840660    -0.158022643517684
    O               -1.266525742635776     0.850270489840660    -0.747022643517684
    O               -0.793525742635776     2.110270489840660     0.951977356482316
    H               -1.532525742635776     4.024270489840660    -0.641022643517684
    H               -3.039525742635776     3.164270489840660    -0.319022643517684
    H               -2.225162942635777     2.934579489840661    -1.883752643517684
    C                0.588474257364224    -2.180729510159340    -1.679022643517684
    C                1.200474257364224    -1.438729510159339     0.598977356482316
    N                0.455474257364224    -1.336729510159339    -0.489022643517684
    N                2.143474257364223    -2.357729510159340     0.675977356482316
    N                0.996474257364224    -0.625729510159340     1.614977356482316
    H               -0.222525742635776    -0.571729510159340    -0.524022643517684
    H                0.356474257364224    -3.216729510159340    -1.422022643517684
    H                1.613474257364224    -2.132729510159340    -2.053022643517684
    H                2.274474257364223    -3.003729510159340    -0.083022643517684
    H                2.702474257364224    -2.443729510159340     1.508977356482316
    H                0.320474257364224     0.122270489840660     1.504977356482316
    H                1.557474257364224    -0.684729510159340     2.446977356482316
    H               -0.085945742635776    -1.857991510159339    -2.485862643517684

}
e, wfn = energy('scf', return_wfn=True)
gdma(wfn)
dmavals = variable('DMA DISTRIBUTED MULTIPOLES')
charges = np.array(dmavals)
print(charges)
np.save('SSI-008ASP-018ARG-2-dimer.npy', np.array(charges))--------------------------------------------------------------------------

*** tstart() called on ds3
*** at Mon Apr 27 17:04:17 2020

   => Loading Basis Set <=

    Name: CC-PVDZ
    Role: ORBITAL
    Keyword: BASIS
    atoms 1-2, 8-9   entry C          line   138 file /theoryfs2/ds/metcalf/miniconda2/envs/tf2gpu/share/psi4/basis/cc-pvdz.gbs
    atoms 3-4        entry O          line   198 file /theoryfs2/ds/metcalf/miniconda2/envs/tf2gpu/share/psi4/basis/cc-pvdz.gbs
    atoms 5-7, 13-20 entry H          line    22 file /theoryfs2/ds/metcalf/miniconda2/envs/tf2gpu/share/psi4/basis/cc-pvdz.gbs
    atoms 10-12      entry N          line   168 file /theoryfs2/ds/metcalf/miniconda2/envs/tf2gpu/share/psi4/basis/cc-pvdz.gbs

         ---------------------------------------------------------
                                   SCF
               by Justin Turney, Rob Parrish, Andy Simmonett
                          and Daniel G. A. Smith
                              RHF Reference
                        1 Threads,    500 MiB Core
         ---------------------------------------------------------

  ==> Geometry <==

    Molecular point group: c1
    Full point group: C1

    Geometry (in Angstrom), charge = 0, multiplicity = 1:

       Center              X                  Y                   Z               Mass
    ------------   -----------------  -----------------  -----------------  -----------------
         C           -2.065525742636     3.086270489841    -0.806022643518    12.000000000000
         C           -1.317525742636     1.936270489841    -0.158022643518    12.000000000000
         O           -1.266525742636     0.850270489841    -0.747022643518    15.994914619570
         O           -0.793525742636     2.110270489841     0.951977356482    15.994914619570
         H           -1.532525742636     4.024270489841    -0.641022643518     1.007825032230
         H           -3.039525742636     3.164270489841    -0.319022643518     1.007825032230
         H           -2.225162942636     2.934579489841    -1.883752643518     1.007825032230
         C            0.588474257364    -2.180729510159    -1.679022643518    12.000000000000
         C            1.200474257364    -1.438729510159     0.598977356482    12.000000000000
         N            0.455474257364    -1.336729510159    -0.489022643518    14.003074004430
         N            2.143474257364    -2.357729510159     0.675977356482    14.003074004430
         N            0.996474257364    -0.625729510159     1.614977356482    14.003074004430
         H           -0.222525742636    -0.571729510159    -0.524022643518     1.007825032230
         H            0.356474257364    -3.216729510159    -1.422022643518     1.007825032230
         H            1.613474257364    -2.132729510159    -2.053022643518     1.007825032230
         H            2.274474257364    -3.003729510159    -0.083022643518     1.007825032230
         H            2.702474257364    -2.443729510159     1.508977356482     1.007825032230
         H            0.320474257364     0.122270489841     1.504977356482     1.007825032230
         H            1.557474257364    -0.684729510159     2.446977356482     1.007825032230
         H           -0.085945742636    -1.857991510159    -2.485862643518     1.007825032230

  Running in c1 symmetry.

  Rotational constants: A =      0.09829  B =      0.02323  C =      0.01909 [cm^-1]
  Rotational constants: A =   2946.74900  B =    696.41900  C =    572.17568 [MHz]
  Nuclear repulsion =  460.032388852996064

  Charge       = 0
  Multiplicity = 1
  Electrons    = 72
  Nalpha       = 36
  Nbeta        = 36

  ==> Algorithm <==

  SCF Algorithm Type is PK.
  DIIS enabled.
  MOM disabled.
  Fractional occupation disabled.
  Guess Type is SAD.
  Energy threshold   = 1.00e-06
  Density threshold  = 1.00e-10
  Integral threshold = 0.00e+00

  ==> Primary Basis <==

  Basis Set: CC-PVDZ
    Blend: CC-PVDZ
    Number of shells: 87
    Number of basis function: 181
    Number of Cartesian functions: 190
    Spherical Harmonics?: true
    Max angular momentum: 2

  ==> Pre-Iterations <==

   -------------------------------------------------------
    Irrep   Nso     Nmo     Nalpha   Nbeta   Ndocc  Nsocc
   -------------------------------------------------------
     A        181     181       0       0       0       0
   -------------------------------------------------------
    Total     181     181      36      36      36       0
   -------------------------------------------------------

  ==> Integral Setup <==

  Using integral reordering PK algorithm.
  Sizing the integral batches needed.
  Building batch lookup table.
   Calculation information:
      Number of atoms:                  20
      Number of AO shells:              87
      Number of primitives:            253
      Number of atomic orbitals:       190
      Number of basis functions:       181

      Integral cutoff                 1.00e-12
      Number of threads:                 1

	Batch   1 pq = [       0,    9405] index = [             0,44231715] size =     44231715
	Batch   2 pq = [    9405,   13301] index = [      44231715,88464951] size =     44233236
	Batch   3 pq = [   13301,   16471] index = [      88464951,135655156] size =     47190205
  Task number: 13
  Buffer size: 11059200
  Buffer per thread: 2
  We computed 5782936 shell quartets total.
  Whereas there are 7328706 unique shell quartets.

  ==> DiskJK: Disk-Based J/K Matrices <==

    J tasked:                  Yes
    K tasked:                  Yes
    wK tasked:                  No
    Memory [MiB]:              375
    Schwarz Cutoff:          1E-12

    OpenMP threads:              1

  Minimum eigenvalue in the overlap matrix is 3.7838678418E-03.
  Using Symmetric Orthogonalization.

  SCF Guess: Superposition of Atomic Densities via on-the-fly atomic UHF.

  ==> Iterations <==

                        Total Energy        Delta E     RMS |[F,P]|

   @RHF iter SAD:  -469.77559588846236   -4.69776e+02   0.00000e+00
   @RHF iter   1:  -470.72080195859093   -9.45206e-01   4.19587e-03 DIIS
   @RHF iter   2:  -470.94364025137611   -2.22838e-01   2.14931e-03 DIIS
   @RHF iter   3:  -470.99859265257697   -5.49524e-02   3.80634e-04 DIIS
   @RHF iter   4:  -471.00164174181032   -3.04909e-03   1.30320e-04 DIIS
   @RHF iter   5:  -471.00198389171186   -3.42150e-04   2.49046e-05 DIIS
   @RHF iter   6:  -471.00200039393036   -1.65022e-05   1.09630e-05 DIIS
   @RHF iter   7:  -471.00200259186488   -2.19793e-06   2.86788e-06 DIIS
   @RHF iter   8:  -471.00200283702401   -2.45159e-07   9.91982e-07 DIIS
   @RHF iter   9:  -471.00200286500063   -2.79766e-08   3.02185e-07 DIIS
   @RHF iter  10:  -471.00200286835656   -3.35592e-09   9.76076e-08 DIIS
   @RHF iter  11:  -471.00200286884291   -4.86352e-10   3.39462e-08 DIIS
   @RHF iter  12:  -471.00200286890146   -5.85487e-11   1.33039e-08 DIIS
   @RHF iter  13:  -471.00200286891260   -1.11413e-11   4.42970e-09 DIIS
   @RHF iter  14:  -471.00200286891510   -2.50111e-12   1.09234e-09 DIIS
   @RHF iter  15:  -471.00200286891476    3.41061e-13   4.00531e-10 DIIS
   @RHF iter  16:  -471.00200286891425    5.11591e-13   1.20002e-10 DIIS
   @RHF iter  17:  -471.00200286891481   -5.68434e-13   5.38296e-11 DIIS
  Energy and wave function converged.

  ==> Post-Iterations <==

    Orbital Energies [Eh]
    ---------------------

    Doubly Occupied:

       1A    -20.418753     2A    -20.408803     3A    -15.653937
       4A    -15.623564     5A    -15.610182     6A    -11.433218
       7A    -11.306323     8A    -11.260000     9A    -11.165758
      10A     -1.393657    11A     -1.314562    12A     -1.248015
      13A     -1.238269    14A     -1.194757    15A     -0.996006
      16A     -0.917811    17A     -0.888070    18A     -0.826558
      19A     -0.790793    20A     -0.713721    21A     -0.700719
      22A     -0.677199    23A     -0.650683    24A     -0.631930
      25A     -0.604797    26A     -0.581153    27A     -0.554710
      28A     -0.541111    29A     -0.536649    30A     -0.477676
      31A     -0.475523    32A     -0.449031    33A     -0.422993
      34A     -0.338145    35A     -0.323523    36A     -0.320305

    Virtual:

      37A      0.120018    38A      0.152775    39A      0.174294
      40A      0.200587    41A      0.216015    42A      0.237357
      43A      0.241421    44A      0.253119    45A      0.285408
      46A      0.296626    47A      0.310707    48A      0.317735
      49A      0.360066    50A      0.408183    51A      0.427633
      52A      0.456901    53A      0.477776    54A      0.489317
      55A      0.583791    56A      0.595656    57A      0.604147
      58A      0.613598    59A      0.652019    60A      0.668845
      61A      0.674347    62A      0.683876    63A      0.706020
      64A      0.712514    65A      0.723011    66A      0.772711
      67A      0.804765    68A      0.819864    69A      0.832471
      70A      0.839900    71A      0.845018    72A      0.865386
      73A      0.893257    74A      0.912184    75A      0.918397
      76A      0.925840    77A      0.933658    78A      0.942368
      79A      0.962599    80A      0.970425    81A      0.975257
      82A      1.012813    83A      1.060096    84A      1.062225
      85A      1.089683    86A      1.104194    87A      1.110969
      88A      1.153580    89A      1.197949    90A      1.225892
      91A      1.230103    92A      1.258113    93A      1.267105
      94A      1.292074    95A      1.313106    96A      1.340894
      97A      1.377357    98A      1.383052    99A      1.405770
     100A      1.425051   101A      1.462547   102A      1.481723
     103A      1.494252   104A      1.553723   105A      1.559780
     106A      1.601238   107A      1.621144   108A      1.636076
     109A      1.652753   110A      1.676040   111A      1.695384
     112A      1.714370   113A      1.726566   114A      1.737134
     115A      1.798112   116A      1.818533   117A      1.856503
     118A      1.870986   119A      1.879134   120A      1.899514
     121A      1.909587   122A      1.935751   123A      1.938623
     124A      1.957054   125A      1.972331   126A      1.974762
     127A      1.992348   128A      2.017852   129A      2.028476
     130A      2.080866   131A      2.084773   132A      2.131825
     133A      2.182010   134A      2.196549   135A      2.203094
     136A      2.240762   137A      2.244924   138A      2.275282
     139A      2.299395   140A      2.314820   141A      2.366063
     142A      2.408897   143A      2.426371   144A      2.435034
     145A      2.456024   146A      2.482644   147A      2.496687
     148A      2.549039   149A      2.553263   150A      2.584006
     151A      2.600885   152A      2.628046   153A      2.678168
     154A      2.709610   155A      2.720646   156A      2.748577
     157A      2.802301   158A      2.818577   159A      2.854897
     160A      2.869304   161A      2.878833   162A      2.912483
     163A      2.952698   164A      2.973644   165A      2.983432
     166A      3.048171   167A      3.088449   168A      3.136602
     169A      3.145278   170A      3.198028   171A      3.240018
     172A      3.280688   173A      3.347326   174A      3.500902
     175A      3.648917   176A      3.685317   177A      3.768561
     178A      3.806791   179A      3.948297   180A      3.962828
     181A      4.101687

    Final Occupation by Irrep:
              A
    DOCC [    36 ]

  @RHF Final Energy:  -471.00200286891481

   => Energetics <=

    Nuclear Repulsion Energy =            460.0323888529960641
    One-Electron Energy =               -1556.6909751949604015
    Two-Electron Energy =                 625.6565834730495226
    Total Energy =                       -471.0020028689148148

Computation Completed

Properties will be evaluated at   0.000000,   0.000000,   0.000000 [a0]

Properties computed using the SCF density matrix

  Nuclear Dipole Moment: [e a0]
     X:     1.5913      Y:    -3.4100      Z:    -3.7080

  Electronic Dipole Moment: [e a0]
     X:     1.4702      Y:    -0.5800      Z:     4.0359

  Dipole Moment: [e a0]
     X:     3.0615      Y:    -3.9899      Z:     0.3278     Total:     5.0399

  Dipole Moment: [D]
     X:     7.7816      Y:   -10.1414      Z:     0.8333     Total:    12.8100

*** tstop() called on ds3 at Mon Apr 27 17:05:35 2020
Module time:
	user time   =      43.98 seconds =       0.73 minutes
	system time =      19.88 seconds =       0.33 minutes
	total time  =         78 seconds =       1.30 minutes
Total time:
	user time   =      43.98 seconds =       0.73 minutes
	system time =      19.88 seconds =       0.33 minutes
	total time  =         78 seconds =       1.30 minutes
                                     G D M A

                                 by Anthony Stone

                           version 2.2.06, 22 June 2011

               Distributed Multipoles from Gaussian wavefunctions

Starting at 17:5:35 on 27 Apr 2020

Using SCF density matrix from file ./SSI/SSI-008ASP-018ARG-2-dimer.test.6020.fchk

                         Distributed Multipole Analysis

Standard DMA

Positions and radii in angstrom
Multipole moments in atomic units, ea_0^k for rank k

C          x = -2.065526  y =  3.086270  z = -0.806023 angstrom
           Maximum rank =  0   Radius =  0.650 angstrom
                   Q00  =  -0.259084

C          x = -1.317526  y =  1.936270  z = -0.158023 angstrom
           Maximum rank =  0   Radius =  0.650 angstrom
                   Q00  =   0.900431

O          x = -1.266526  y =  0.850270  z = -0.747023 angstrom
           Maximum rank =  0   Radius =  0.650 angstrom
                   Q00  =  -0.956623

O          x = -0.793526  y =  2.110270  z =  0.951977 angstrom
           Maximum rank =  0   Radius =  0.650 angstrom
                   Q00  =  -0.909215

H          x = -1.532526  y =  4.024270  z = -0.641023 angstrom
           Maximum rank =  0   Radius =  0.325 angstrom
                   Q00  =   0.087714

H          x = -3.039526  y =  3.164270  z = -0.319023 angstrom
           Maximum rank =  0   Radius =  0.325 angstrom
                   Q00  =   0.104147

H          x = -2.225163  y =  2.934579  z = -1.883753 angstrom
           Maximum rank =  0   Radius =  0.325 angstrom
                   Q00  =   0.073571

C          x =  0.588474  y = -2.180730  z = -1.679023 angstrom
           Maximum rank =  0   Radius =  0.650 angstrom
                   Q00  =  -0.102015

C          x =  1.200474  y = -1.438730  z =  0.598977 angstrom
           Maximum rank =  0   Radius =  0.650 angstrom
                   Q00  =   1.061915

N          x =  0.455474  y = -1.336730  z = -0.489023 angstrom
           Maximum rank =  0   Radius =  0.650 angstrom
                   Q00  =  -0.519078

N          x =  2.143474  y = -2.357730  z =  0.675977 angstrom
           Maximum rank =  0   Radius =  0.650 angstrom
                   Q00  =  -0.581019

N          x =  0.996474  y = -0.625730  z =  1.614977 angstrom
           Maximum rank =  0   Radius =  0.650 angstrom
                   Q00  =  -0.577903

H          x = -0.222526  y = -0.571730  z = -0.524023 angstrom
           Maximum rank =  0   Radius =  0.325 angstrom
                   Q00  =   0.347129

H          x =  0.356474  y = -3.216730  z = -1.422023 angstrom
           Maximum rank =  0   Radius =  0.325 angstrom
                   Q00  =   0.082232

H          x =  1.613474  y = -2.132730  z = -2.053023 angstrom
           Maximum rank =  0   Radius =  0.325 angstrom
                   Q00  =   0.080917

H          x =  2.274474  y = -3.003730  z = -0.083023 angstrom
           Maximum rank =  0   Radius =  0.325 angstrom
                   Q00  =   0.247447

H          x =  2.702474  y = -2.443730  z =  1.508977 angstrom
           Maximum rank =  0   Radius =  0.325 angstrom
                   Q00  =   0.238740

H          x =  0.320474  y =  0.122270  z =  1.504977 angstrom
           Maximum rank =  0   Radius =  0.325 angstrom
                   Q00  =   0.284478

H          x =  1.557474  y = -0.684730  z =  2.446977 angstrom
           Maximum rank =  0   Radius =  0.325 angstrom
                   Q00  =   0.232519

H          x = -0.085946  y = -1.857992  z = -2.485863 angstrom
           Maximum rank =  0   Radius =  0.325 angstrom
                   Q00  =   0.163697

Total multipoles referred to origin at
           x =   0.000000,  y =    0.000000,  z =    0.000000 angstrom
                   Q00  =  -0.000000

Finished at 17:5:35 on 27 Apr 2020

  DMA results are available in the Python driver through the
	  variable('DMA DISTRIBUTED MULTIPOLES')
  and
	  variable('DMA TOTAL MULTIPOLES')
  commands.

    Psi4 stopped on: Monday, 27 April 2020 05:05PM
    Psi4 wall time for execution: 0:01:17.65

*** Psi4 exiting successfully. Buy a developer a beer!
