                               Psi4 1.3.2 release

  ==> Input File <==

--------------------------------------------------------------------------
import numpy as np
set {scf_type pk
basis cc-pvdz
d_convergence 10
gdma_switch   0
gdma_limit    0
gdma_origin   [ 0.0,  0.0,  0.0 ]
}
molecule test {
    units Angstrom
    0 1
    --
    0 1
    C                0.980968406615484     0.381276101169296     1.636628441629302
    C                0.880968406615484    -0.802723898830704     2.595628441629302
    H                1.515968406615485     0.083276101169296     0.735628441629302
    H               -0.018031593384516     0.729276101169296     1.373628441629302
    H                1.512968406615484     1.200276101169296     2.114628441629302
    H                0.434968406615485    -0.435723898830704     3.515628441629302
    H                1.876108406615485    -1.211263898830704     2.825387441629303
    H                0.211658406615484    -1.578553898830704     2.195481441629302
    C               -0.383031593384515     0.602276101169296    -1.764371558370698
    C               -1.478031593384515    -0.178723898830704    -2.475371558370698
    H               -0.797031593384516     1.334276101169296    -1.072371558370698
    H                0.228968406615484    -0.096723898830704    -1.194371558370698
    H                0.247968406615484     1.086276101169297    -2.503371558370698
    H               -2.075031593384515    -0.673723898830704    -1.716371558370698
    H               -2.116404593384515     0.491966101169296    -3.069223558370698
    H               -1.032511593384515    -0.954413898830704    -3.115535558370698

}
e, wfn = energy('scf', return_wfn=True)
gdma(wfn)
dmavals = variable('DMA DISTRIBUTED MULTIPOLES')
charges = np.array(dmavals)
print(charges)
np.save('SSI-016LEU-036LEU-1-dimer.npy', np.array(charges))--------------------------------------------------------------------------

*** tstart() called on ds3
*** at Mon Apr 27 22:08:19 2020

   => Loading Basis Set <=

    Name: CC-PVDZ
    Role: ORBITAL
    Keyword: BASIS
    atoms 1-2, 9-10  entry C          line   138 file /theoryfs2/ds/metcalf/miniconda2/envs/tf2gpu/share/psi4/basis/cc-pvdz.gbs
    atoms 3-8, 11-16 entry H          line    22 file /theoryfs2/ds/metcalf/miniconda2/envs/tf2gpu/share/psi4/basis/cc-pvdz.gbs

         ---------------------------------------------------------
                                   SCF
               by Justin Turney, Rob Parrish, Andy Simmonett
                          and Daniel G. A. Smith
                              RHF Reference
                        1 Threads,    500 MiB Core
         ---------------------------------------------------------

  ==> Geometry <==

    Molecular point group: c1
    Full point group: C1

    Geometry (in Angstrom), charge = 0, multiplicity = 1:

       Center              X                  Y                   Z               Mass
    ------------   -----------------  -----------------  -----------------  -----------------
         C            0.980968406615     0.381276101169     1.636628441629    12.000000000000
         C            0.880968406615    -0.802723898831     2.595628441629    12.000000000000
         H            1.515968406615     0.083276101169     0.735628441629     1.007825032230
         H           -0.018031593385     0.729276101169     1.373628441629     1.007825032230
         H            1.512968406615     1.200276101169     2.114628441629     1.007825032230
         H            0.434968406615    -0.435723898831     3.515628441629     1.007825032230
         H            1.876108406615    -1.211263898831     2.825387441629     1.007825032230
         H            0.211658406615    -1.578553898831     2.195481441629     1.007825032230
         C           -0.383031593385     0.602276101169    -1.764371558371    12.000000000000
         C           -1.478031593385    -0.178723898831    -2.475371558371    12.000000000000
         H           -0.797031593385     1.334276101169    -1.072371558371     1.007825032230
         H            0.228968406615    -0.096723898831    -1.194371558371     1.007825032230
         H            0.247968406615     1.086276101169    -2.503371558371     1.007825032230
         H           -2.075031593385    -0.673723898831    -1.716371558371     1.007825032230
         H           -2.116404593385     0.491966101169    -3.069223558371     1.007825032230
         H           -1.032511593385    -0.954413898831    -3.115535558371     1.007825032230

  Running in c1 symmetry.

  Rotational constants: A =      0.48942  B =      0.04781  C =      0.04514 [cm^-1]
  Rotational constants: A =  14672.57541  B =   1433.21389  C =   1353.14181 [MHz]
  Nuclear repulsion =  121.979840156178923

  Charge       = 0
  Multiplicity = 1
  Electrons    = 36
  Nalpha       = 18
  Nbeta        = 18

  ==> Algorithm <==

  SCF Algorithm Type is PK.
  DIIS enabled.
  MOM disabled.
  Fractional occupation disabled.
  Guess Type is SAD.
  Energy threshold   = 1.00e-06
  Density threshold  = 1.00e-10
  Integral threshold = 0.00e+00

  ==> Primary Basis <==

  Basis Set: CC-PVDZ
    Blend: CC-PVDZ
    Number of shells: 60
    Number of basis function: 116
    Number of Cartesian functions: 120
    Spherical Harmonics?: true
    Max angular momentum: 2

  ==> Pre-Iterations <==

   -------------------------------------------------------
    Irrep   Nso     Nmo     Nalpha   Nbeta   Ndocc  Nsocc
   -------------------------------------------------------
     A        116     116       0       0       0       0
   -------------------------------------------------------
    Total     116     116      18      18      18       0
   -------------------------------------------------------

  ==> Integral Setup <==

  Using integral reordering PK algorithm.
  Sizing the integral batches needed.
  Building batch lookup table.
   Calculation information:
      Number of atoms:                  16
      Number of AO shells:              60
      Number of primitives:            148
      Number of atomic orbitals:       120
      Number of basis functions:       116

      Integral cutoff                 1.00e-12
      Number of threads:                 1

	Batch   1 pq = [       0,    6786] index = [             0,23028291] size =     23028291
  Task number: 3
  Buffer size: 11059200
  Buffer per thread: 2
  We computed 1407783 shell quartets total.
  Whereas there are 1675365 unique shell quartets.

  ==> DiskJK: Disk-Based J/K Matrices <==

    J tasked:                  Yes
    K tasked:                  Yes
    wK tasked:                  No
    Memory [MiB]:              375
    Schwarz Cutoff:          1E-12

    OpenMP threads:              1

  Minimum eigenvalue in the overlap matrix is 6.9685714535E-03.
  Using Symmetric Orthogonalization.

  SCF Guess: Superposition of Atomic Densities via on-the-fly atomic UHF.

  ==> Iterations <==

                        Total Energy        Delta E     RMS |[F,P]|

   @RHF iter SAD:  -157.37891052476709   -1.57379e+02   0.00000e+00
   @RHF iter   1:  -158.30505148402656   -9.26141e-01   4.23327e-03 DIIS
   @RHF iter   2:  -158.43949814105295   -1.34447e-01   1.80315e-03 DIIS
   @RHF iter   3:  -158.46306708339077   -2.35689e-02   3.51214e-04 DIIS
   @RHF iter   4:  -158.46490823018118   -1.84115e-03   3.91651e-05 DIIS
   @RHF iter   5:  -158.46493218717126   -2.39570e-05   6.91975e-06 DIIS
   @RHF iter   6:  -158.46493286752772   -6.80356e-07   1.30860e-06 DIIS
   @RHF iter   7:  -158.46493288321059   -1.56829e-08   3.15152e-07 DIIS
   @RHF iter   8:  -158.46493288414422   -9.33625e-10   3.50198e-08 DIIS
   @RHF iter   9:  -158.46493288416335   -1.91278e-11   5.24455e-09 DIIS
   @RHF iter  10:  -158.46493288416383   -4.83169e-13   1.35543e-09 DIIS
   @RHF iter  11:  -158.46493288416377    5.68434e-14   3.46656e-10 DIIS
   @RHF iter  12:  -158.46493288416377    0.00000e+00   8.46057e-11 DIIS
  Energy and wave function converged.

  ==> Post-Iterations <==

    Orbital Energies [Eh]
    ---------------------

    Doubly Occupied:

       1A    -11.218527     2A    -11.217522     3A    -11.215627
       4A    -11.214117     5A     -1.020974     6A     -1.018172
       7A     -0.839262     8A     -0.832576     9A     -0.603805
      10A     -0.601501    11A     -0.597086    12A     -0.593938
      13A     -0.505275    14A     -0.497186    15A     -0.489764
      16A     -0.488387    17A     -0.482877    18A     -0.476319

    Virtual:

      19A      0.172697    20A      0.199583    21A      0.225302
      22A      0.233654    23A      0.246484    24A      0.255065
      25A      0.264603    26A      0.273462    27A      0.280372
      28A      0.291383    29A      0.307417    30A      0.351966
      31A      0.382823    32A      0.411684    33A      0.573698
      34A      0.594217    35A      0.597618    36A      0.603287
      37A      0.614983    38A      0.635218    39A      0.648258
      40A      0.681053    41A      0.693787    42A      0.816718
      43A      0.832064    44A      0.883501    45A      0.885582
      46A      0.892188    47A      0.893539    48A      0.895072
      49A      0.898534    50A      0.905990    51A      0.911702
      52A      0.917959    53A      0.928494    54A      0.960135
      55A      0.975023    56A      0.989640    57A      1.121181
      58A      1.127424    59A      1.131703    60A      1.170618
      61A      1.218488    62A      1.259835    63A      1.463303
      64A      1.474478    65A      1.487917    66A      1.491896
      67A      1.560079    68A      1.584743    69A      1.680851
      70A      1.682593    71A      1.694129    72A      1.712139
      73A      1.855082    74A      1.857284    75A      1.865828
      76A      1.888861    77A      1.891986    78A      1.925121
      79A      1.938578    80A      1.942284    81A      1.947167
      82A      1.951557    83A      1.953830    84A      1.956646
      85A      1.970345    86A      1.978978    87A      1.987846
      88A      2.004701    89A      2.085459    90A      2.100665
      91A      2.125628    92A      2.133535    93A      2.291647
      94A      2.306560    95A      2.310424    96A      2.316648
      97A      2.448607    98A      2.454083    99A      2.473770
     100A      2.489893   101A      2.557718   102A      2.562717
     103A      2.582542   104A      2.587128   105A      2.761981
     106A      2.764901   107A      2.791182   108A      2.799991
     109A      2.843458   110A      2.855760   111A      2.856501
     112A      2.864275   113A      2.936876   114A      2.955455
     115A      2.976446   116A      2.988160

    Final Occupation by Irrep:
              A
    DOCC [    18 ]

  @RHF Final Energy:  -158.46493288416377

   => Energetics <=

    Nuclear Repulsion Energy =            121.9798401561789234
    One-Electron Energy =                -453.0637131352773395
    Two-Electron Energy =                 172.6189400949346577
    Total Energy =                       -158.4649328841637725

Computation Completed

Properties will be evaluated at   0.000000,   0.000000,   0.000000 [a0]

Properties computed using the SCF density matrix

  Nuclear Dipole Moment: [e a0]
     X:    -0.0098      Y:    -0.0235      Z:     0.0836

  Electronic Dipole Moment: [e a0]
     X:     0.0177      Y:     0.0351      Z:    -0.0632

  Dipole Moment: [e a0]
     X:     0.0079      Y:     0.0117      Z:     0.0204     Total:     0.0248

  Dipole Moment: [D]
     X:     0.0201      Y:     0.0296      Z:     0.0518     Total:     0.0630

*** tstop() called on ds3 at Mon Apr 27 22:08:29 2020
Module time:
	user time   =       7.42 seconds =       0.12 minutes
	system time =       2.84 seconds =       0.05 minutes
	total time  =         10 seconds =       0.17 minutes
Total time:
	user time   =       7.42 seconds =       0.12 minutes
	system time =       2.84 seconds =       0.05 minutes
	total time  =         10 seconds =       0.17 minutes
                                     G D M A

                                 by Anthony Stone

                           version 2.2.06, 22 June 2011

               Distributed Multipoles from Gaussian wavefunctions

Starting at 22:8:29 on 27 Apr 2020

Using SCF density matrix from file ./SSI/SSI-016LEU-036LEU-1-dimer.test.320.fchk

                         Distributed Multipole Analysis

Standard DMA

Positions and radii in angstrom
Multipole moments in atomic units, ea_0^k for rank k

C          x =  0.980968  y =  0.381276  z =  1.636628 angstrom
           Maximum rank =  0   Radius =  0.650 angstrom
                   Q00  =  -0.232014

C          x =  0.880968  y = -0.802724  z =  2.595628 angstrom
           Maximum rank =  0   Radius =  0.650 angstrom
                   Q00  =  -0.237270

H          x =  1.515968  y =  0.083276  z =  0.735628 angstrom
           Maximum rank =  0   Radius =  0.325 angstrom
                   Q00  =   0.077860

H          x = -0.018032  y =  0.729276  z =  1.373628 angstrom
           Maximum rank =  0   Radius =  0.325 angstrom
                   Q00  =   0.078950

H          x =  1.512968  y =  1.200276  z =  2.114628 angstrom
           Maximum rank =  0   Radius =  0.325 angstrom
                   Q00  =   0.078928

H          x =  0.434968  y = -0.435724  z =  3.515628 angstrom
           Maximum rank =  0   Radius =  0.325 angstrom
                   Q00  =   0.076037

H          x =  1.876108  y = -1.211264  z =  2.825387 angstrom
           Maximum rank =  0   Radius =  0.325 angstrom
                   Q00  =   0.080070

H          x =  0.211658  y = -1.578554  z =  2.195481 angstrom
           Maximum rank =  0   Radius =  0.325 angstrom
                   Q00  =   0.078032

C          x = -0.383032  y =  0.602276  z = -1.764372 angstrom
           Maximum rank =  0   Radius =  0.650 angstrom
                   Q00  =  -0.237808

C          x = -1.478032  y = -0.178724  z = -2.475372 angstrom
           Maximum rank =  0   Radius =  0.650 angstrom
                   Q00  =  -0.229483

H          x = -0.797032  y =  1.334276  z = -1.072372 angstrom
           Maximum rank =  0   Radius =  0.325 angstrom
                   Q00  =   0.080045

H          x =  0.228968  y = -0.096724  z = -1.194372 angstrom
           Maximum rank =  0   Radius =  0.325 angstrom
                   Q00  =   0.077052

H          x =  0.247968  y =  1.086276  z = -2.503372 angstrom
           Maximum rank =  0   Radius =  0.325 angstrom
                   Q00  =   0.077477

H          x = -2.075032  y = -0.673724  z = -1.716372 angstrom
           Maximum rank =  0   Radius =  0.325 angstrom
                   Q00  =   0.075808

H          x = -2.116405  y =  0.491966  z = -3.069224 angstrom
           Maximum rank =  0   Radius =  0.325 angstrom
                   Q00  =   0.078376

H          x = -1.032512  y = -0.954414  z = -3.115536 angstrom
           Maximum rank =  0   Radius =  0.325 angstrom
                   Q00  =   0.077940

Total multipoles referred to origin at
           x =   0.000000,  y =    0.000000,  z =    0.000000 angstrom
                   Q00  =  -0.000000

Finished at 22:8:29 on 27 Apr 2020

  DMA results are available in the Python driver through the
	  variable('DMA DISTRIBUTED MULTIPOLES')
  and
	  variable('DMA TOTAL MULTIPOLES')
  commands.

    Psi4 stopped on: Monday, 27 April 2020 10:08PM
    Psi4 wall time for execution: 0:00:10.11

*** Psi4 exiting successfully. Buy a developer a beer!
