                               Psi4 1.3.2 release

  ==> Input File <==

--------------------------------------------------------------------------
import numpy as np
set {scf_type pk
basis cc-pvdz
d_convergence 10
gdma_switch   0
gdma_limit    0
gdma_origin   [ 0.0,  0.0,  0.0 ]
}
molecule test {
    units Angstrom
    0 1
    --
    0 1
    C                0.852202195430076     0.480959419851727    -2.029661953103640
    C                1.112202195430076    -1.019040580148273    -1.975661953103640
    H                1.540202195430076     0.949959419851727    -2.735661953103640
    H               -0.174797804569924     0.661959419851727    -2.354661953103640
    H                0.981202195430076     0.936959419851727    -1.047661953103640
    H                0.423202195430076    -1.462040580148273    -1.258661953103640
    H                2.142217195430076    -1.250239580148273    -1.666442953103640
    H                0.911568195430076    -1.447317580148273    -2.968800953103640
    C               -0.640797804569924     0.516959419851727     1.365338046896360
    C               -1.314797804569924     0.016959419851727     2.640338046896360
    H               -0.957797804569924    -0.081040580148273     0.510338046896360
    H               -0.903797804569924     1.555959419851727     1.188338046896360
    H                0.443202195430076     0.474959419851727     1.465338046896360
    H               -2.392797804569924     0.054959419851727     2.483338046896360
    H               -1.024159804569924    -1.015626580148273     2.883848046896360
    H               -1.093127804569924     0.671068419851727     3.496498046896360

}
e, wfn = energy('scf', return_wfn=True)
gdma(wfn)
dmavals = variable('DMA DISTRIBUTED MULTIPOLES')
charges = np.array(dmavals)
print(charges)
np.save('SSI-040THR-048VAL-1-dimer.npy', np.array(charges))--------------------------------------------------------------------------

*** tstart() called on ds3
*** at Tue Apr 28 11:54:05 2020

   => Loading Basis Set <=

    Name: CC-PVDZ
    Role: ORBITAL
    Keyword: BASIS
    atoms 1-2, 9-10  entry C          line   138 file /theoryfs2/ds/metcalf/miniconda2/envs/tf2gpu/share/psi4/basis/cc-pvdz.gbs
    atoms 3-8, 11-16 entry H          line    22 file /theoryfs2/ds/metcalf/miniconda2/envs/tf2gpu/share/psi4/basis/cc-pvdz.gbs

         ---------------------------------------------------------
                                   SCF
               by Justin Turney, Rob Parrish, Andy Simmonett
                          and Daniel G. A. Smith
                              RHF Reference
                        1 Threads,    500 MiB Core
         ---------------------------------------------------------

  ==> Geometry <==

    Molecular point group: c1
    Full point group: C1

    Geometry (in Angstrom), charge = 0, multiplicity = 1:

       Center              X                  Y                   Z               Mass
    ------------   -----------------  -----------------  -----------------  -----------------
         C            0.852202195430     0.480959419852    -2.029661953104    12.000000000000
         C            1.112202195430    -1.019040580148    -1.975661953104    12.000000000000
         H            1.540202195430     0.949959419852    -2.735661953104     1.007825032230
         H           -0.174797804570     0.661959419852    -2.354661953104     1.007825032230
         H            0.981202195430     0.936959419852    -1.047661953104     1.007825032230
         H            0.423202195430    -1.462040580148    -1.258661953104     1.007825032230
         H            2.142217195430    -1.250239580148    -1.666442953104     1.007825032230
         H            0.911568195430    -1.447317580148    -2.968800953104     1.007825032230
         C           -0.640797804570     0.516959419852     1.365338046896    12.000000000000
         C           -1.314797804570     0.016959419852     2.640338046896    12.000000000000
         H           -0.957797804570    -0.081040580148     0.510338046896     1.007825032230
         H           -0.903797804570     1.555959419852     1.188338046896     1.007825032230
         H            0.443202195430     0.474959419852     1.465338046896     1.007825032230
         H           -2.392797804570     0.054959419852     2.483338046896     1.007825032230
         H           -1.024159804570    -1.015626580148     2.883848046896     1.007825032230
         H           -1.093127804570     0.671068419852     3.496498046896     1.007825032230

  Running in c1 symmetry.

  Rotational constants: A =      0.49126  B =      0.05082  C =      0.04776 [cm^-1]
  Rotational constants: A =  14727.53242  B =   1523.49071  C =   1431.67145 [MHz]
  Nuclear repulsion =  123.016047061914861

  Charge       = 0
  Multiplicity = 1
  Electrons    = 36
  Nalpha       = 18
  Nbeta        = 18

  ==> Algorithm <==

  SCF Algorithm Type is PK.
  DIIS enabled.
  MOM disabled.
  Fractional occupation disabled.
  Guess Type is SAD.
  Energy threshold   = 1.00e-06
  Density threshold  = 1.00e-10
  Integral threshold = 0.00e+00

  ==> Primary Basis <==

  Basis Set: CC-PVDZ
    Blend: CC-PVDZ
    Number of shells: 60
    Number of basis function: 116
    Number of Cartesian functions: 120
    Spherical Harmonics?: true
    Max angular momentum: 2

  ==> Pre-Iterations <==

   -------------------------------------------------------
    Irrep   Nso     Nmo     Nalpha   Nbeta   Ndocc  Nsocc
   -------------------------------------------------------
     A        116     116       0       0       0       0
   -------------------------------------------------------
    Total     116     116      18      18      18       0
   -------------------------------------------------------

  ==> Integral Setup <==

  Using integral reordering PK algorithm.
  Sizing the integral batches needed.
  Building batch lookup table.
   Calculation information:
      Number of atoms:                  16
      Number of AO shells:              60
      Number of primitives:            148
      Number of atomic orbitals:       120
      Number of basis functions:       116

      Integral cutoff                 1.00e-12
      Number of threads:                 1

	Batch   1 pq = [       0,    6786] index = [             0,23028291] size =     23028291
  Task number: 3
  Buffer size: 11059200
  Buffer per thread: 2
  We computed 1446846 shell quartets total.
  Whereas there are 1675365 unique shell quartets.

  ==> DiskJK: Disk-Based J/K Matrices <==

    J tasked:                  Yes
    K tasked:                  Yes
    wK tasked:                  No
    Memory [MiB]:              375
    Schwarz Cutoff:          1E-12

    OpenMP threads:              1

  Minimum eigenvalue in the overlap matrix is 6.5187268538E-03.
  Using Symmetric Orthogonalization.

  SCF Guess: Superposition of Atomic Densities via on-the-fly atomic UHF.

  ==> Iterations <==

                        Total Energy        Delta E     RMS |[F,P]|

   @RHF iter SAD:  -157.36088756552965   -1.57361e+02   0.00000e+00
   @RHF iter   1:  -158.30748948373571   -9.46602e-01   4.22011e-03 DIIS
   @RHF iter   2:  -158.44140563650632   -1.33916e-01   1.80226e-03 DIIS
   @RHF iter   3:  -158.46496553879837   -2.35599e-02   3.50476e-04 DIIS
   @RHF iter   4:  -158.46680800963802   -1.84247e-03   3.86228e-05 DIIS
   @RHF iter   5:  -158.46683142316047   -2.34135e-05   6.33905e-06 DIIS
   @RHF iter   6:  -158.46683202527885   -6.02118e-07   9.38060e-07 DIIS
   @RHF iter   7:  -158.46683203460751   -9.32866e-09   2.95033e-07 DIIS
   @RHF iter   8:  -158.46683203534366   -7.36151e-10   4.16467e-08 DIIS
   @RHF iter   9:  -158.46683203537214   -2.84786e-11   8.54333e-09 DIIS
   @RHF iter  10:  -158.46683203537341   -1.27898e-12   2.18477e-09 DIIS
   @RHF iter  11:  -158.46683203537256    8.52651e-13   4.51402e-10 DIIS
   @RHF iter  12:  -158.46683203537296   -3.97904e-13   1.38595e-10 DIIS
   @RHF iter  13:  -158.46683203537324   -2.84217e-13   2.64472e-11 DIIS
  Energy and wave function converged.

  ==> Post-Iterations <==

    Orbital Energies [Eh]
    ---------------------

    Doubly Occupied:

       1A    -11.219652     2A    -11.218188     3A    -11.217501
       4A    -11.215439     5A     -1.020378     6A     -1.017351
       7A     -0.839540     8A     -0.834309     9A     -0.602813
      10A     -0.598860    11A     -0.595421    12A     -0.594184
      13A     -0.505628    14A     -0.499662    15A     -0.487726
      16A     -0.486038    17A     -0.483643    18A     -0.480920

    Virtual:

      19A      0.172376    20A      0.197139    21A      0.226124
      22A      0.236226    23A      0.243111    24A      0.258253
      25A      0.262147    26A      0.273568    27A      0.279424
      28A      0.288523    29A      0.316287    30A      0.346505
      31A      0.389625    32A      0.420364    33A      0.579279
      34A      0.588005    35A      0.596563    36A      0.602609
      37A      0.606677    38A      0.633843    39A      0.679217
      40A      0.685648    41A      0.717812    42A      0.760836
      43A      0.846585    44A      0.868695    45A      0.886979
      46A      0.889893    47A      0.892582    48A      0.893572
      49A      0.906583    50A      0.907027    51A      0.918510
      52A      0.927187    53A      0.946697    54A      0.952003
      55A      0.976079    56A      1.009251    57A      1.123929
      58A      1.125498    59A      1.131515    60A      1.138776
      61A      1.239348    62A      1.250025    63A      1.459723
      64A      1.469579    65A      1.479632    66A      1.493845
      67A      1.573208    68A      1.586489    69A      1.681317
      70A      1.684592    71A      1.696128    72A      1.697965
      73A      1.852273    74A      1.855783    75A      1.867765
      76A      1.889571    77A      1.899980    78A      1.907913
      79A      1.926620    80A      1.937320    81A      1.945532
      82A      1.952461    83A      1.953553    84A      1.962077
      85A      1.965358    86A      1.974022    87A      1.991646
      88A      2.047430    89A      2.083810    90A      2.108054
      91A      2.116858    92A      2.121556    93A      2.298902
      94A      2.306020    95A      2.319591    96A      2.336258
      97A      2.447194    98A      2.452578    99A      2.470360
     100A      2.472625   101A      2.551256   102A      2.565977
     103A      2.571709   104A      2.578596   105A      2.756096
     106A      2.763613   107A      2.784242   108A      2.798162
     109A      2.853355   110A      2.855827   111A      2.860192
     112A      2.873380   113A      2.946207   114A      2.954355
     115A      2.964664   116A      2.967016

    Final Occupation by Irrep:
              A
    DOCC [    18 ]

  @RHF Final Energy:  -158.46683203537324

   => Energetics <=

    Nuclear Repulsion Energy =            123.0160470619148612
    One-Electron Energy =                -455.1312519848981424
    Two-Electron Energy =                 173.6483728876100088
    Total Energy =                       -158.4668320353732440

Computation Completed

Properties will be evaluated at   0.000000,   0.000000,   0.000000 [a0]

Properties computed using the SCF density matrix

  Nuclear Dipole Moment: [e a0]
     X:    -0.0983      Y:     0.0465      Z:    -0.0039

  Electronic Dipole Moment: [e a0]
     X:     0.0818      Y:    -0.0276      Z:     0.0146

  Dipole Moment: [e a0]
     X:    -0.0165      Y:     0.0189      Z:     0.0107     Total:     0.0273

  Dipole Moment: [D]
     X:    -0.0420      Y:     0.0480      Z:     0.0271     Total:     0.0693

*** tstop() called on ds3 at Tue Apr 28 11:54:17 2020
Module time:
	user time   =       8.21 seconds =       0.14 minutes
	system time =       3.20 seconds =       0.05 minutes
	total time  =         12 seconds =       0.20 minutes
Total time:
	user time   =       8.21 seconds =       0.14 minutes
	system time =       3.20 seconds =       0.05 minutes
	total time  =         12 seconds =       0.20 minutes
                                     G D M A

                                 by Anthony Stone

                           version 2.2.06, 22 June 2011

               Distributed Multipoles from Gaussian wavefunctions

Starting at 11:54:17 on 28 Apr 2020

Using SCF density matrix from file ./SSI/SSI-040THR-048VAL-1-dimer.test.18917.fchk

                         Distributed Multipole Analysis

Standard DMA

Positions and radii in angstrom
Multipole moments in atomic units, ea_0^k for rank k

C          x =  0.852202  y =  0.480959  z = -2.029662 angstrom
           Maximum rank =  0   Radius =  0.650 angstrom
                   Q00  =  -0.235883

C          x =  1.112202  y = -1.019041  z = -1.975662 angstrom
           Maximum rank =  0   Radius =  0.650 angstrom
                   Q00  =  -0.236263

H          x =  1.540202  y =  0.949959  z = -2.735662 angstrom
           Maximum rank =  0   Radius =  0.325 angstrom
                   Q00  =   0.077331

H          x = -0.174798  y =  0.661959  z = -2.354662 angstrom
           Maximum rank =  0   Radius =  0.325 angstrom
                   Q00  =   0.077071

H          x =  0.981202  y =  0.936959  z = -1.047662 angstrom
           Maximum rank =  0   Radius =  0.325 angstrom
                   Q00  =   0.082818

H          x =  0.423202  y = -1.462041  z = -1.258662 angstrom
           Maximum rank =  0   Radius =  0.325 angstrom
                   Q00  =   0.076854

H          x =  2.142217  y = -1.250240  z = -1.666443 angstrom
           Maximum rank =  0   Radius =  0.325 angstrom
                   Q00  =   0.080069

H          x =  0.911568  y = -1.447318  z = -2.968801 angstrom
           Maximum rank =  0   Radius =  0.325 angstrom
                   Q00  =   0.076824

C          x = -0.640798  y =  0.516959  z =  1.365338 angstrom
           Maximum rank =  0   Radius =  0.650 angstrom
                   Q00  =  -0.240513

C          x = -1.314798  y =  0.016959  z =  2.640338 angstrom
           Maximum rank =  0   Radius =  0.650 angstrom
                   Q00  =  -0.235662

H          x = -0.957798  y = -0.081041  z =  0.510338 angstrom
           Maximum rank =  0   Radius =  0.325 angstrom
                   Q00  =   0.081734

H          x = -0.903798  y =  1.555959  z =  1.188338 angstrom
           Maximum rank =  0   Radius =  0.325 angstrom
                   Q00  =   0.080474

H          x =  0.443202  y =  0.474959  z =  1.465338 angstrom
           Maximum rank =  0   Radius =  0.325 angstrom
                   Q00  =   0.076517

H          x = -2.392798  y =  0.054959  z =  2.483338 angstrom
           Maximum rank =  0   Radius =  0.325 angstrom
                   Q00  =   0.077478

H          x = -1.024160  y = -1.015627  z =  2.883848 angstrom
           Maximum rank =  0   Radius =  0.325 angstrom
                   Q00  =   0.081359

H          x = -1.093128  y =  0.671068  z =  3.496498 angstrom
           Maximum rank =  0   Radius =  0.325 angstrom
                   Q00  =   0.079791

Total multipoles referred to origin at
           x =   0.000000,  y =    0.000000,  z =    0.000000 angstrom
                   Q00  =  -0.000000

Finished at 11:54:17 on 28 Apr 2020

  DMA results are available in the Python driver through the
	  variable('DMA DISTRIBUTED MULTIPOLES')
  and
	  variable('DMA TOTAL MULTIPOLES')
  commands.

    Psi4 stopped on: Tuesday, 28 April 2020 11:54AM
    Psi4 wall time for execution: 0:00:12.04

*** Psi4 exiting successfully. Buy a developer a beer!
