                               Psi4 1.3.2 release

  ==> Input File <==

--------------------------------------------------------------------------
import numpy as np
set {scf_type pk
basis cc-pvdz
d_convergence 10
gdma_switch   0
gdma_limit    0
gdma_origin   [ 0.0,  0.0,  0.0 ]
}
molecule test {
    units Angstrom
    0 1
    --
    0 1
    C                0.831337339179979     1.697088938623892     0.850153886798910
    C                0.622337339179980     2.989088938623892     0.074153886798910
    H               -0.112662660820020     1.376088938623892     1.289153886798910
    H                1.194337339179980     0.925088938623892     0.172153886798910
    H                1.565337339179980     1.859088938623892     1.640153886798910
    H                1.575337339179980     3.285088938623892    -0.360846113201090
    H                0.294087339179979     3.789808938623892     0.753193886798910
    H               -0.089452660820020     2.838748938623892    -0.750926113201090
    C               -0.650662660820021    -1.661911061376108    -0.116846113201090
    C               -0.809662660820020    -3.022911061376108    -0.801846113201090
    H               -1.444662660820020    -1.524911061376108     0.616153886798910
    H                0.317337339179980    -1.614911061376108     0.383153886798910
    H               -0.706662660820020    -0.866911061376108    -0.862846113201090
    H               -0.011662660820020    -3.140911061376108    -1.532846113201090
    H               -1.779002660820020    -3.081271061376108    -1.318546113201090
    H               -0.723142660820021    -3.861141061376108    -0.094816113201090

}
e, wfn = energy('scf', return_wfn=True)
gdma(wfn)
dmavals = variable('DMA DISTRIBUTED MULTIPOLES')
charges = np.array(dmavals)
print(charges)
np.save('SSI-148ALA-158LEU-1-dimer.npy', np.array(charges))--------------------------------------------------------------------------

*** tstart() called on ds3
*** at Tue Apr 28 09:30:54 2020

   => Loading Basis Set <=

    Name: CC-PVDZ
    Role: ORBITAL
    Keyword: BASIS
    atoms 1-2, 9-10  entry C          line   138 file /theoryfs2/ds/metcalf/miniconda2/envs/tf2gpu/share/psi4/basis/cc-pvdz.gbs
    atoms 3-8, 11-16 entry H          line    22 file /theoryfs2/ds/metcalf/miniconda2/envs/tf2gpu/share/psi4/basis/cc-pvdz.gbs

         ---------------------------------------------------------
                                   SCF
               by Justin Turney, Rob Parrish, Andy Simmonett
                          and Daniel G. A. Smith
                              RHF Reference
                        1 Threads,    500 MiB Core
         ---------------------------------------------------------

  ==> Geometry <==

    Molecular point group: c1
    Full point group: C1

    Geometry (in Angstrom), charge = 0, multiplicity = 1:

       Center              X                  Y                   Z               Mass
    ------------   -----------------  -----------------  -----------------  -----------------
         C            0.831337339180     1.697088938624     0.850153886799    12.000000000000
         C            0.622337339180     2.989088938624     0.074153886799    12.000000000000
         H           -0.112662660820     1.376088938624     1.289153886799     1.007825032230
         H            1.194337339180     0.925088938624     0.172153886799     1.007825032230
         H            1.565337339180     1.859088938624     1.640153886799     1.007825032230
         H            1.575337339180     3.285088938624    -0.360846113201     1.007825032230
         H            0.294087339180     3.789808938624     0.753193886799     1.007825032230
         H           -0.089452660820     2.838748938624    -0.750926113201     1.007825032230
         C           -0.650662660820    -1.661911061376    -0.116846113201    12.000000000000
         C           -0.809662660820    -3.022911061376    -0.801846113201    12.000000000000
         H           -1.444662660820    -1.524911061376     0.616153886799     1.007825032230
         H            0.317337339180    -1.614911061376     0.383153886799     1.007825032230
         H           -0.706662660820    -0.866911061376    -0.862846113201     1.007825032230
         H           -0.011662660820    -3.140911061376    -1.532846113201     1.007825032230
         H           -1.779002660820    -3.081271061376    -1.318546113201     1.007825032230
         H           -0.723142660820    -3.861141061376    -0.094816113201     1.007825032230

  Running in c1 symmetry.

  Rotational constants: A =      0.67871  B =      0.04072  C =      0.03981 [cm^-1]
  Rotational constants: A =  20347.27392  B =   1220.83771  C =   1193.53818 [MHz]
  Nuclear repulsion =  119.821252272542594

  Charge       = 0
  Multiplicity = 1
  Electrons    = 36
  Nalpha       = 18
  Nbeta        = 18

  ==> Algorithm <==

  SCF Algorithm Type is PK.
  DIIS enabled.
  MOM disabled.
  Fractional occupation disabled.
  Guess Type is SAD.
  Energy threshold   = 1.00e-06
  Density threshold  = 1.00e-10
  Integral threshold = 0.00e+00

  ==> Primary Basis <==

  Basis Set: CC-PVDZ
    Blend: CC-PVDZ
    Number of shells: 60
    Number of basis function: 116
    Number of Cartesian functions: 120
    Spherical Harmonics?: true
    Max angular momentum: 2

  ==> Pre-Iterations <==

   -------------------------------------------------------
    Irrep   Nso     Nmo     Nalpha   Nbeta   Ndocc  Nsocc
   -------------------------------------------------------
     A        116     116       0       0       0       0
   -------------------------------------------------------
    Total     116     116      18      18      18       0
   -------------------------------------------------------

  ==> Integral Setup <==

  Using integral reordering PK algorithm.
  Sizing the integral batches needed.
  Building batch lookup table.
   Calculation information:
      Number of atoms:                  16
      Number of AO shells:              60
      Number of primitives:            148
      Number of atomic orbitals:       120
      Number of basis functions:       116

      Integral cutoff                 1.00e-12
      Number of threads:                 1

	Batch   1 pq = [       0,    6786] index = [             0,23028291] size =     23028291
  Task number: 3
  Buffer size: 11059200
  Buffer per thread: 2
  We computed 1342241 shell quartets total.
  Whereas there are 1675365 unique shell quartets.

  ==> DiskJK: Disk-Based J/K Matrices <==

    J tasked:                  Yes
    K tasked:                  Yes
    wK tasked:                  No
    Memory [MiB]:              375
    Schwarz Cutoff:          1E-12

    OpenMP threads:              1

  Minimum eigenvalue in the overlap matrix is 6.9561098559E-03.
  Using Symmetric Orthogonalization.

  SCF Guess: Superposition of Atomic Densities via on-the-fly atomic UHF.

  ==> Iterations <==

                        Total Energy        Delta E     RMS |[F,P]|

   @RHF iter SAD:  -157.34517866586071   -1.57345e+02   0.00000e+00
   @RHF iter   1:  -158.30771737299611   -9.62539e-01   4.22289e-03 DIIS
   @RHF iter   2:  -158.44152900119477   -1.33812e-01   1.80511e-03 DIIS
   @RHF iter   3:  -158.46514393792700   -2.36149e-02   3.50042e-04 DIIS
   @RHF iter   4:  -158.46698024302313   -1.83631e-03   3.88907e-05 DIIS
   @RHF iter   5:  -158.46700394079045   -2.36978e-05   6.70572e-06 DIIS
   @RHF iter   6:  -158.46700458928680   -6.48496e-07   1.19459e-06 DIIS
   @RHF iter   7:  -158.46700460266482   -1.33780e-08   3.15421e-07 DIIS
   @RHF iter   8:  -158.46700460356277   -8.97955e-10   3.68188e-08 DIIS
   @RHF iter   9:  -158.46700460358358   -2.08047e-11   6.67984e-09 DIIS
   @RHF iter  10:  -158.46700460358386   -2.84217e-13   1.78339e-09 DIIS
   @RHF iter  11:  -158.46700460358437   -5.11591e-13   5.35182e-10 DIIS
   @RHF iter  12:  -158.46700460358420    1.70530e-13   1.40893e-10 DIIS
   @RHF iter  13:  -158.46700460358375    4.54747e-13   2.02163e-11 DIIS
  Energy and wave function converged.

  ==> Post-Iterations <==

    Orbital Energies [Eh]
    ---------------------

    Doubly Occupied:

       1A    -11.218929     2A    -11.217717     3A    -11.217581
       4A    -11.215041     5A     -1.019811     6A     -1.016821
       7A     -0.838550     8A     -0.833026     9A     -0.601520
      10A     -0.598045    11A     -0.596816    12A     -0.595059
      13A     -0.504047    14A     -0.497268    15A     -0.488910
      16A     -0.484899    17A     -0.483086    18A     -0.481527

    Virtual:

      19A      0.173806    20A      0.193876    21A      0.222818
      22A      0.237396    23A      0.239066    24A      0.259670
      25A      0.265927    26A      0.274842    27A      0.281815
      28A      0.289482    29A      0.303706    30A      0.310733
      31A      0.393991    32A      0.402533    33A      0.569171
      34A      0.592804    35A      0.600270    36A      0.602934
      37A      0.610590    38A      0.632397    39A      0.671853
      40A      0.685746    41A      0.692438    42A      0.758738
      43A      0.845928    44A      0.879360    45A      0.883142
      46A      0.892531    47A      0.893307    48A      0.895226
      49A      0.895586    50A      0.909150    51A      0.916525
      52A      0.920215    53A      0.927181    54A      0.937594
      55A      0.964843    56A      0.985379    57A      1.125465
      58A      1.127446    59A      1.131153    60A      1.147843
      61A      1.226149    62A      1.244945    63A      1.464843
      64A      1.474857    65A      1.484143    66A      1.487189
      67A      1.563684    68A      1.582543    69A      1.679040
      70A      1.682774    71A      1.692132    72A      1.693858
      73A      1.852131    74A      1.860998    75A      1.862194
      76A      1.884990    77A      1.896344    78A      1.917470
      79A      1.938435    80A      1.941723    81A      1.943678
      82A      1.951692    83A      1.953824    84A      1.956781
      85A      1.961114    86A      1.967686    87A      1.974510
      88A      2.046864    89A      2.086638    90A      2.097980
      91A      2.113931    92A      2.121208    93A      2.294507
      94A      2.297509    95A      2.310913    96A      2.333104
      97A      2.447191    98A      2.457535    99A      2.463307
     100A      2.483984   101A      2.551651   102A      2.563192
     103A      2.571972   104A      2.576530   105A      2.756783
     106A      2.761077   107A      2.785503   108A      2.794412
     109A      2.844372   110A      2.849760   111A      2.855682
     112A      2.863643   113A      2.940394   114A      2.946692
     115A      2.956950   116A      2.967518

    Final Occupation by Irrep:
              A
    DOCC [    18 ]

  @RHF Final Energy:  -158.46700460358375

   => Energetics <=

    Nuclear Repulsion Energy =            119.8212522725425941
    One-Electron Energy =                -448.7592053754285075
    Two-Electron Energy =                 170.4709484993021533
    Total Energy =                       -158.4670046035837458

Computation Completed

Properties will be evaluated at   0.000000,   0.000000,   0.000000 [a0]

Properties computed using the SCF density matrix

  Nuclear Dipole Moment: [e a0]
     X:     0.0742      Y:    -0.0151      Z:    -0.0627

  Electronic Dipole Moment: [e a0]
     X:    -0.0568      Y:     0.0091      Z:     0.0644

  Dipole Moment: [e a0]
     X:     0.0174      Y:    -0.0060      Z:     0.0017     Total:     0.0185

  Dipole Moment: [D]
     X:     0.0443      Y:    -0.0154      Z:     0.0043     Total:     0.0471

*** tstop() called on ds3 at Tue Apr 28 09:31:05 2020
Module time:
	user time   =       7.86 seconds =       0.13 minutes
	system time =       3.00 seconds =       0.05 minutes
	total time  =         11 seconds =       0.18 minutes
Total time:
	user time   =       7.86 seconds =       0.13 minutes
	system time =       3.00 seconds =       0.05 minutes
	total time  =         11 seconds =       0.18 minutes
                                     G D M A

                                 by Anthony Stone

                           version 2.2.06, 22 June 2011

               Distributed Multipoles from Gaussian wavefunctions

Starting at 9:31:5 on 28 Apr 2020

Using SCF density matrix from file ./SSI/SSI-148ALA-158LEU-1-dimer.test.10687.fchk

                         Distributed Multipole Analysis

Standard DMA

Positions and radii in angstrom
Multipole moments in atomic units, ea_0^k for rank k

C          x =  0.831337  y =  1.697089  z =  0.850154 angstrom
           Maximum rank =  0   Radius =  0.650 angstrom
                   Q00  =  -0.231512

C          x =  0.622337  y =  2.989089  z =  0.074154 angstrom
           Maximum rank =  0   Radius =  0.650 angstrom
                   Q00  =  -0.235710

H          x = -0.112663  y =  1.376089  z =  1.289154 angstrom
           Maximum rank =  0   Radius =  0.325 angstrom
                   Q00  =   0.079017

H          x =  1.194337  y =  0.925089  z =  0.172154 angstrom
           Maximum rank =  0   Radius =  0.325 angstrom
                   Q00  =   0.079036

H          x =  1.565337  y =  1.859089  z =  1.640154 angstrom
           Maximum rank =  0   Radius =  0.325 angstrom
                   Q00  =   0.077910

H          x =  1.575337  y =  3.285089  z = -0.360846 angstrom
           Maximum rank =  0   Radius =  0.325 angstrom
                   Q00  =   0.075516

H          x =  0.294087  y =  3.789809  z =  0.753194 angstrom
           Maximum rank =  0   Radius =  0.325 angstrom
                   Q00  =   0.078006

H          x = -0.089453  y =  2.838749  z = -0.750926 angstrom
           Maximum rank =  0   Radius =  0.325 angstrom
                   Q00  =   0.078157

C          x = -0.650663  y = -1.661911  z = -0.116846 angstrom
           Maximum rank =  0   Radius =  0.650 angstrom
                   Q00  =  -0.234206

C          x = -0.809663  y = -3.022911  z = -0.801846 angstrom
           Maximum rank =  0   Radius =  0.650 angstrom
                   Q00  =  -0.242113

H          x = -1.444663  y = -1.524911  z =  0.616154 angstrom
           Maximum rank =  0   Radius =  0.325 angstrom
                   Q00  =   0.079921

H          x =  0.317337  y = -1.614911  z =  0.383154 angstrom
           Maximum rank =  0   Radius =  0.325 angstrom
                   Q00  =   0.080450

H          x = -0.706663  y = -0.866911  z = -0.862846 angstrom
           Maximum rank =  0   Radius =  0.325 angstrom
                   Q00  =   0.078869

H          x = -0.011663  y = -3.140911  z = -1.532846 angstrom
           Maximum rank =  0   Radius =  0.325 angstrom
                   Q00  =   0.077658

H          x = -1.779003  y = -3.081271  z = -1.318546 angstrom
           Maximum rank =  0   Radius =  0.325 angstrom
                   Q00  =   0.078944

H          x = -0.723143  y = -3.861141  z = -0.094816 angstrom
           Maximum rank =  0   Radius =  0.325 angstrom
                   Q00  =   0.080057

Total multipoles referred to origin at
           x =   0.000000,  y =    0.000000,  z =    0.000000 angstrom
                   Q00  =  -0.000000

Finished at 9:31:5 on 28 Apr 2020

  DMA results are available in the Python driver through the
	  variable('DMA DISTRIBUTED MULTIPOLES')
  and
	  variable('DMA TOTAL MULTIPOLES')
  commands.

    Psi4 stopped on: Tuesday, 28 April 2020 09:31AM
    Psi4 wall time for execution: 0:00:10.75

*** Psi4 exiting successfully. Buy a developer a beer!
