                               Psi4 1.3.2 release

  ==> Input File <==

--------------------------------------------------------------------------
import numpy as np
set {scf_type pk
basis cc-pvdz
d_convergence 10
gdma_switch   0
gdma_limit    0
gdma_origin   [ 0.0,  0.0,  0.0 ]
}
molecule test {
    units Angstrom
    1 1
    --
    1 1
    C                1.744937464759021     1.977236587272779    -0.612680676630948
    C                2.633937464759021     0.939236587272779     0.053319323369052
    H                2.346937464759021     2.767236587272779    -1.059680676630948
    H                1.167937464759021     1.491236587272779    -1.398680676630948
    H                1.053937464759021     2.409236587272779     0.110319323369052
    H                3.246937464759021     0.466236587272779    -0.714680676630948
    H                1.995937464759021     0.158236587272779     0.464319323369052
    H                3.280697464759021     1.310456587272779     0.861949323369052
    C               -0.745062535240979    -1.696763412727221    -1.525680676630948
    C               -0.919062535240979    -0.317763412727221     0.523319323369052
    N               -0.507062535240979    -1.400763412727221    -0.096680676630948
    N               -1.709062535240979     0.543236587272779    -0.102680676630948
    N               -0.540062535240979    -0.119763412727221     1.764319323369052
    H                0.019937464759021    -2.084763412727221     0.457319323369052
    H               -2.027062535240979     0.351236587272779    -1.037680676630948
    H               -2.028062535240979     1.377236587272779     0.369319323369052
    H                0.115937464759021    -0.777763412727221     2.202319323369052
    H               -0.823062535240979     0.707236587272779     2.264319323369052
    H               -0.608062535240979    -0.800763412727221    -2.135680676630948
    H               -1.754062535240979    -2.085763412727221    -1.671680676630948
    H               -0.016572535240979    -2.449803412727221    -1.860690676630948

}
e, wfn = energy('scf', return_wfn=True)
gdma(wfn)
dmavals = variable('DMA DISTRIBUTED MULTIPOLES')
charges = np.array(dmavals)
print(charges)
np.save('SSI-148ILE-204ARG-1-dimer.npy', np.array(charges))--------------------------------------------------------------------------

*** tstart() called on ds3
*** at Tue Apr 28 07:40:49 2020

   => Loading Basis Set <=

    Name: CC-PVDZ
    Role: ORBITAL
    Keyword: BASIS
    atoms 1-2, 9-10  entry C          line   138 file /theoryfs2/ds/metcalf/miniconda2/envs/tf2gpu/share/psi4/basis/cc-pvdz.gbs
    atoms 3-8, 14-21 entry H          line    22 file /theoryfs2/ds/metcalf/miniconda2/envs/tf2gpu/share/psi4/basis/cc-pvdz.gbs
    atoms 11-13      entry N          line   168 file /theoryfs2/ds/metcalf/miniconda2/envs/tf2gpu/share/psi4/basis/cc-pvdz.gbs

         ---------------------------------------------------------
                                   SCF
               by Justin Turney, Rob Parrish, Andy Simmonett
                          and Daniel G. A. Smith
                              RHF Reference
                        1 Threads,    500 MiB Core
         ---------------------------------------------------------

  ==> Geometry <==

    Molecular point group: c1
    Full point group: C1

    Geometry (in Angstrom), charge = 1, multiplicity = 1:

       Center              X                  Y                   Z               Mass
    ------------   -----------------  -----------------  -----------------  -----------------
         C            1.744937464759     1.977236587273    -0.612680676631    12.000000000000
         C            2.633937464759     0.939236587273     0.053319323369    12.000000000000
         H            2.346937464759     2.767236587273    -1.059680676631     1.007825032230
         H            1.167937464759     1.491236587273    -1.398680676631     1.007825032230
         H            1.053937464759     2.409236587273     0.110319323369     1.007825032230
         H            3.246937464759     0.466236587273    -0.714680676631     1.007825032230
         H            1.995937464759     0.158236587273     0.464319323369     1.007825032230
         H            3.280697464759     1.310456587273     0.861949323369     1.007825032230
         C           -0.745062535241    -1.696763412727    -1.525680676631    12.000000000000
         C           -0.919062535241    -0.317763412727     0.523319323369    12.000000000000
         N           -0.507062535241    -1.400763412727    -0.096680676631    14.003074004430
         N           -1.709062535241     0.543236587273    -0.102680676631    14.003074004430
         N           -0.540062535241    -0.119763412727     1.764319323369    14.003074004430
         H            0.019937464759    -2.084763412727     0.457319323369     1.007825032230
         H           -2.027062535241     0.351236587273    -1.037680676631     1.007825032230
         H           -2.028062535241     1.377236587273     0.369319323369     1.007825032230
         H            0.115937464759    -0.777763412727     2.202319323369     1.007825032230
         H           -0.823062535241     0.707236587273     2.264319323369     1.007825032230
         H           -0.608062535241    -0.800763412727    -2.135680676631     1.007825032230
         H           -1.754062535241    -2.085763412727    -1.671680676631     1.007825032230
         H           -0.016572535241    -2.449803412727    -1.860690676631     1.007825032230

  Running in c1 symmetry.

  Rotational constants: A =      0.08750  B =      0.04451  C =      0.03947 [cm^-1]
  Rotational constants: A =   2623.29831  B =   1334.30646  C =   1183.37838 [MHz]
  Nuclear repulsion =  332.248691132199440

  Charge       = 1
  Multiplicity = 1
  Electrons    = 58
  Nalpha       = 29
  Nbeta        = 29

  ==> Algorithm <==

  SCF Algorithm Type is PK.
  DIIS enabled.
  MOM disabled.
  Fractional occupation disabled.
  Guess Type is SAD.
  Energy threshold   = 1.00e-06
  Density threshold  = 1.00e-10
  Integral threshold = 0.00e+00

  ==> Primary Basis <==

  Basis Set: CC-PVDZ
    Blend: CC-PVDZ
    Number of shells: 84
    Number of basis function: 168
    Number of Cartesian functions: 175
    Spherical Harmonics?: true
    Max angular momentum: 2

  ==> Pre-Iterations <==

   -------------------------------------------------------
    Irrep   Nso     Nmo     Nalpha   Nbeta   Ndocc  Nsocc
   -------------------------------------------------------
     A        168     168       0       0       0       0
   -------------------------------------------------------
    Total     168     168      29      29      29       0
   -------------------------------------------------------

  ==> Integral Setup <==

  Using integral reordering PK algorithm.
  Sizing the integral batches needed.
  Building batch lookup table.
   Calculation information:
      Number of atoms:                  21
      Number of AO shells:              84
      Number of primitives:            224
      Number of atomic orbitals:       175
      Number of basis functions:       168

      Integral cutoff                 1.00e-12
      Number of threads:                 1

	Batch   1 pq = [       0,    9405] index = [             0,44231715] size =     44231715
	Batch   2 pq = [    9405,   13301] index = [      44231715,88464951] size =     44233236
	Batch   3 pq = [   13301,   14196] index = [      88464951,100770306] size =     12305355
  Task number: 10
  Buffer size: 11059200
  Buffer per thread: 2
  We computed 6522508 shell quartets total.
  Whereas there are 6374235 unique shell quartets.
     2.33 percent of shell quartets recomputed by reordering.

  ==> DiskJK: Disk-Based J/K Matrices <==

    J tasked:                  Yes
    K tasked:                  Yes
    wK tasked:                  No
    Memory [MiB]:              375
    Schwarz Cutoff:          1E-12

    OpenMP threads:              1

  Minimum eigenvalue in the overlap matrix is 3.3752619283E-03.
  Using Symmetric Orthogonalization.

  SCF Guess: Superposition of Atomic Densities via on-the-fly atomic UHF.

  ==> Iterations <==

                        Total Energy        Delta E     RMS |[F,P]|

   @RHF iter SAD:  -322.12369245931757   -3.22124e+02   0.00000e+00
   @RHF iter   1:  -322.61451884423877   -4.90826e-01   3.41596e-03 DIIS
   @RHF iter   2:  -322.78700091624216   -1.72482e-01   1.34544e-03 DIIS
   @RHF iter   3:  -322.81241546136283   -2.54145e-02   3.17627e-04 DIIS
   @RHF iter   4:  -322.81482892520381   -2.41346e-03   4.80788e-05 DIIS
   @RHF iter   5:  -322.81488784590829   -5.89207e-05   1.99496e-05 DIIS
   @RHF iter   6:  -322.81489567821035   -7.83230e-06   4.23907e-06 DIIS
   @RHF iter   7:  -322.81489628035200   -6.02142e-07   1.45290e-06 DIIS
   @RHF iter   8:  -322.81489632849025   -4.81382e-08   4.28669e-07 DIIS
   @RHF iter   9:  -322.81489633306353   -4.57328e-09   1.05713e-07 DIIS
   @RHF iter  10:  -322.81489633336577   -3.02236e-10   3.04009e-08 DIIS
   @RHF iter  11:  -322.81489633339368   -2.79101e-11   9.73303e-09 DIIS
   @RHF iter  12:  -322.81489633339720   -3.52429e-12   3.43319e-09 DIIS
   @RHF iter  13:  -322.81489633339748   -2.84217e-13   1.29152e-09 DIIS
   @RHF iter  14:  -322.81489633339874   -1.25056e-12   3.26510e-10 DIIS
   @RHF iter  15:  -322.81489633339783    9.09495e-13   7.65843e-11 DIIS
  Energy and wave function converged.

  ==> Post-Iterations <==

    Orbital Energies [Eh]
    ---------------------

    Doubly Occupied:

       1A    -15.789295     2A    -15.788903     3A    -15.787054
       4A    -11.588189     5A    -11.444644     6A    -11.333249
       7A    -11.332224     8A     -1.547468     9A     -1.398676
      10A     -1.393090    11A     -1.142516    12A     -1.136909
      13A     -1.036691    14A     -0.975315    15A     -0.953781
      16A     -0.942908    17A     -0.857524    18A     -0.857231
      19A     -0.827464    20A     -0.791324    21A     -0.745799
      22A     -0.724792    23A     -0.714244    24A     -0.712385
      25A     -0.623070    26A     -0.619929    27A     -0.600188
      28A     -0.597850    29A     -0.586013

    Virtual:

      30A     -0.016488    31A      0.020865    32A      0.023963
      33A      0.029259    34A      0.058892    35A      0.070573
      36A      0.092193    37A      0.109629    38A      0.119679
      39A      0.122919    40A      0.137782    41A      0.157367
      42A      0.167498    43A      0.175460    44A      0.184193
      45A      0.218837    46A      0.281803    47A      0.282833
      48A      0.333598    49A      0.344760    50A      0.427235
      51A      0.457030    52A      0.468958    53A      0.479853
      54A      0.495038    55A      0.507445    56A      0.524022
      57A      0.533638    58A      0.538583    59A      0.554475
      60A      0.587821    61A      0.590327    62A      0.680856
      63A      0.684013    64A      0.691055    65A      0.706432
      66A      0.715672    67A      0.730021    68A      0.741027
      69A      0.749162    70A      0.769796    71A      0.776930
      72A      0.785016    73A      0.792699    74A      0.802987
      75A      0.815618    76A      0.843064    77A      0.859816
      78A      0.879020    79A      0.895200    80A      0.914389
      81A      0.932645    82A      0.943120    83A      1.003903
      84A      1.018152    85A      1.025302    86A      1.066308
      87A      1.113110    88A      1.131376    89A      1.151484
      90A      1.163348    91A      1.205687    92A      1.212523
      93A      1.227158    94A      1.281175    95A      1.338452
      96A      1.370176    97A      1.405403    98A      1.436959
      99A      1.490309   100A      1.510154   101A      1.529710
     102A      1.545252   103A      1.574867   104A      1.588351
     105A      1.609436   106A      1.612799   107A      1.654438
     108A      1.678653   109A      1.714137   110A      1.726704
     111A      1.735612   112A      1.754095   113A      1.763198
     114A      1.773982   115A      1.775670   116A      1.784926
     117A      1.820829   118A      1.830390   119A      1.838851
     120A      1.848554   121A      1.853144   122A      1.862031
     123A      1.870427   124A      1.884641   125A      1.899959
     126A      1.977431   127A      2.004053   128A      2.009584
     129A      2.032170   130A      2.050746   131A      2.111176
     132A      2.139770   133A      2.157148   134A      2.196572
     135A      2.209954   136A      2.229364   137A      2.262859
     138A      2.278172   139A      2.311975   140A      2.337379
     141A      2.350697   142A      2.365250   143A      2.374813
     144A      2.437985   145A      2.443240   146A      2.450803
     147A      2.473539   148A      2.537653   149A      2.580072
     150A      2.610159   151A      2.614996   152A      2.661348
     153A      2.684544   154A      2.718194   155A      2.751112
     156A      2.760730   157A      2.765478   158A      2.794104
     159A      2.814918   160A      2.829412   161A      2.845649
     162A      2.873738   163A      2.895491   164A      3.056679
     165A      3.092848   166A      3.123499   167A      3.576166
     168A      3.634013

    Final Occupation by Irrep:
              A
    DOCC [    29 ]

  @RHF Final Energy:  -322.81489633339783

   => Energetics <=

    Nuclear Repulsion Energy =            332.2486911321994398
    One-Electron Energy =               -1084.4297188993468808
    Two-Electron Energy =                 429.3661314337496719
    Total Energy =                       -322.8148963333978259

Computation Completed

Properties will be evaluated at   0.000000,   0.000000,   0.000000 [a0]

Properties computed using the SCF density matrix

  Nuclear Dipole Moment: [e a0]
     X:     5.6060      Y:     2.6648      Z:    -2.9566

  Electronic Dipole Moment: [e a0]
     X:    -7.0732      Y:    -3.3631      Z:     3.5654

  Dipole Moment: [e a0]
     X:    -1.4672      Y:    -0.6983      Z:     0.6089     Total:     1.7353

  Dipole Moment: [D]
     X:    -3.7293      Y:    -1.7750      Z:     1.5475     Total:     4.4106

*** tstop() called on ds3 at Tue Apr 28 07:41:38 2020
Module time:
	user time   =      37.17 seconds =       0.62 minutes
	system time =      13.26 seconds =       0.22 minutes
	total time  =         49 seconds =       0.82 minutes
Total time:
	user time   =      37.17 seconds =       0.62 minutes
	system time =      13.26 seconds =       0.22 minutes
	total time  =         49 seconds =       0.82 minutes
                                     G D M A

                                 by Anthony Stone

                           version 2.2.06, 22 June 2011

               Distributed Multipoles from Gaussian wavefunctions

Starting at 7:41:38 on 28 Apr 2020

Using SCF density matrix from file ./SSI/SSI-148ILE-204ARG-1-dimer.test.6576.fchk

                         Distributed Multipole Analysis

Standard DMA

Positions and radii in angstrom
Multipole moments in atomic units, ea_0^k for rank k

C          x =  1.744937  y =  1.977237  z = -0.612681 angstrom
           Maximum rank =  0   Radius =  0.650 angstrom
                   Q00  =  -0.227229

C          x =  2.633937  y =  0.939237  z =  0.053319 angstrom
           Maximum rank =  0   Radius =  0.650 angstrom
                   Q00  =  -0.230066

H          x =  2.346937  y =  2.767237  z = -1.059681 angstrom
           Maximum rank =  0   Radius =  0.325 angstrom
                   Q00  =   0.115517

H          x =  1.167937  y =  1.491237  z = -1.398681 angstrom
           Maximum rank =  0   Radius =  0.325 angstrom
                   Q00  =   0.060147

H          x =  1.053937  y =  2.409237  z =  0.110319 angstrom
           Maximum rank =  0   Radius =  0.325 angstrom
                   Q00  =   0.056464

H          x =  3.246937  y =  0.466237  z = -0.714681 angstrom
           Maximum rank =  0   Radius =  0.325 angstrom
                   Q00  =   0.096213

H          x =  1.995937  y =  0.158237  z =  0.464319 angstrom
           Maximum rank =  0   Radius =  0.325 angstrom
                   Q00  =   0.021165

H          x =  3.280697  y =  1.310457  z =  0.861949 angstrom
           Maximum rank =  0   Radius =  0.325 angstrom
                   Q00  =   0.104705

C          x = -0.745063  y = -1.696763  z = -1.525681 angstrom
           Maximum rank =  0   Radius =  0.650 angstrom
                   Q00  =  -0.133182

C          x = -0.919063  y = -0.317763  z =  0.523319 angstrom
           Maximum rank =  0   Radius =  0.650 angstrom
                   Q00  =   1.088729

N          x = -0.507063  y = -1.400763  z = -0.096681 angstrom
           Maximum rank =  0   Radius =  0.650 angstrom
                   Q00  =  -0.500390

N          x = -1.709063  y =  0.543237  z = -0.102681 angstrom
           Maximum rank =  0   Radius =  0.650 angstrom
                   Q00  =  -0.588832

N          x = -0.540063  y = -0.119763  z =  1.764319 angstrom
           Maximum rank =  0   Radius =  0.650 angstrom
                   Q00  =  -0.599128

H          x =  0.019937  y = -2.084763  z =  0.457319 angstrom
           Maximum rank =  0   Radius =  0.325 angstrom
                   Q00  =   0.239334

H          x = -2.027063  y =  0.351237  z = -1.037681 angstrom
           Maximum rank =  0   Radius =  0.325 angstrom
                   Q00  =   0.273303

H          x = -2.028063  y =  1.377237  z =  0.369319 angstrom
           Maximum rank =  0   Radius =  0.325 angstrom
                   Q00  =   0.268183

H          x =  0.115937  y = -0.777763  z =  2.202319 angstrom
           Maximum rank =  0   Radius =  0.325 angstrom
                   Q00  =   0.274293

H          x = -0.823063  y =  0.707237  z =  2.264319 angstrom
           Maximum rank =  0   Radius =  0.325 angstrom
                   Q00  =   0.267980

H          x = -0.608063  y = -0.800763  z = -2.135681 angstrom
           Maximum rank =  0   Radius =  0.325 angstrom
                   Q00  =   0.118922

H          x = -1.754063  y = -2.085763  z = -1.671681 angstrom
           Maximum rank =  0   Radius =  0.325 angstrom
                   Q00  =   0.125424

H          x = -0.016573  y = -2.449803  z = -1.860691 angstrom
           Maximum rank =  0   Radius =  0.325 angstrom
                   Q00  =   0.168449

Total multipoles referred to origin at
           x =   0.000000,  y =    0.000000,  z =    0.000000 angstrom
                   Q00  =   1.000000

Finished at 7:41:38 on 28 Apr 2020

  DMA results are available in the Python driver through the
	  variable('DMA DISTRIBUTED MULTIPOLES')
  and
	  variable('DMA TOTAL MULTIPOLES')
  commands.

    Psi4 stopped on: Tuesday, 28 April 2020 07:41AM
    Psi4 wall time for execution: 0:00:49.41

*** Psi4 exiting successfully. Buy a developer a beer!
