                               Psi4 1.3.2 release

  ==> Input File <==

--------------------------------------------------------------------------
import numpy as np
set {scf_type pk
basis cc-pvdz
d_convergence 10
gdma_switch   0
gdma_limit    0
gdma_origin   [ 0.0,  0.0,  0.0 ]
}
molecule test {
    units Angstrom
    0 1
    --
    0 1
    C                1.458349308448959    -1.974774871086003    -2.885441264826155
    C               -0.875650691551041     0.807225128913997    -0.645441264826155
    C               -1.348650691551041    -0.428774871086003    -0.913441264826155
    C                0.377349308448959     1.189225128913997    -1.082441264826155
    C               -0.601650691551041    -1.294774871086003    -1.662441264826156
    C                1.168349308448959     0.294225128913997    -1.831441264826155
    C                0.664349308448959    -0.954774871086003    -2.130441264826155
    H               -1.477650691551041     1.495225128913997    -0.069441264826155
    H               -2.310650691551041    -0.737774871086003    -0.529441264826155
    H                0.760349308448959     2.169225128913997    -0.829441264826155
    H               -0.996650691551041    -2.274774871086003    -1.884441264826155
    H                2.158349308448959     0.583225128913997    -2.158441264826156
    H                1.255349308448959    -2.959774871086003    -2.459441264826155
    H                2.519349308448959    -1.771774871086003    -2.738441264826155
    H                1.228269308448959    -1.999294871086003    -3.960830264826155
    C               -0.340650691551041     0.807225128913997     2.840558735173845
    C               -1.492650691551041     0.322225128913997     3.699558735173845
    C                0.921349308448959     1.187225128913997     3.556558735173844
    H               -0.070650691551041    -0.012774871086003     2.178558735173845
    H               -0.679650691551041     1.607225128913997     2.181558735173844
    H               -1.925650691551041     1.176225128913997     4.223558735173845
    H                1.097349308448959     0.570225128913997     4.434558735173845
    H                1.756349308448959     1.026225128913997     2.872558735173845
    H               -1.180687691551041    -0.445974871086003     4.422438735173845
    H               -2.237972691551041    -0.130034871086003     3.028768735173844
    H                0.931806308448959     2.249325128913997     3.842628735173845

}
e, wfn = energy('scf', return_wfn=True)
gdma(wfn)
dmavals = variable('DMA DISTRIBUTED MULTIPOLES')
charges = np.array(dmavals)
print(charges)
np.save('SSI-046PHE-119GLN-2-dimer.npy', np.array(charges))--------------------------------------------------------------------------

*** tstart() called on ds3
*** at Mon Apr 27 03:37:37 2020

   => Loading Basis Set <=

    Name: CC-PVDZ
    Role: ORBITAL
    Keyword: BASIS
    atoms 1-7, 16-18  entry C          line   138 file /theoryfs2/ds/metcalf/miniconda2/envs/tf2gpu/share/psi4/basis/cc-pvdz.gbs
    atoms 8-15, 19-26 entry H          line    22 file /theoryfs2/ds/metcalf/miniconda2/envs/tf2gpu/share/psi4/basis/cc-pvdz.gbs

         ---------------------------------------------------------
                                   SCF
               by Justin Turney, Rob Parrish, Andy Simmonett
                          and Daniel G. A. Smith
                              RHF Reference
                        1 Threads,    500 MiB Core
         ---------------------------------------------------------

  ==> Geometry <==

    Molecular point group: c1
    Full point group: C1

    Geometry (in Angstrom), charge = 0, multiplicity = 1:

       Center              X                  Y                   Z               Mass
    ------------   -----------------  -----------------  -----------------  -----------------
         C            1.458349308449    -1.974774871086    -2.885441264826    12.000000000000
         C           -0.875650691551     0.807225128914    -0.645441264826    12.000000000000
         C           -1.348650691551    -0.428774871086    -0.913441264826    12.000000000000
         C            0.377349308449     1.189225128914    -1.082441264826    12.000000000000
         C           -0.601650691551    -1.294774871086    -1.662441264826    12.000000000000
         C            1.168349308449     0.294225128914    -1.831441264826    12.000000000000
         C            0.664349308449    -0.954774871086    -2.130441264826    12.000000000000
         H           -1.477650691551     1.495225128914    -0.069441264826     1.007825032230
         H           -2.310650691551    -0.737774871086    -0.529441264826     1.007825032230
         H            0.760349308449     2.169225128914    -0.829441264826     1.007825032230
         H           -0.996650691551    -2.274774871086    -1.884441264826     1.007825032230
         H            2.158349308449     0.583225128914    -2.158441264826     1.007825032230
         H            1.255349308449    -2.959774871086    -2.459441264826     1.007825032230
         H            2.519349308449    -1.771774871086    -2.738441264826     1.007825032230
         H            1.228269308449    -1.999294871086    -3.960830264826     1.007825032230
         C           -0.340650691551     0.807225128914     2.840558735174    12.000000000000
         C           -1.492650691551     0.322225128914     3.699558735174    12.000000000000
         C            0.921349308449     1.187225128914     3.556558735174    12.000000000000
         H           -0.070650691551    -0.012774871086     2.178558735174     1.007825032230
         H           -0.679650691551     1.607225128914     2.181558735174     1.007825032230
         H           -1.925650691551     1.176225128914     4.223558735174     1.007825032230
         H            1.097349308449     0.570225128914     4.434558735174     1.007825032230
         H            1.756349308449     1.026225128914     2.872558735174     1.007825032230
         H           -1.180687691551    -0.445974871086     4.422438735174     1.007825032230
         H           -2.237972691551    -0.130034871086     3.028768735174     1.007825032230
         H            0.931806308449     2.249325128914     3.842628735174     1.007825032230

  Running in c1 symmetry.

  Rotational constants: A =      0.07127  B =      0.01691  C =      0.01607 [cm^-1]
  Rotational constants: A =   2136.61784  B =    506.83749  C =    481.63344 [MHz]
  Nuclear repulsion =  485.607852493375503

  Charge       = 0
  Multiplicity = 1
  Electrons    = 76
  Nalpha       = 38
  Nbeta        = 38

  ==> Algorithm <==

  SCF Algorithm Type is PK.
  DIIS enabled.
  MOM disabled.
  Fractional occupation disabled.
  Guess Type is SAD.
  Energy threshold   = 1.00e-06
  Density threshold  = 1.00e-10
  Integral threshold = 0.00e+00

  ==> Primary Basis <==

  Basis Set: CC-PVDZ
    Blend: CC-PVDZ
    Number of shells: 108
    Number of basis function: 220
    Number of Cartesian functions: 230
    Spherical Harmonics?: true
    Max angular momentum: 2

  ==> Pre-Iterations <==

   -------------------------------------------------------
    Irrep   Nso     Nmo     Nalpha   Nbeta   Ndocc  Nsocc
   -------------------------------------------------------
     A        220     220       0       0       0       0
   -------------------------------------------------------
    Total     220     220      38      38      38       0
   -------------------------------------------------------

  ==> Integral Setup <==

  Using integral reordering PK algorithm.
  Sizing the integral batches needed.
  Building batch lookup table.
   Calculation information:
      Number of atoms:                  26
      Number of AO shells:             108
      Number of primitives:            300
      Number of atomic orbitals:       230
      Number of basis functions:       220

      Integral cutoff                 1.00e-12
      Number of threads:                 1

	Batch   1 pq = [       0,    9405] index = [             0,44231715] size =     44231715
	Batch   2 pq = [    9405,   13301] index = [      44231715,88464951] size =     44233236
	Batch   3 pq = [   13301,   16290] index = [      88464951,132690195] size =     44225244
	Batch   4 pq = [   16290,   18810] index = [     132690195,176917455] size =     44227260
	Batch   5 pq = [   18810,   21030] index = [     176917455,221140965] size =     44223510
	Batch   6 pq = [   21030,   23037] index = [     221140965,265363203] size =     44222238
	Batch   7 pq = [   23037,   24310] index = [     265363203,295500205] size =     30137002
  Task number: 27
  Buffer size: 11059200
  Buffer per thread: 2
  We computed 14606685 shell quartets total.
  Whereas there are 17325441 unique shell quartets.

  ==> DiskJK: Disk-Based J/K Matrices <==

    J tasked:                  Yes
    K tasked:                  Yes
    wK tasked:                  No
    Memory [MiB]:              375
    Schwarz Cutoff:          1E-12

    OpenMP threads:              1

  Minimum eigenvalue in the overlap matrix is 2.8734959247E-04.
  Using Symmetric Orthogonalization.

  SCF Guess: Superposition of Atomic Densities via on-the-fly atomic UHF.

  ==> Iterations <==

                        Total Energy        Delta E     RMS |[F,P]|

   @RHF iter SAD:  -387.09818936408499   -3.87098e+02   0.00000e+00
   @RHF iter   1:  -387.75437112128537   -6.56182e-01   2.81989e-03 DIIS
   @RHF iter   2:  -387.98064719623363   -2.26276e-01   1.20706e-03 DIIS
   @RHF iter   3:  -388.01860856805257   -3.79614e-02   2.53500e-04 DIIS
   @RHF iter   4:  -388.02155939809177   -2.95083e-03   5.36423e-05 DIIS
   @RHF iter   5:  -388.02165428306887   -9.48850e-05   1.59264e-05 DIIS
   @RHF iter   6:  -388.02166276707044   -8.48400e-06   4.93555e-06 DIIS
   @RHF iter   7:  -388.02166363466358   -8.67593e-07   1.21730e-06 DIIS
   @RHF iter   8:  -388.02166372523334   -9.05698e-08   4.33943e-07 DIIS
   @RHF iter   9:  -388.02166374855392   -2.33206e-08   2.20425e-07 DIIS
   @RHF iter  10:  -388.02166375495216   -6.39824e-09   1.03283e-07 DIIS
   @RHF iter  11:  -388.02166375636699   -1.41483e-09   3.26390e-08 DIIS
   @RHF iter  12:  -388.02166375649745   -1.30456e-10   1.36784e-08 DIIS
   @RHF iter  13:  -388.02166375650432   -6.87805e-12   3.98335e-09 DIIS
   @RHF iter  14:  -388.02166375650705   -2.72848e-12   1.21683e-09 DIIS
   @RHF iter  15:  -388.02166375650796   -9.09495e-13   5.95265e-10 DIIS
   @RHF iter  16:  -388.02166375650700    9.66338e-13   2.61680e-10 DIIS
   @RHF iter  17:  -388.02166375650802   -1.02318e-12   9.90621e-11 DIIS
  Energy and wave function converged.

  ==> Post-Iterations <==

    Orbital Energies [Eh]
    ---------------------

    Doubly Occupied:

       1A    -11.237034     2A    -11.234979     3A    -11.231575
       4A    -11.228608     5A    -11.226911     6A    -11.225066
       7A    -11.224014     8A    -11.213622     9A    -11.209616
      10A    -11.208945    11A     -1.160750    12A     -1.054610
      13A     -1.050964    14A     -1.012913    15A     -0.933514
      16A     -0.925294    17A     -0.828989    18A     -0.795638
      19A     -0.789326    20A     -0.694740    21A     -0.635810
      22A     -0.628003    23A     -0.621784    24A     -0.592499
      25A     -0.583179    26A     -0.578398    27A     -0.563512
      28A     -0.549801    29A     -0.535326    30A     -0.532933
      31A     -0.493668    32A     -0.485654    33A     -0.481679
      34A     -0.470343    35A     -0.467277    36A     -0.448766
      37A     -0.334397    38A     -0.323643

    Virtual:

      39A      0.135073    40A      0.146181    41A      0.169366
      42A      0.192169    43A      0.203857    44A      0.208478
      45A      0.227327    46A      0.234054    47A      0.242731
      48A      0.254400    49A      0.260370    50A      0.264418
      51A      0.278456    52A      0.287986    53A      0.294351
      54A      0.301600    55A      0.309002    56A      0.342675
      57A      0.374792    58A      0.379143    59A      0.382043
      60A      0.439040    61A      0.463357    62A      0.469139
      63A      0.479794    64A      0.496243    65A      0.564044
      66A      0.582363    67A      0.590098    68A      0.606176
      69A      0.614468    70A      0.620902    71A      0.638537
      72A      0.645905    73A      0.685763    74A      0.693468
      75A      0.706013    76A      0.734476    77A      0.738747
      78A      0.740555    79A      0.750081    80A      0.761148
      81A      0.762380    82A      0.775147    83A      0.786636
      84A      0.811590    85A      0.821876    86A      0.835091
      87A      0.848570    88A      0.859296    89A      0.865981
      90A      0.875227    91A      0.889484    92A      0.892274
      93A      0.896920    94A      0.900246    95A      0.908390
      96A      0.909314    97A      0.916496    98A      0.925332
      99A      0.928015   100A      0.938630   101A      0.940145
     102A      0.942077   103A      0.968567   104A      0.978412
     105A      0.996149   106A      1.010731   107A      1.014533
     108A      1.053758   109A      1.114110   110A      1.115334
     111A      1.136888   112A      1.145736   113A      1.158295
     114A      1.176626   115A      1.193082   116A      1.214396
     117A      1.239764   118A      1.261010   119A      1.265275
     120A      1.271712   121A      1.304712   122A      1.316130
     123A      1.330796   124A      1.344227   125A      1.407973
     126A      1.416886   127A      1.469869   128A      1.488010
     129A      1.511665   130A      1.525086   131A      1.537731
     132A      1.559105   133A      1.598540   134A      1.649977
     135A      1.668409   136A      1.687154   137A      1.695629
     138A      1.702653   139A      1.708080   140A      1.733411
     141A      1.764691   142A      1.787011   143A      1.801083
     144A      1.816390   145A      1.859028   146A      1.864686
     147A      1.871545   148A      1.883582   149A      1.894944
     150A      1.906503   151A      1.908585   152A      1.918870
     153A      1.920948   154A      1.929926   155A      1.937150
     156A      1.946820   157A      1.953704   158A      1.966567
     159A      1.973590   160A      1.980852   161A      1.990113
     162A      1.998726   163A      2.003233   164A      2.015437
     165A      2.032830   166A      2.043716   167A      2.047770
     168A      2.065197   169A      2.079274   170A      2.091234
     171A      2.123019   172A      2.131956   173A      2.154913
     174A      2.165623   175A      2.184076   176A      2.193512
     177A      2.199753   178A      2.208908   179A      2.263398
     180A      2.266672   181A      2.279931   182A      2.300061
     183A      2.304171   184A      2.316681   185A      2.322201
     186A      2.335948   187A      2.357686   188A      2.400939
     189A      2.463896   190A      2.474948   191A      2.483658
     192A      2.505452   193A      2.542264   194A      2.555932
     195A      2.571179   196A      2.620147   197A      2.633418
     198A      2.663289   199A      2.741974   200A      2.760630
     201A      2.767256   202A      2.775505   203A      2.779322
     204A      2.785728   205A      2.803146   206A      2.815334
     207A      2.827765   208A      2.857255   209A      2.877134
     210A      2.933283   211A      2.947910   212A      2.988412
     213A      3.005154   214A      3.037215   215A      3.044088
     216A      3.085807   217A      3.178194   218A      3.227839
     219A      3.323000   220A      4.016216

    Final Occupation by Irrep:
              A
    DOCC [    38 ]

  @RHF Final Energy:  -388.02166375650802

   => Energetics <=

    Nuclear Repulsion Energy =            485.6078524933755034
    One-Electron Energy =               -1485.6314735088280941
    Two-Electron Energy =                 612.0019572589445715
    Total Energy =                       -388.0216637565080191

Computation Completed

Properties will be evaluated at   0.000000,   0.000000,   0.000000 [a0]

Properties computed using the SCF density matrix

  Nuclear Dipole Moment: [e a0]
     X:     0.7759      Y:     0.5107      Z:    11.7697

  Electronic Dipole Moment: [e a0]
     X:    -0.6843      Y:    -0.6409      Z:   -11.8994

  Dipole Moment: [e a0]
     X:     0.0916      Y:    -0.1302      Z:    -0.1298     Total:     0.2054

  Dipole Moment: [D]
     X:     0.2328      Y:    -0.3310      Z:    -0.3299     Total:     0.5221

*** tstop() called on ds3 at Mon Apr 27 03:44:03 2020
Module time:
	user time   =     100.33 seconds =       1.67 minutes
	system time =      39.96 seconds =       0.67 minutes
	total time  =        386 seconds =       6.43 minutes
Total time:
	user time   =     100.33 seconds =       1.67 minutes
	system time =      39.96 seconds =       0.67 minutes
	total time  =        386 seconds =       6.43 minutes
                                     G D M A

                                 by Anthony Stone

                           version 2.2.06, 22 June 2011

               Distributed Multipoles from Gaussian wavefunctions

Starting at 3:44:3 on 27 Apr 2020

Using SCF density matrix from file ./SSI/SSI-046PHE-119GLN-2-dimer.test.19086.fchk

                         Distributed Multipole Analysis

Standard DMA

Positions and radii in angstrom
Multipole moments in atomic units, ea_0^k for rank k

C          x =  1.458349  y = -1.974775  z = -2.885441 angstrom
           Maximum rank =  0   Radius =  0.650 angstrom
                   Q00  =  -0.205185

C          x = -0.875651  y =  0.807225  z = -0.645441 angstrom
           Maximum rank =  0   Radius =  0.650 angstrom
                   Q00  =  -0.044419

C          x = -1.348651  y = -0.428775  z = -0.913441 angstrom
           Maximum rank =  0   Radius =  0.650 angstrom
                   Q00  =  -0.066295

C          x =  0.377349  y =  1.189225  z = -1.082441 angstrom
           Maximum rank =  0   Radius =  0.650 angstrom
                   Q00  =  -0.087435

C          x = -0.601651  y = -1.294775  z = -1.662441 angstrom
           Maximum rank =  0   Radius =  0.650 angstrom
                   Q00  =   0.001582

C          x =  1.168349  y =  0.294225  z = -1.831441 angstrom
           Maximum rank =  0   Radius =  0.650 angstrom
                   Q00  =  -0.081032

C          x =  0.664349  y = -0.954775  z = -2.130441 angstrom
           Maximum rank =  0   Radius =  0.650 angstrom
                   Q00  =  -0.102355

H          x = -1.477651  y =  1.495225  z = -0.069441 angstrom
           Maximum rank =  0   Radius =  0.325 angstrom
                   Q00  =   0.055039

H          x = -2.310651  y = -0.737775  z = -0.529441 angstrom
           Maximum rank =  0   Radius =  0.325 angstrom
                   Q00  =   0.057615

H          x =  0.760349  y =  2.169225  z = -0.829441 angstrom
           Maximum rank =  0   Radius =  0.325 angstrom
                   Q00  =   0.064625

H          x = -0.996651  y = -2.274775  z = -1.884441 angstrom
           Maximum rank =  0   Radius =  0.325 angstrom
                   Q00  =   0.049918

H          x =  2.158349  y =  0.583225  z = -2.158441 angstrom
           Maximum rank =  0   Radius =  0.325 angstrom
                   Q00  =   0.060148

H          x =  1.255349  y = -2.959775  z = -2.459441 angstrom
           Maximum rank =  0   Radius =  0.325 angstrom
                   Q00  =   0.096449

H          x =  2.519349  y = -1.771775  z = -2.738441 angstrom
           Maximum rank =  0   Radius =  0.325 angstrom
                   Q00  =   0.097147

H          x =  1.228269  y = -1.999295  z = -3.960830 angstrom
           Maximum rank =  0   Radius =  0.325 angstrom
                   Q00  =   0.105240

C          x = -0.340651  y =  0.807225  z =  2.840559 angstrom
           Maximum rank =  0   Radius =  0.650 angstrom
                   Q00  =  -0.069334

C          x = -1.492651  y =  0.322225  z =  3.699559 angstrom
           Maximum rank =  0   Radius =  0.650 angstrom
                   Q00  =  -0.243467

C          x =  0.921349  y =  1.187225  z =  3.556559 angstrom
           Maximum rank =  0   Radius =  0.650 angstrom
                   Q00  =  -0.235869

H          x = -0.070651  y = -0.012775  z =  2.178559 angstrom
           Maximum rank =  0   Radius =  0.325 angstrom
                   Q00  =   0.046457

H          x = -0.679651  y =  1.607225  z =  2.181559 angstrom
           Maximum rank =  0   Radius =  0.325 angstrom
                   Q00  =   0.041697

H          x = -1.925651  y =  1.176225  z =  4.223559 angstrom
           Maximum rank =  0   Radius =  0.325 angstrom
                   Q00  =   0.071871

H          x =  1.097349  y =  0.570225  z =  4.434559 angstrom
           Maximum rank =  0   Radius =  0.325 angstrom
                   Q00  =   0.077365

H          x =  1.756349  y =  1.026225  z =  2.872559 angstrom
           Maximum rank =  0   Radius =  0.325 angstrom
                   Q00  =   0.084016

H          x = -1.180688  y = -0.445975  z =  4.422439 angstrom
           Maximum rank =  0   Radius =  0.325 angstrom
                   Q00  =   0.078783

H          x = -2.237973  y = -0.130035  z =  3.028769 angstrom
           Maximum rank =  0   Radius =  0.325 angstrom
                   Q00  =   0.076602

H          x =  0.931806  y =  2.249325  z =  3.842629 angstrom
           Maximum rank =  0   Radius =  0.325 angstrom
                   Q00  =   0.070838

Total multipoles referred to origin at
           x =   0.000000,  y =    0.000000,  z =    0.000000 angstrom
                   Q00  =  -0.000000

Finished at 3:44:4 on 27 Apr 2020

  DMA results are available in the Python driver through the
	  variable('DMA DISTRIBUTED MULTIPOLES')
  and
	  variable('DMA TOTAL MULTIPOLES')
  commands.

    Psi4 stopped on: Monday, 27 April 2020 03:44AM
    Psi4 wall time for execution: 0:06:26.56

*** Psi4 exiting successfully. Buy a developer a beer!
