                               Psi4 1.3.2 release

  ==> Input File <==

--------------------------------------------------------------------------
import numpy as np
set {scf_type pk
basis cc-pvdz
d_convergence 10
gdma_switch   0
gdma_limit    0
gdma_origin   [ 0.0,  0.0,  0.0 ]
}
molecule test {
    units Angstrom
    0 1
    --
    0 1
    C                1.885681812180214    -0.190754345368185    -0.452367289490490
    C                2.590681812180214     1.056245654631815     0.083632710509510
    H                1.199681812180214     0.089245654631815    -1.252367289490490
    H                1.323681812180214    -0.669754345368185     0.349632710509511
    H                2.615681812180214    -0.901754345368185    -0.844367289490489
    H                1.834681812180214     1.760245654631815     0.411632710509511
    H                3.218991812180214     1.508630154631815    -0.697757289490490
    H                3.235651812180214     0.788054714631815     0.933392710509511
    C               -1.619318187819786    -0.842754345368185     0.367632710509510
    C               -2.862318187819787    -0.024754345368185     0.002632710509510
    H               -1.025318187819786    -0.301754345368185     1.103632710509510
    H               -1.015318187819786    -1.006754345368185    -0.525367289490489
    H               -1.914318187819786    -1.810754345368185     0.777632710509510
    H               -2.531318187819786     0.953245654631815    -0.347367289490490
    H               -3.479478187819786     0.119927854631815     0.901622710509511
    H               -3.399838187819786    -0.504557345368185    -0.828547289490490

}
e, wfn = energy('scf', return_wfn=True)
gdma(wfn)
dmavals = variable('DMA DISTRIBUTED MULTIPOLES')
charges = np.array(dmavals)
print(charges)
np.save('SSI-024ALA-034ALA-1-dimer.npy', np.array(charges))--------------------------------------------------------------------------

*** tstart() called on ds3
*** at Mon Apr 27 07:30:44 2020

   => Loading Basis Set <=

    Name: CC-PVDZ
    Role: ORBITAL
    Keyword: BASIS
    atoms 1-2, 9-10  entry C          line   138 file /theoryfs2/ds/metcalf/miniconda2/envs/tf2gpu/share/psi4/basis/cc-pvdz.gbs
    atoms 3-8, 11-16 entry H          line    22 file /theoryfs2/ds/metcalf/miniconda2/envs/tf2gpu/share/psi4/basis/cc-pvdz.gbs

         ---------------------------------------------------------
                                   SCF
               by Justin Turney, Rob Parrish, Andy Simmonett
                          and Daniel G. A. Smith
                              RHF Reference
                        1 Threads,    500 MiB Core
         ---------------------------------------------------------

  ==> Geometry <==

    Molecular point group: c1
    Full point group: C1

    Geometry (in Angstrom), charge = 0, multiplicity = 1:

       Center              X                  Y                   Z               Mass
    ------------   -----------------  -----------------  -----------------  -----------------
         C            1.885681812180    -0.190754345368    -0.452367289490    12.000000000000
         C            2.590681812180     1.056245654632     0.083632710510    12.000000000000
         H            1.199681812180     0.089245654632    -1.252367289490     1.007825032230
         H            1.323681812180    -0.669754345368     0.349632710510     1.007825032230
         H            2.615681812180    -0.901754345368    -0.844367289490     1.007825032230
         H            1.834681812180     1.760245654632     0.411632710510     1.007825032230
         H            3.218991812180     1.508630154632    -0.697757289490     1.007825032230
         H            3.235651812180     0.788054714632     0.933392710510     1.007825032230
         C           -1.619318187820    -0.842754345368     0.367632710510    12.000000000000
         C           -2.862318187820    -0.024754345368     0.002632710510    12.000000000000
         H           -1.025318187820    -0.301754345368     1.103632710510     1.007825032230
         H           -1.015318187820    -1.006754345368    -0.525367289490     1.007825032230
         H           -1.914318187820    -1.810754345368     0.777632710510     1.007825032230
         H           -2.531318187820     0.953245654632    -0.347367289490     1.007825032230
         H           -3.479478187820     0.119927854632     0.901622710510     1.007825032230
         H           -3.399838187820    -0.504557345368    -0.828547289490     1.007825032230

  Running in c1 symmetry.

  Rotational constants: A =      0.47799  B =      0.04870  C =      0.04682 [cm^-1]
  Rotational constants: A =  14329.84240  B =   1460.05208  C =   1403.53031 [MHz]
  Nuclear repulsion =  122.243158446561452

  Charge       = 0
  Multiplicity = 1
  Electrons    = 36
  Nalpha       = 18
  Nbeta        = 18

  ==> Algorithm <==

  SCF Algorithm Type is PK.
  DIIS enabled.
  MOM disabled.
  Fractional occupation disabled.
  Guess Type is SAD.
  Energy threshold   = 1.00e-06
  Density threshold  = 1.00e-10
  Integral threshold = 0.00e+00

  ==> Primary Basis <==

  Basis Set: CC-PVDZ
    Blend: CC-PVDZ
    Number of shells: 60
    Number of basis function: 116
    Number of Cartesian functions: 120
    Spherical Harmonics?: true
    Max angular momentum: 2

  ==> Pre-Iterations <==

   -------------------------------------------------------
    Irrep   Nso     Nmo     Nalpha   Nbeta   Ndocc  Nsocc
   -------------------------------------------------------
     A        116     116       0       0       0       0
   -------------------------------------------------------
    Total     116     116      18      18      18       0
   -------------------------------------------------------

  ==> Integral Setup <==

  Using integral reordering PK algorithm.
  Sizing the integral batches needed.
  Building batch lookup table.
   Calculation information:
      Number of atoms:                  16
      Number of AO shells:              60
      Number of primitives:            148
      Number of atomic orbitals:       120
      Number of basis functions:       116

      Integral cutoff                 1.00e-12
      Number of threads:                 1

	Batch   1 pq = [       0,    6786] index = [             0,23028291] size =     23028291
  Task number: 3
  Buffer size: 11059200
  Buffer per thread: 2
  We computed 1431370 shell quartets total.
  Whereas there are 1675365 unique shell quartets.

  ==> DiskJK: Disk-Based J/K Matrices <==

    J tasked:                  Yes
    K tasked:                  Yes
    wK tasked:                  No
    Memory [MiB]:              375
    Schwarz Cutoff:          1E-12

    OpenMP threads:              1

  Minimum eigenvalue in the overlap matrix is 6.9950637809E-03.
  Using Symmetric Orthogonalization.

  SCF Guess: Superposition of Atomic Densities via on-the-fly atomic UHF.

  ==> Iterations <==

                        Total Energy        Delta E     RMS |[F,P]|

   @RHF iter SAD:  -157.35054190364303   -1.57351e+02   0.00000e+00
   @RHF iter   1:  -158.30685438574068   -9.56312e-01   4.20708e-03 DIIS
   @RHF iter   2:  -158.44013687846274   -1.33282e-01   1.78982e-03 DIIS
   @RHF iter   3:  -158.46341181799679   -2.32749e-02   3.50371e-04 DIIS
   @RHF iter   4:  -158.46525096489387   -1.83915e-03   3.92246e-05 DIIS
   @RHF iter   5:  -158.46527533962336   -2.43747e-05   6.79721e-06 DIIS
   @RHF iter   6:  -158.46527602549705   -6.85874e-07   1.14778e-06 DIIS
   @RHF iter   7:  -158.46527603865772   -1.31607e-08   3.32236e-07 DIIS
   @RHF iter   8:  -158.46527603966928   -1.01156e-09   4.35238e-08 DIIS
   @RHF iter   9:  -158.46527603970188   -3.25997e-11   8.40568e-09 DIIS
   @RHF iter  10:  -158.46527603970250   -6.25278e-13   2.13176e-09 DIIS
   @RHF iter  11:  -158.46527603970276   -2.55795e-13   4.00130e-10 DIIS
   @RHF iter  12:  -158.46527603970313   -3.69482e-13   1.12226e-10 DIIS
   @RHF iter  13:  -158.46527603970316   -2.84217e-14   2.63530e-11 DIIS
  Energy and wave function converged.

  ==> Post-Iterations <==

    Orbital Energies [Eh]
    ---------------------

    Doubly Occupied:

       1A    -11.219498     2A    -11.218507     3A    -11.216247
       4A    -11.215846     5A     -1.019177     6A     -1.016414
       7A     -0.839175     8A     -0.832571     9A     -0.603067
      10A     -0.601451    11A     -0.596056    12A     -0.592898
      13A     -0.503425    14A     -0.495815    15A     -0.490383
      16A     -0.487561    17A     -0.483419    18A     -0.477800

    Virtual:

      19A      0.170394    20A      0.197959    21A      0.228911
      22A      0.232695    23A      0.244578    24A      0.259348
      25A      0.262751    26A      0.272039    27A      0.281005
      28A      0.290044    29A      0.307628    30A      0.329618
      31A      0.398750    32A      0.409781    33A      0.575746
      34A      0.598742    35A      0.603244    36A      0.604671
      37A      0.614317    38A      0.632119    39A      0.642357
      40A      0.684641    41A      0.689995    42A      0.805411
      43A      0.846116    44A      0.866237    45A      0.885247
      46A      0.890588    47A      0.891606    48A      0.894801
      49A      0.898689    50A      0.906623    51A      0.907012
      52A      0.915909    53A      0.938327    54A      0.957740
      55A      0.969350    56A      0.978807    57A      1.123982
      58A      1.125218    59A      1.132177    60A      1.173765
      61A      1.238447    62A      1.239883    63A      1.474091
      64A      1.475814    65A      1.483293    66A      1.485075
      67A      1.530264    68A      1.611011    69A      1.673721
      70A      1.681085    71A      1.689565    72A      1.701972
      73A      1.850496    74A      1.858826    75A      1.862575
      76A      1.894473    77A      1.900815    78A      1.924593
      79A      1.935159    80A      1.937491    81A      1.944032
      82A      1.946001    83A      1.947208    84A      1.957570
      85A      1.968448    86A      1.975568    87A      1.987947
      88A      2.004069    89A      2.098419    90A      2.104381
      91A      2.116057    92A      2.125825    93A      2.288150
      94A      2.298990    95A      2.308032    96A      2.317327
      97A      2.445291    98A      2.456472    99A      2.468828
     100A      2.482116   101A      2.561996   102A      2.565360
     103A      2.575561   104A      2.578708   105A      2.761140
     106A      2.765688   107A      2.786958   108A      2.793978
     109A      2.830982   110A      2.846967   111A      2.853464
     112A      2.859063   113A      2.942173   114A      2.946831
     115A      2.967544   116A      2.975874

    Final Occupation by Irrep:
              A
    DOCC [    18 ]

  @RHF Final Energy:  -158.46527603970316

   => Energetics <=

    Nuclear Repulsion Energy =            122.2431584465614520
    One-Electron Energy =                -453.5982496190631537
    Two-Electron Energy =                 172.8898151327985602
    Total Energy =                       -158.4652760397031557

Computation Completed

Properties will be evaluated at   0.000000,   0.000000,   0.000000 [a0]

Properties computed using the SCF density matrix

  Nuclear Dipole Moment: [e a0]
     X:     0.0589      Y:     0.0225      Z:    -0.0171

  Electronic Dipole Moment: [e a0]
     X:    -0.0535      Y:    -0.0265      Z:     0.0144

  Dipole Moment: [e a0]
     X:     0.0053      Y:    -0.0039      Z:    -0.0027     Total:     0.0071

  Dipole Moment: [D]
     X:     0.0135      Y:    -0.0100      Z:    -0.0068     Total:     0.0182

*** tstop() called on ds3 at Mon Apr 27 07:30:56 2020
Module time:
	user time   =       8.22 seconds =       0.14 minutes
	system time =       3.00 seconds =       0.05 minutes
	total time  =         12 seconds =       0.20 minutes
Total time:
	user time   =       8.22 seconds =       0.14 minutes
	system time =       3.00 seconds =       0.05 minutes
	total time  =         12 seconds =       0.20 minutes
                                     G D M A

                                 by Anthony Stone

                           version 2.2.06, 22 June 2011

               Distributed Multipoles from Gaussian wavefunctions

Starting at 7:30:56 on 27 Apr 2020

Using SCF density matrix from file ./SSI/SSI-024ALA-034ALA-1-dimer.test.20890.fchk

                         Distributed Multipole Analysis

Standard DMA

Positions and radii in angstrom
Multipole moments in atomic units, ea_0^k for rank k

C          x =  1.885682  y = -0.190754  z = -0.452367 angstrom
           Maximum rank =  0   Radius =  0.650 angstrom
                   Q00  =  -0.235065

C          x =  2.590682  y =  1.056246  z =  0.083633 angstrom
           Maximum rank =  0   Radius =  0.650 angstrom
                   Q00  =  -0.238716

H          x =  1.199682  y =  0.089246  z = -1.252367 angstrom
           Maximum rank =  0   Radius =  0.325 angstrom
                   Q00  =   0.076426

H          x =  1.323682  y = -0.669754  z =  0.349633 angstrom
           Maximum rank =  0   Radius =  0.325 angstrom
                   Q00  =   0.082648

H          x =  2.615682  y = -0.901754  z = -0.844367 angstrom
           Maximum rank =  0   Radius =  0.325 angstrom
                   Q00  =   0.078285

H          x =  1.834682  y =  1.760246  z =  0.411633 angstrom
           Maximum rank =  0   Radius =  0.325 angstrom
                   Q00  =   0.079118

H          x =  3.218992  y =  1.508630  z = -0.697757 angstrom
           Maximum rank =  0   Radius =  0.325 angstrom
                   Q00  =   0.078735

H          x =  3.235652  y =  0.788055  z =  0.933393 angstrom
           Maximum rank =  0   Radius =  0.325 angstrom
                   Q00  =   0.077595

C          x = -1.619318  y = -0.842754  z =  0.367633 angstrom
           Maximum rank =  0   Radius =  0.650 angstrom
                   Q00  =  -0.237437

C          x = -2.862318  y = -0.024754  z =  0.002633 angstrom
           Maximum rank =  0   Radius =  0.650 angstrom
                   Q00  =  -0.234925

H          x = -1.025318  y = -0.301754  z =  1.103633 angstrom
           Maximum rank =  0   Radius =  0.325 angstrom
                   Q00  =   0.076723

H          x = -1.015318  y = -1.006754  z = -0.525367 angstrom
           Maximum rank =  0   Radius =  0.325 angstrom
                   Q00  =   0.081641

H          x = -1.914318  y = -1.810754  z =  0.777633 angstrom
           Maximum rank =  0   Radius =  0.325 angstrom
                   Q00  =   0.078471

H          x = -2.531318  y =  0.953246  z = -0.347367 angstrom
           Maximum rank =  0   Radius =  0.325 angstrom
                   Q00  =   0.075679

H          x = -3.479478  y =  0.119928  z =  0.901623 angstrom
           Maximum rank =  0   Radius =  0.325 angstrom
                   Q00  =   0.080239

H          x = -3.399838  y = -0.504557  z = -0.828547 angstrom
           Maximum rank =  0   Radius =  0.325 angstrom
                   Q00  =   0.080581

Total multipoles referred to origin at
           x =   0.000000,  y =    0.000000,  z =    0.000000 angstrom
                   Q00  =  -0.000000

Finished at 7:30:56 on 27 Apr 2020

  DMA results are available in the Python driver through the
	  variable('DMA DISTRIBUTED MULTIPOLES')
  and
	  variable('DMA TOTAL MULTIPOLES')
  commands.

    Psi4 stopped on: Monday, 27 April 2020 07:30AM
    Psi4 wall time for execution: 0:00:11.42

*** Psi4 exiting successfully. Buy a developer a beer!
