                               Psi4 1.3.2 release

  ==> Input File <==

--------------------------------------------------------------------------
import numpy as np
set {scf_type pk
basis cc-pvdz
d_convergence 10
gdma_switch   0
gdma_limit    0
gdma_origin   [ 0.0,  0.0,  0.0 ]
}
molecule test {
    units Angstrom
    0 1
    --
    0 1
    C                0.435049098211638    -3.194111288553657    -0.957895444272267
    C                1.376049098211638    -2.358111288553657    -1.791895444272267
    H                0.356049098211638    -4.201111288553657    -1.366895444272267
    H                0.803049098211638    -3.247111288553657     0.066104555727733
    H               -0.557950901788362    -2.748111288553657    -0.919895444272267
    H                1.440049098211639    -1.357111288553657    -1.366895444272267
    H                1.041549098211638    -2.280341288553656    -2.836915444272268
    H                2.379859098211638    -2.807951288553657    -1.794785444272267
    C               -2.840950901788362     1.686888711446343    -0.586895444272267
    C                0.153049098211638     0.028888711446343     0.955104555727733
    C               -0.394950901788362     0.917888711446343     0.001104555727733
    C               -1.826950901788362     0.888888711446343     0.157104555727733
    C               -2.077950901788362    -0.011111288553657     1.125104555727733
    C                1.520049098211639    -0.179111288553657     1.097104555727733
    C                2.359049098211639     0.533888711446343     0.266104555727733
    C                0.479049098211638     1.617888711446343    -0.826895444272267
    C                1.854049098211639     1.427888711446343    -0.677895444272267
    N               -0.904950901788362    -0.543111288553657     1.602104555727733
    H               -0.825950901788362    -1.346111288553657     2.222104555727732
    H                1.898049098211638    -0.869111288553657     1.836104555727733
    H               -3.067950901788362    -0.261111288553657     1.471104555727733
    H                3.430049098211638     0.407888711446343     0.350104555727733
    H                0.093049098211638     2.291888711446343    -1.572895444272267
    H               -2.382950901788362     2.644888711446344    -0.823895444272267
    H               -3.688950901788361     1.887888711446343     0.071104555727733
    H                2.532049098211638     1.990888711446343    -1.303895444272267
    H               -3.206290901788362     1.250188711446343    -1.528075444272267

}
e, wfn = energy('scf', return_wfn=True)
gdma(wfn)
dmavals = variable('DMA DISTRIBUTED MULTIPOLES')
charges = np.array(dmavals)
print(charges)
np.save('SSI-218ALA-249TRP-1-dimer.npy', np.array(charges))--------------------------------------------------------------------------

*** tstart() called on ds3
*** at Tue Apr 28 21:22:12 2020

   => Loading Basis Set <=

    Name: CC-PVDZ
    Role: ORBITAL
    Keyword: BASIS
    atoms 1-2, 9-17  entry C          line   138 file /theoryfs2/ds/metcalf/miniconda2/envs/tf2gpu/share/psi4/basis/cc-pvdz.gbs
    atoms 3-8, 19-27 entry H          line    22 file /theoryfs2/ds/metcalf/miniconda2/envs/tf2gpu/share/psi4/basis/cc-pvdz.gbs
    atoms 18         entry N          line   168 file /theoryfs2/ds/metcalf/miniconda2/envs/tf2gpu/share/psi4/basis/cc-pvdz.gbs

         ---------------------------------------------------------
                                   SCF
               by Justin Turney, Rob Parrish, Andy Simmonett
                          and Daniel G. A. Smith
                              RHF Reference
                        1 Threads,    500 MiB Core
         ---------------------------------------------------------

  ==> Geometry <==

    Molecular point group: c1
    Full point group: C1

    Geometry (in Angstrom), charge = 0, multiplicity = 1:

       Center              X                  Y                   Z               Mass
    ------------   -----------------  -----------------  -----------------  -----------------
         C            0.435049098212    -3.194111288554    -0.957895444272    12.000000000000
         C            1.376049098212    -2.358111288554    -1.791895444272    12.000000000000
         H            0.356049098212    -4.201111288554    -1.366895444272     1.007825032230
         H            0.803049098212    -3.247111288554     0.066104555728     1.007825032230
         H           -0.557950901788    -2.748111288554    -0.919895444272     1.007825032230
         H            1.440049098212    -1.357111288554    -1.366895444272     1.007825032230
         H            1.041549098212    -2.280341288554    -2.836915444272     1.007825032230
         H            2.379859098212    -2.807951288554    -1.794785444272     1.007825032230
         C           -2.840950901788     1.686888711446    -0.586895444272    12.000000000000
         C            0.153049098212     0.028888711446     0.955104555728    12.000000000000
         C           -0.394950901788     0.917888711446     0.001104555728    12.000000000000
         C           -1.826950901788     0.888888711446     0.157104555728    12.000000000000
         C           -2.077950901788    -0.011111288554     1.125104555728    12.000000000000
         C            1.520049098212    -0.179111288554     1.097104555728    12.000000000000
         C            2.359049098212     0.533888711446     0.266104555728    12.000000000000
         C            0.479049098212     1.617888711446    -0.826895444272    12.000000000000
         C            1.854049098212     1.427888711446    -0.677895444272    12.000000000000
         N           -0.904950901788    -0.543111288554     1.602104555728    14.003074004430
         H           -0.825950901788    -1.346111288554     2.222104555728     1.007825032230
         H            1.898049098212    -0.869111288554     1.836104555728     1.007825032230
         H           -3.067950901788    -0.261111288554     1.471104555728     1.007825032230
         H            3.430049098212     0.407888711446     0.350104555728     1.007825032230
         H            0.093049098212     2.291888711446    -1.572895444272     1.007825032230
         H           -2.382950901788     2.644888711446    -0.823895444272     1.007825032230
         H           -3.688950901788     1.887888711446     0.071104555728     1.007825032230
         H            2.532049098212     1.990888711446    -1.303895444272     1.007825032230
         H           -3.206290901788     1.250188711446    -1.528075444272     1.007825032230

  Running in c1 symmetry.

  Rotational constants: A =      0.03609  B =      0.02431  C =      0.02014 [cm^-1]
  Rotational constants: A =   1082.00780  B =    728.74281  C =    603.70716 [MHz]
  Nuclear repulsion =  678.654063649994782

  Charge       = 0
  Multiplicity = 1
  Electrons    = 88
  Nalpha       = 44
  Nbeta        = 44

  ==> Algorithm <==

  SCF Algorithm Type is PK.
  DIIS enabled.
  MOM disabled.
  Fractional occupation disabled.
  Guess Type is SAD.
  Energy threshold   = 1.00e-06
  Density threshold  = 1.00e-10
  Integral threshold = 0.00e+00

  ==> Primary Basis <==

  Basis Set: CC-PVDZ
    Blend: CC-PVDZ
    Number of shells: 117
    Number of basis function: 243
    Number of Cartesian functions: 255
    Spherical Harmonics?: true
    Max angular momentum: 2

  ==> Pre-Iterations <==

   -------------------------------------------------------
    Irrep   Nso     Nmo     Nalpha   Nbeta   Ndocc  Nsocc
   -------------------------------------------------------
     A        243     243       0       0       0       0
   -------------------------------------------------------
    Total     243     243      44      44      44       0
   -------------------------------------------------------

  ==> Integral Setup <==

  Using integral reordering PK algorithm.
  Sizing the integral batches needed.
  Building batch lookup table.
   Calculation information:
      Number of atoms:                  27
      Number of AO shells:             117
      Number of primitives:            339
      Number of atomic orbitals:       255
      Number of basis functions:       243

      Integral cutoff                 1.00e-12
      Number of threads:                 1

	Batch   1 pq = [       0,    9405] index = [             0,44231715] size =     44231715
	Batch   2 pq = [    9405,   13301] index = [      44231715,88464951] size =     44233236
	Batch   3 pq = [   13301,   16290] index = [      88464951,132690195] size =     44225244
	Batch   4 pq = [   16290,   18810] index = [     132690195,176917455] size =     44227260
	Batch   5 pq = [   18810,   21030] index = [     176917455,221140965] size =     44223510
	Batch   6 pq = [   21030,   23037] index = [     221140965,265363203] size =     44222238
	Batch   7 pq = [   23037,   24883] index = [     265363203,309594286] size =     44231083
	Batch   8 pq = [   24883,   26601] index = [     309594286,353819901] size =     44225615
	Batch   9 pq = [   26601,   28214] index = [     353819901,398029005] size =     44209104
	Batch  10 pq = [   28214,   29646] index = [     398029005,439457481] size =     41428476
  Task number: 40
  Buffer size: 11059200
  Buffer per thread: 2
  We computed 26464456 shell quartets total.
  Whereas there are 23829156 unique shell quartets.
    11.06 percent of shell quartets recomputed by reordering.

  ==> DiskJK: Disk-Based J/K Matrices <==

    J tasked:                  Yes
    K tasked:                  Yes
    wK tasked:                  No
    Memory [MiB]:              375
    Schwarz Cutoff:          1E-12

    OpenMP threads:              1

  Minimum eigenvalue in the overlap matrix is 2.3152107046E-04.
  Using Symmetric Orthogonalization.

  SCF Guess: Superposition of Atomic Densities via on-the-fly atomic UHF.

  ==> Iterations <==

                        Total Energy        Delta E     RMS |[F,P]|

   @RHF iter SAD:  -479.18412406764958   -4.79184e+02   0.00000e+00
   @RHF iter   1:  -479.48378873857899   -2.99665e-01   2.63035e-03 DIIS
   @RHF iter   2:  -479.71862951425101   -2.34841e-01   1.17363e-03 DIIS
   @RHF iter   3:  -479.76147515116958   -4.28456e-02   2.99204e-04 DIIS
   @RHF iter   4:  -479.76521984781323   -3.74470e-03   1.36947e-04 DIIS
   @RHF iter   5:  -479.76584178085091   -6.21933e-04   2.01939e-05 DIIS
   @RHF iter   6:  -479.76587094354403   -2.91627e-05   9.18480e-06 DIIS
   @RHF iter   7:  -479.76587676986088   -5.82632e-06   3.76766e-06 DIIS
   @RHF iter   8:  -479.76587839277767   -1.62292e-06   1.51915e-06 DIIS
   @RHF iter   9:  -479.76587872963250   -3.36855e-07   6.51370e-07 DIIS
   @RHF iter  10:  -479.76587879371527   -6.40828e-08   2.93971e-07 DIIS
   @RHF iter  11:  -479.76587880907357   -1.53583e-08   1.13772e-07 DIIS
   @RHF iter  12:  -479.76587881121509   -2.14152e-09   3.67988e-08 DIIS
   @RHF iter  13:  -479.76587881137766   -1.62572e-10   1.03469e-08 DIIS
   @RHF iter  14:  -479.76587881139079   -1.31308e-11   4.76434e-09 DIIS
   @RHF iter  15:  -479.76587881138641    4.37694e-12   2.14610e-09 DIIS
   @RHF iter  16:  -479.76587881139045   -4.03588e-12   1.02820e-09 DIIS
   @RHF iter  17:  -479.76587881139261   -2.16005e-12   3.90238e-10 DIIS
   @RHF iter  18:  -479.76587881138988    2.72848e-12   1.53847e-10 DIIS
   @RHF iter  19:  -479.76587881138886    1.02318e-12   5.22362e-11 DIIS
  Energy and wave function converged.

  ==> Post-Iterations <==

    Orbital Energies [Eh]
    ---------------------

    Doubly Occupied:

       1A    -15.600473     2A    -11.263556     3A    -11.261965
       4A    -11.231479     5A    -11.230297     6A    -11.228897
       7A    -11.226832     8A    -11.221318     9A    -11.220855
      10A    -11.216495    11A    -11.206585    12A    -11.201264
      13A     -1.298555    14A     -1.131675    15A     -1.077860
      16A     -1.010217    17A     -0.998735    18A     -0.991056
      19A     -0.934371    20A     -0.842127    21A     -0.824552
      22A     -0.804517    23A     -0.755592    24A     -0.720897
      25A     -0.665332    26A     -0.644021    27A     -0.606978
      28A     -0.600118    29A     -0.591903    30A     -0.585115
      31A     -0.583295    32A     -0.569389    33A     -0.552071
      34A     -0.540564    35A     -0.527135    36A     -0.496252
      37A     -0.495427    38A     -0.482847    39A     -0.473095
      40A     -0.469747    41A     -0.452366    42A     -0.375286
      43A     -0.296425    44A     -0.279208

    Virtual:

      45A      0.124786    46A      0.165192    47A      0.172955
      48A      0.187691    49A      0.198923    50A      0.210242
      51A      0.219060    52A      0.227248    53A      0.232108
      54A      0.255819    55A      0.265185    56A      0.265935
      57A      0.270433    58A      0.279192    59A      0.292454
      60A      0.301237    61A      0.308184    62A      0.330730
      63A      0.373430    64A      0.385161    65A      0.405586
      66A      0.413876    67A      0.423590    68A      0.444394
      69A      0.469965    70A      0.481690    71A      0.501926
      72A      0.513138    73A      0.581978    74A      0.589545
      75A      0.602154    76A      0.610253    77A      0.627949
      78A      0.637666    79A      0.641377    80A      0.658334
      81A      0.664104    82A      0.679375    83A      0.698664
      84A      0.712884    85A      0.724867    86A      0.735673
      87A      0.741124    88A      0.758184    89A      0.761607
      90A      0.771069    91A      0.777913    92A      0.791007
      93A      0.801507    94A      0.807459    95A      0.848725
      96A      0.861475    97A      0.865165    98A      0.866011
      99A      0.875429   100A      0.881647   101A      0.883567
     102A      0.899948   103A      0.903284   104A      0.912577
     105A      0.914113   106A      0.928301   107A      0.935863
     108A      0.946105   109A      0.947236   110A      0.956047
     111A      0.959736   112A      0.969521   113A      0.984867
     114A      1.008921   115A      1.015914   116A      1.048521
     117A      1.077468   118A      1.081270   119A      1.105272
     120A      1.133358   121A      1.137206   122A      1.139606
     123A      1.145301   124A      1.157813   125A      1.174585
     126A      1.183959   127A      1.212006   128A      1.228733
     129A      1.238575   130A      1.241480   131A      1.251072
     132A      1.275812   133A      1.285391   134A      1.302972
     135A      1.328806   136A      1.335022   137A      1.349969
     138A      1.363319   139A      1.401587   140A      1.424560
     141A      1.447997   142A      1.491360   143A      1.497214
     144A      1.513260   145A      1.544062   146A      1.573072
     147A      1.600304   148A      1.604157   149A      1.635960
     150A      1.654505   151A      1.660424   152A      1.690120
     153A      1.696730   154A      1.705772   155A      1.710918
     156A      1.751998   157A      1.768193   158A      1.784438
     159A      1.800810   160A      1.806519   161A      1.837281
     162A      1.837558   163A      1.877518   164A      1.884702
     165A      1.894178   166A      1.901020   167A      1.904176
     168A      1.915837   169A      1.921310   170A      1.925177
     171A      1.928683   172A      1.947851   173A      1.957358
     174A      1.964472   175A      1.968987   176A      1.971553
     177A      1.975399   178A      1.986306   179A      2.006178
     180A      2.009451   181A      2.022545   182A      2.030836
     183A      2.060262   184A      2.079385   185A      2.086491
     186A      2.103309   187A      2.107274   188A      2.111749
     189A      2.118305   190A      2.124245   191A      2.139635
     192A      2.155052   193A      2.163461   194A      2.177154
     195A      2.192822   196A      2.237433   197A      2.268532
     198A      2.291656   199A      2.304868   200A      2.317287
     201A      2.328055   202A      2.339433   203A      2.341292
     204A      2.371243   205A      2.400765   206A      2.419993
     207A      2.453327   208A      2.464165   209A      2.484486
     210A      2.487052   211A      2.557364   212A      2.575496
     213A      2.589984   214A      2.599233   215A      2.607576
     216A      2.637505   217A      2.669675   218A      2.683888
     219A      2.730207   220A      2.766498   221A      2.773104
     222A      2.780243   223A      2.789074   224A      2.804881
     225A      2.820350   226A      2.856121   227A      2.870314
     228A      2.879354   229A      2.887258   230A      2.914195
     231A      2.931552   232A      2.978619   233A      2.995623
     234A      3.005519   235A      3.032467   236A      3.065637
     237A      3.088560   238A      3.126599   239A      3.214246
     240A      3.309619   241A      3.387850   242A      3.744091
     243A      3.962468

    Final Occupation by Irrep:
              A
    DOCC [    44 ]

  @RHF Final Energy:  -479.76587881138886

   => Energetics <=

    Nuclear Repulsion Energy =            678.6540636499947823
    One-Electron Energy =               -1995.2663959071410318
    Two-Electron Energy =                 836.8464534457573336
    Total Energy =                       -479.7658788113888022

Computation Completed

Properties will be evaluated at   0.000000,   0.000000,   0.000000 [a0]

Properties computed using the SCF density matrix

  Nuclear Dipole Moment: [e a0]
     X:     0.2311      Y:    -8.1023      Z:    -7.0334

  Electronic Dipole Moment: [e a0]
     X:    -0.6547      Y:     7.7285      Z:     7.5185

  Dipole Moment: [e a0]
     X:    -0.4236      Y:    -0.3738      Z:     0.4851     Total:     0.7446

  Dipole Moment: [D]
     X:    -1.0766      Y:    -0.9501      Z:     1.2331     Total:     1.8927

*** tstop() called on ds3 at Tue Apr 28 21:27:42 2020
Module time:
	user time   =     203.13 seconds =       3.39 minutes
	system time =      65.25 seconds =       1.09 minutes
	total time  =        330 seconds =       5.50 minutes
Total time:
	user time   =     203.13 seconds =       3.39 minutes
	system time =      65.25 seconds =       1.09 minutes
	total time  =        330 seconds =       5.50 minutes
                                     G D M A

                                 by Anthony Stone

                           version 2.2.06, 22 June 2011

               Distributed Multipoles from Gaussian wavefunctions

Starting at 21:27:42 on 28 Apr 2020

Using SCF density matrix from file ./SSI/SSI-218ALA-249TRP-1-dimer.test.20726.fchk

                         Distributed Multipole Analysis

Standard DMA

Positions and radii in angstrom
Multipole moments in atomic units, ea_0^k for rank k

C          x =  0.435049  y = -3.194111  z = -0.957895 angstrom
           Maximum rank =  0   Radius =  0.650 angstrom
                   Q00  =  -0.236503

C          x =  1.376049  y = -2.358111  z = -1.791895 angstrom
           Maximum rank =  0   Radius =  0.650 angstrom
                   Q00  =  -0.229654

H          x =  0.356049  y = -4.201111  z = -1.366895 angstrom
           Maximum rank =  0   Radius =  0.325 angstrom
                   Q00  =   0.071595

H          x =  0.803049  y = -3.247111  z =  0.066105 angstrom
           Maximum rank =  0   Radius =  0.325 angstrom
                   Q00  =   0.065174

H          x = -0.557951  y = -2.748111  z = -0.919895 angstrom
           Maximum rank =  0   Radius =  0.325 angstrom
                   Q00  =   0.080878

H          x =  1.440049  y = -1.357111  z = -1.366895 angstrom
           Maximum rank =  0   Radius =  0.325 angstrom
                   Q00  =   0.103147

H          x =  1.041549  y = -2.280341  z = -2.836915 angstrom
           Maximum rank =  0   Radius =  0.325 angstrom
                   Q00  =   0.071144

H          x =  2.379859  y = -2.807951  z = -1.794785 angstrom
           Maximum rank =  0   Radius =  0.325 angstrom
                   Q00  =   0.064863

C          x = -2.840951  y =  1.686889  z = -0.586895 angstrom
           Maximum rank =  0   Radius =  0.650 angstrom
                   Q00  =  -0.216334

C          x =  0.153049  y =  0.028889  z =  0.955105 angstrom
           Maximum rank =  0   Radius =  0.650 angstrom
                   Q00  =   0.297299

C          x = -0.394951  y =  0.917889  z =  0.001105 angstrom
           Maximum rank =  0   Radius =  0.650 angstrom
                   Q00  =  -0.050537

C          x = -1.826951  y =  0.888889  z =  0.157105 angstrom
           Maximum rank =  0   Radius =  0.650 angstrom
                   Q00  =  -0.120024

C          x = -2.077951  y = -0.011111  z =  1.125105 angstrom
           Maximum rank =  0   Radius =  0.650 angstrom
                   Q00  =   0.083068

C          x =  1.520049  y = -0.179111  z =  1.097105 angstrom
           Maximum rank =  0   Radius =  0.650 angstrom
                   Q00  =  -0.121339

C          x =  2.359049  y =  0.533889  z =  0.266105 angstrom
           Maximum rank =  0   Radius =  0.650 angstrom
                   Q00  =  -0.074418

C          x =  0.479049  y =  1.617889  z = -0.826895 angstrom
           Maximum rank =  0   Radius =  0.650 angstrom
                   Q00  =  -0.098973

C          x =  1.854049  y =  1.427889  z = -0.677895 angstrom
           Maximum rank =  0   Radius =  0.650 angstrom
                   Q00  =  -0.082059

N          x = -0.904951  y = -0.543111  z =  1.602105 angstrom
           Maximum rank =  0   Radius =  0.650 angstrom
                   Q00  =  -0.497485

H          x = -0.825951  y = -1.346111  z =  2.222105 angstrom
           Maximum rank =  0   Radius =  0.325 angstrom
                   Q00  =   0.216275

H          x =  1.898049  y = -0.869111  z =  1.836105 angstrom
           Maximum rank =  0   Radius =  0.325 angstrom
                   Q00  =   0.073185

H          x = -3.067951  y = -0.261111  z =  1.471105 angstrom
           Maximum rank =  0   Radius =  0.325 angstrom
                   Q00  =   0.098267

H          x =  3.430049  y =  0.407889  z =  0.350105 angstrom
           Maximum rank =  0   Radius =  0.325 angstrom
                   Q00  =   0.064176

H          x =  0.093049  y =  2.291889  z = -1.572895 angstrom
           Maximum rank =  0   Radius =  0.325 angstrom
                   Q00  =   0.071504

H          x = -2.382951  y =  2.644889  z = -0.823895 angstrom
           Maximum rank =  0   Radius =  0.325 angstrom
                   Q00  =   0.102221

H          x = -3.688951  y =  1.887889  z =  0.071105 angstrom
           Maximum rank =  0   Radius =  0.325 angstrom
                   Q00  =   0.104331

H          x =  2.532049  y =  1.990889  z = -1.303895 angstrom
           Maximum rank =  0   Radius =  0.325 angstrom
                   Q00  =   0.060572

H          x = -3.206291  y =  1.250189  z = -1.528075 angstrom
           Maximum rank =  0   Radius =  0.325 angstrom
                   Q00  =   0.099625

Total multipoles referred to origin at
           x =   0.000000,  y =    0.000000,  z =    0.000000 angstrom
                   Q00  =  -0.000000

Finished at 21:27:42 on 28 Apr 2020

  DMA results are available in the Python driver through the
	  variable('DMA DISTRIBUTED MULTIPOLES')
  and
	  variable('DMA TOTAL MULTIPOLES')
  commands.

    Psi4 stopped on: Tuesday, 28 April 2020 09:27PM
    Psi4 wall time for execution: 0:05:30.34

*** Psi4 exiting successfully. Buy a developer a beer!
