                               Psi4 1.3.2 release

  ==> Input File <==

--------------------------------------------------------------------------
import numpy as np
set {scf_type pk
basis cc-pvdz
d_convergence 10
gdma_switch   0
gdma_limit    0
gdma_origin   [ 0.0,  0.0,  0.0 ]
}
molecule test {
    units Angstrom
    0 1
    --
    0 1
    C                4.032132867274473    -2.994956012128042    -0.418107461428745
    C                0.363132867274472    -2.149956012128042    -0.869107461428745
    C                0.383132867274472    -1.454956012128041    -2.077107461428745
    C                1.552132867274473    -2.648956012128042    -0.334107461428745
    C                2.763132867274472    -2.452956012128042    -0.998107461428745
    C                1.591132867274472    -1.258956012128041    -2.746107461428745
    C                2.776132867274472    -1.759956012128042    -2.208107461428745
    H               -0.568867132725528    -2.295956012128042    -0.342107461428745
    H               -0.536867132725528    -1.069956012128041    -2.496107461428745
    H                1.528132867274473    -3.197956012128042     0.594892538571255
    H                1.604132867274472    -0.729956012128041    -3.686107461428745
    H                4.555132867274472    -3.561956012128042    -1.180107461428745
    H                3.765132867274472    -3.703956012128041     0.368892538571255
    H                3.703132867274472    -1.608956012128042    -2.742107461428745
    H                4.695820867274472    -2.229656012128042     0.010659538571255
    C               -3.342867132725528     2.392043987871958     3.352892538571255
    C               -1.741867132725528     0.875043987871959     0.267892538571255
    C               -2.543867132725528     1.041043987871959     1.393892538571255
    C               -0.892867132725528     1.906043987871959    -0.136107461428745
    C               -2.508867132725527     2.233043987871958     2.114892538571254
    C               -0.854867132725528     3.099043987871958     0.580892538571255
    C               -1.659867132725528     3.259043987871958     1.702892538571255
    H               -1.764867132725528    -0.052956012128041    -0.283107461428745
    H               -3.194867132725528     0.240043987871959     1.707892538571255
    H               -0.249867132725528     1.778043987871958    -0.995107461428745
    H               -0.200867132725528     3.898043987871958     0.260892538571255
    H               -4.292867132725527     1.873043987871958     3.220892538571255
    H               -3.571867132725528     3.450043987871958     3.492892538571255
    H               -1.625867132725528     4.185043987871959     2.255892538571255
    H               -2.842842132725528     2.019533987871959     4.259098538571256

}
e, wfn = energy('scf', return_wfn=True)
gdma(wfn)
dmavals = variable('DMA DISTRIBUTED MULTIPOLES')
charges = np.array(dmavals)
print(charges)
np.save('SSI-057PHE-116PHE-1-dimer.npy', np.array(charges))--------------------------------------------------------------------------

*** tstart() called on ds3
*** at Mon Apr 27 03:53:45 2020

   => Loading Basis Set <=

    Name: CC-PVDZ
    Role: ORBITAL
    Keyword: BASIS
    atoms 1-7, 16-22  entry C          line   138 file /theoryfs2/ds/metcalf/miniconda2/envs/tf2gpu/share/psi4/basis/cc-pvdz.gbs
    atoms 8-15, 23-30 entry H          line    22 file /theoryfs2/ds/metcalf/miniconda2/envs/tf2gpu/share/psi4/basis/cc-pvdz.gbs

         ---------------------------------------------------------
                                   SCF
               by Justin Turney, Rob Parrish, Andy Simmonett
                          and Daniel G. A. Smith
                              RHF Reference
                        1 Threads,    500 MiB Core
         ---------------------------------------------------------

  ==> Geometry <==

    Molecular point group: c1
    Full point group: C1

    Geometry (in Angstrom), charge = 0, multiplicity = 1:

       Center              X                  Y                   Z               Mass
    ------------   -----------------  -----------------  -----------------  -----------------
         C            4.032132867274    -2.994956012128    -0.418107461429    12.000000000000
         C            0.363132867274    -2.149956012128    -0.869107461429    12.000000000000
         C            0.383132867274    -1.454956012128    -2.077107461429    12.000000000000
         C            1.552132867274    -2.648956012128    -0.334107461429    12.000000000000
         C            2.763132867274    -2.452956012128    -0.998107461429    12.000000000000
         C            1.591132867274    -1.258956012128    -2.746107461429    12.000000000000
         C            2.776132867274    -1.759956012128    -2.208107461429    12.000000000000
         H           -0.568867132726    -2.295956012128    -0.342107461429     1.007825032230
         H           -0.536867132726    -1.069956012128    -2.496107461429     1.007825032230
         H            1.528132867274    -3.197956012128     0.594892538571     1.007825032230
         H            1.604132867274    -0.729956012128    -3.686107461429     1.007825032230
         H            4.555132867274    -3.561956012128    -1.180107461429     1.007825032230
         H            3.765132867274    -3.703956012128     0.368892538571     1.007825032230
         H            3.703132867274    -1.608956012128    -2.742107461429     1.007825032230
         H            4.695820867274    -2.229656012128     0.010659538571     1.007825032230
         C           -3.342867132726     2.392043987872     3.352892538571    12.000000000000
         C           -1.741867132726     0.875043987872     0.267892538571    12.000000000000
         C           -2.543867132726     1.041043987872     1.393892538571    12.000000000000
         C           -0.892867132726     1.906043987872    -0.136107461429    12.000000000000
         C           -2.508867132726     2.233043987872     2.114892538571    12.000000000000
         C           -0.854867132726     3.099043987872     0.580892538571    12.000000000000
         C           -1.659867132726     3.259043987872     1.702892538571    12.000000000000
         H           -1.764867132726    -0.052956012128    -0.283107461429     1.007825032230
         H           -3.194867132726     0.240043987872     1.707892538571     1.007825032230
         H           -0.249867132726     1.778043987872    -0.995107461429     1.007825032230
         H           -0.200867132726     3.898043987872     0.260892538571     1.007825032230
         H           -4.292867132726     1.873043987872     3.220892538571     1.007825032230
         H           -3.571867132726     3.450043987872     3.492892538571     1.007825032230
         H           -1.625867132726     4.185043987872     2.255892538571     1.007825032230
         H           -2.842842132726     2.019533987872     4.259098538571     1.007825032230

  Running in c1 symmetry.

  Rotational constants: A =      0.04792  B =      0.00751  C =      0.00730 [cm^-1]
  Rotational constants: A =   1436.46926  B =    225.19497  C =    218.99421 [MHz]
  Nuclear repulsion =  747.822125179704358

  Charge       = 0
  Multiplicity = 1
  Electrons    = 100
  Nalpha       = 50
  Nbeta        = 50

  ==> Algorithm <==

  SCF Algorithm Type is PK.
  DIIS enabled.
  MOM disabled.
  Fractional occupation disabled.
  Guess Type is SAD.
  Energy threshold   = 1.00e-06
  Density threshold  = 1.00e-10
  Integral threshold = 0.00e+00

  ==> Primary Basis <==

  Basis Set: CC-PVDZ
    Blend: CC-PVDZ
    Number of shells: 132
    Number of basis function: 276
    Number of Cartesian functions: 290
    Spherical Harmonics?: true
    Max angular momentum: 2

  ==> Pre-Iterations <==

   -------------------------------------------------------
    Irrep   Nso     Nmo     Nalpha   Nbeta   Ndocc  Nsocc
   -------------------------------------------------------
     A        276     276       0       0       0       0
   -------------------------------------------------------
    Total     276     276      50      50      50       0
   -------------------------------------------------------

  ==> Integral Setup <==

  Using integral reordering PK algorithm.
  Sizing the integral batches needed.
  Building batch lookup table.
   Calculation information:
      Number of atoms:                  30
      Number of AO shells:             132
      Number of primitives:            388
      Number of atomic orbitals:       290
      Number of basis functions:       276

      Integral cutoff                 1.00e-12
      Number of threads:                 1

	Batch   1 pq = [       0,    9405] index = [             0,44231715] size =     44231715
	Batch   2 pq = [    9405,   13301] index = [      44231715,88464951] size =     44233236
	Batch   3 pq = [   13301,   16290] index = [      88464951,132690195] size =     44225244
	Batch   4 pq = [   16290,   18810] index = [     132690195,176917455] size =     44227260
	Batch   5 pq = [   18810,   21030] index = [     176917455,221140965] size =     44223510
	Batch   6 pq = [   21030,   23037] index = [     221140965,265363203] size =     44222238
	Batch   7 pq = [   23037,   24883] index = [     265363203,309594286] size =     44231083
	Batch   8 pq = [   24883,   26601] index = [     309594286,353819901] size =     44225615
	Batch   9 pq = [   26601,   28214] index = [     353819901,398029005] size =     44209104
	Batch  10 pq = [   28214,   29740] index = [     398029005,442248670] size =     44219665
	Batch  11 pq = [   29740,   31191] index = [     442248670,486454836] size =     44206166
	Batch  12 pq = [   31191,   32578] index = [     486454836,530679331] size =     44224495
	Batch  13 pq = [   32578,   33908] index = [     530679331,574893186] size =     44213855
	Batch  14 pq = [   33908,   35188] index = [     574893186,619115266] size =     44222080
	Batch  15 pq = [   35188,   36423] index = [     619115266,663335676] size =     44220410
	Batch  16 pq = [   36423,   37617] index = [     663335676,707538153] size =     44202477
	Batch  17 pq = [   37617,   38226] index = [     707538153,730632651] size =     23094498
  Task number: 67
  Buffer size: 11059200
  Buffer per thread: 2
  We computed 30350324 shell quartets total.
  Whereas there are 38531031 unique shell quartets.

  ==> DiskJK: Disk-Based J/K Matrices <==

    J tasked:                  Yes
    K tasked:                  Yes
    wK tasked:                  No
    Memory [MiB]:              375
    Schwarz Cutoff:          1E-12

    OpenMP threads:              1

  Minimum eigenvalue in the overlap matrix is 3.0683129804E-04.
  Using Symmetric Orthogonalization.

  SCF Guess: Superposition of Atomic Densities via on-the-fly atomic UHF.

  ==> Iterations <==

                        Total Energy        Delta E     RMS |[F,P]|

   @RHF iter SAD:  -538.38316979154047   -5.38383e+02   0.00000e+00
   @RHF iter   1:  -539.22699548468779   -8.43826e-01   2.30824e-03 DIIS
   @RHF iter   2:  -539.47918528465391   -2.52190e-01   9.44542e-04 DIIS
   @RHF iter   3:  -539.51642598335241   -3.72407e-02   2.17218e-04 DIIS
   @RHF iter   4:  -539.51959067101450   -3.16469e-03   5.32223e-05 DIIS
   @RHF iter   5:  -539.51972718601905   -1.36515e-04   1.64430e-05 DIIS
   @RHF iter   6:  -539.51973977954617   -1.25935e-05   4.56128e-06 DIIS
   @RHF iter   7:  -539.51974095368575   -1.17414e-06   1.07438e-06 DIIS
   @RHF iter   8:  -539.51974103728185   -8.35961e-08   2.91296e-07 DIIS
   @RHF iter   9:  -539.51974104775297   -1.04711e-08   1.23716e-07 DIIS
   @RHF iter  10:  -539.51974104975909   -2.00612e-09   5.94061e-08 DIIS
   @RHF iter  11:  -539.51974105053091   -7.71820e-10   2.44163e-08 DIIS
   @RHF iter  12:  -539.51974105066483   -1.33923e-10   1.19759e-08 DIIS
   @RHF iter  13:  -539.51974105068496   -2.01226e-11   3.91905e-09 DIIS
   @RHF iter  14:  -539.51974105068780   -2.84217e-12   9.56213e-10 DIIS
   @RHF iter  15:  -539.51974105068814   -3.41061e-13   3.81860e-10 DIIS
   @RHF iter  16:  -539.51974105068734    7.95808e-13   1.50325e-10 DIIS
   @RHF iter  17:  -539.51974105068939   -2.04636e-12   7.08921e-11 DIIS
  Energy and wave function converged.

  ==> Post-Iterations <==

    Orbital Energies [Eh]
    ---------------------

    Doubly Occupied:

       1A    -11.240616     2A    -11.237100     3A    -11.236941
       4A    -11.236904     5A    -11.232976     6A    -11.232295
       7A    -11.231718     8A    -11.231229     9A    -11.231146
      10A    -11.227822    11A    -11.227338    12A    -11.227172
      13A    -11.226945    14A    -11.226774    15A     -1.152385
      16A     -1.149292    17A     -1.045745    18A     -1.040967
      19A     -1.011746    20A     -1.009075    21A     -0.931455
      22A     -0.927634    23A     -0.826176    24A     -0.821580
      25A     -0.795645    26A     -0.792234    27A     -0.692313
      28A     -0.686617    29A     -0.632963    30A     -0.631713
      31A     -0.627828    32A     -0.626846    33A     -0.584468
      34A     -0.580369    35A     -0.579115    36A     -0.575036
      37A     -0.563698    38A     -0.558219    39A     -0.532335
      40A     -0.531665    41A     -0.487749    42A     -0.485382
      43A     -0.483834    44A     -0.482770    45A     -0.480877
      46A     -0.478258    47A     -0.332855    48A     -0.329239
      49A     -0.322526    50A     -0.317092

    Virtual:

      51A      0.131391    52A      0.139421    53A      0.141602
      54A      0.144105    55A      0.174899    56A      0.190739
      57A      0.198679    58A      0.210175    59A      0.214860
      60A      0.230314    61A      0.236723    62A      0.246991
      63A      0.257498    64A      0.262612    65A      0.272312
      66A      0.275491    67A      0.279889    68A      0.290906
      69A      0.300964    70A      0.340707    71A      0.362647
      72A      0.370747    73A      0.376783    74A      0.379100
      75A      0.442308    76A      0.451701    77A      0.463382
      78A      0.469448    79A      0.481065    80A      0.486956
      81A      0.497395    82A      0.503646    83A      0.561928
      84A      0.572602    85A      0.593474    86A      0.603790
      87A      0.634819    88A      0.640265    89A      0.670135
      90A      0.677053    91A      0.684369    92A      0.694191
      93A      0.696630    94A      0.706080    95A      0.715601
      96A      0.719568    97A      0.727129    98A      0.739188
      99A      0.740945   100A      0.744108   101A      0.746011
     102A      0.747441   103A      0.752897   104A      0.758967
     105A      0.765424   106A      0.770856   107A      0.779573
     108A      0.782152   109A      0.785263   110A      0.806609
     111A      0.830245   112A      0.847198   113A      0.853649
     114A      0.865027   115A      0.868226   116A      0.872784
     117A      0.876735   118A      0.883007   119A      0.888167
     120A      0.896835   121A      0.897994   122A      0.901446
     123A      0.912164   124A      0.919122   125A      0.924695
     126A      0.931988   127A      0.935422   128A      0.941293
     129A      0.942072   130A      0.961906   131A      0.989808
     132A      1.000241   133A      1.008874   134A      1.023349
     135A      1.049579   136A      1.067689   137A      1.110230
     138A      1.123918   139A      1.131676   140A      1.144702
     141A      1.152981   142A      1.156972   143A      1.159079
     144A      1.177548   145A      1.202151   146A      1.209277
     147A      1.221890   148A      1.238116   149A      1.246891
     150A      1.250976   151A      1.253150   152A      1.255956
     153A      1.261121   154A      1.279740   155A      1.300459
     156A      1.301200   157A      1.305830   158A      1.307025
     159A      1.321023   160A      1.322943   161A      1.325916
     162A      1.344217   163A      1.414375   164A      1.416173
     165A      1.505008   166A      1.515166   167A      1.520177
     168A      1.528096   169A      1.552986   170A      1.564867
     171A      1.605690   172A      1.612390   173A      1.677041
     174A      1.682570   175A      1.693115   176A      1.704144
     177A      1.735287   178A      1.742271   179A      1.744219
     180A      1.749518   181A      1.759735   182A      1.764118
     183A      1.790416   184A      1.792696   185A      1.813184
     186A      1.815147   187A      1.863069   188A      1.865335
     189A      1.881062   190A      1.886485   191A      1.896051
     192A      1.900415   193A      1.908155   194A      1.915671
     195A      1.916653   196A      1.918886   197A      1.924805
     198A      1.931297   199A      1.941430   200A      1.946233
     201A      1.951602   202A      1.955590   203A      1.965662
     204A      1.977166   205A      1.983416   206A      1.990107
     207A      1.998972   208A      2.014660   209A      2.038655
     210A      2.041300   211A      2.050855   212A      2.069423
     213A      2.072534   214A      2.075884   215A      2.104984
     216A      2.113151   217A      2.129669   218A      2.149060
     219A      2.151001   220A      2.157077   221A      2.163627
     222A      2.169326   223A      2.178488   224A      2.183508
     225A      2.188397   226A      2.208682   227A      2.242975
     228A      2.262927   229A      2.273288   230A      2.288972
     231A      2.291743   232A      2.293620   233A      2.302357
     234A      2.303702   235A      2.312694   236A      2.332916
     237A      2.339558   238A      2.345008   239A      2.452268
     240A      2.470202   241A      2.477302   242A      2.485128
     243A      2.496477   244A      2.520080   245A      2.534800
     246A      2.544695   247A      2.625772   248A      2.628757
     249A      2.735647   250A      2.747261   251A      2.751762
     252A      2.765001   253A      2.770708   254A      2.772613
     255A      2.788558   256A      2.796787   257A      2.808415
     258A      2.821336   259A      2.849086   260A      2.854050
     261A      2.873943   262A      2.880162   263A      2.977883
     264A      2.986482   265A      3.003364   266A      3.016206
     267A      3.020543   268A      3.030490   269A      3.154226
     270A      3.159623   271A      3.198618   272A      3.206081
     273A      3.296037   274A      3.308508   275A      3.964609
     276A      3.974077

    Final Occupation by Irrep:
              A
    DOCC [    50 ]

  @RHF Final Energy:  -539.51974105068939

   => Energetics <=

    Nuclear Repulsion Energy =            747.8221251797043578
    One-Electron Energy =               -2211.9743757761657434
    Two-Electron Energy =                 924.6325095457718817
    Total Energy =                       -539.5197410506893902

Computation Completed

Properties will be evaluated at   0.000000,   0.000000,   0.000000 [a0]

Properties computed using the SCF density matrix

  Nuclear Dipole Moment: [e a0]
     X:     0.9392      Y:    -0.9445      Z:     4.1692

  Electronic Dipole Moment: [e a0]
     X:    -0.8035      Y:     0.8636      Z:    -4.0415

  Dipole Moment: [e a0]
     X:     0.1357      Y:    -0.0809      Z:     0.1276     Total:     0.2031

  Dipole Moment: [D]
     X:     0.3448      Y:    -0.2055      Z:     0.3244     Total:     0.5161

*** tstop() called on ds3 at Mon Apr 27 04:13:16 2020
Module time:
	user time   =     255.83 seconds =       4.26 minutes
	system time =     102.84 seconds =       1.71 minutes
	total time  =       1171 seconds =      19.52 minutes
Total time:
	user time   =     255.83 seconds =       4.26 minutes
	system time =     102.84 seconds =       1.71 minutes
	total time  =       1171 seconds =      19.52 minutes
                                     G D M A

                                 by Anthony Stone

                           version 2.2.06, 22 June 2011

               Distributed Multipoles from Gaussian wavefunctions

Starting at 4:13:16 on 27 Apr 2020

Using SCF density matrix from file ./SSI/SSI-057PHE-116PHE-1-dimer.test.22358.fchk

                         Distributed Multipole Analysis

Standard DMA

Positions and radii in angstrom
Multipole moments in atomic units, ea_0^k for rank k

C          x =  4.032133  y = -2.994956  z = -0.418107 angstrom
           Maximum rank =  0   Radius =  0.650 angstrom
                   Q00  =  -0.203635

C          x =  0.363133  y = -2.149956  z = -0.869107 angstrom
           Maximum rank =  0   Radius =  0.650 angstrom
                   Q00  =  -0.068598

C          x =  0.383133  y = -1.454956  z = -2.077107 angstrom
           Maximum rank =  0   Radius =  0.650 angstrom
                   Q00  =  -0.099216

C          x =  1.552133  y = -2.648956  z = -0.334107 angstrom
           Maximum rank =  0   Radius =  0.650 angstrom
                   Q00  =  -0.010709

C          x =  2.763133  y = -2.452956  z = -0.998107 angstrom
           Maximum rank =  0   Radius =  0.650 angstrom
                   Q00  =  -0.092987

C          x =  1.591133  y = -1.258956  z = -2.746107 angstrom
           Maximum rank =  0   Radius =  0.650 angstrom
                   Q00  =  -0.075378

C          x =  2.776133  y = -1.759956  z = -2.208107 angstrom
           Maximum rank =  0   Radius =  0.650 angstrom
                   Q00  =  -0.056700

H          x = -0.568867  y = -2.295956  z = -0.342107 angstrom
           Maximum rank =  0   Radius =  0.325 angstrom
                   Q00  =   0.064461

H          x = -0.536867  y = -1.069956  z = -2.496107 angstrom
           Maximum rank =  0   Radius =  0.325 angstrom
                   Q00  =   0.060140

H          x =  1.528133  y = -3.197956  z =  0.594893 angstrom
           Maximum rank =  0   Radius =  0.325 angstrom
                   Q00  =   0.060395

H          x =  1.604133  y = -0.729956  z = -3.686107 angstrom
           Maximum rank =  0   Radius =  0.325 angstrom
                   Q00  =   0.065614

H          x =  4.555133  y = -3.561956  z = -1.180107 angstrom
           Maximum rank =  0   Radius =  0.325 angstrom
                   Q00  =   0.100910

H          x =  3.765133  y = -3.703956  z =  0.368893 angstrom
           Maximum rank =  0   Radius =  0.325 angstrom
                   Q00  =   0.093584

H          x =  3.703133  y = -1.608956  z = -2.742107 angstrom
           Maximum rank =  0   Radius =  0.325 angstrom
                   Q00  =   0.056386

H          x =  4.695821  y = -2.229656  z =  0.010660 angstrom
           Maximum rank =  0   Radius =  0.325 angstrom
                   Q00  =   0.105478

C          x = -3.342867  y =  2.392044  z =  3.352893 angstrom
           Maximum rank =  0   Radius =  0.650 angstrom
                   Q00  =  -0.198244

C          x = -1.741867  y =  0.875044  z =  0.267893 angstrom
           Maximum rank =  0   Radius =  0.650 angstrom
                   Q00  =  -0.069922

C          x = -2.543867  y =  1.041044  z =  1.393893 angstrom
           Maximum rank =  0   Radius =  0.650 angstrom
                   Q00  =  -0.059813

C          x = -0.892867  y =  1.906044  z = -0.136107 angstrom
           Maximum rank =  0   Radius =  0.650 angstrom
                   Q00  =  -0.084459

C          x = -2.508867  y =  2.233044  z =  2.114893 angstrom
           Maximum rank =  0   Radius =  0.650 angstrom
                   Q00  =  -0.099857

C          x = -0.854867  y =  3.099044  z =  0.580893 angstrom
           Maximum rank =  0   Radius =  0.650 angstrom
                   Q00  =  -0.068807

C          x = -1.659867  y =  3.259044  z =  1.702893 angstrom
           Maximum rank =  0   Radius =  0.650 angstrom
                   Q00  =  -0.010595

H          x = -1.764867  y = -0.052956  z = -0.283107 angstrom
           Maximum rank =  0   Radius =  0.325 angstrom
                   Q00  =   0.059114

H          x = -3.194867  y =  0.240044  z =  1.707893 angstrom
           Maximum rank =  0   Radius =  0.325 angstrom
                   Q00  =   0.053044

H          x = -0.249867  y =  1.778044  z = -0.995107 angstrom
           Maximum rank =  0   Radius =  0.325 angstrom
                   Q00  =   0.063216

H          x = -0.200867  y =  3.898044  z =  0.260893 angstrom
           Maximum rank =  0   Radius =  0.325 angstrom
                   Q00  =   0.063950

H          x = -4.292867  y =  1.873044  z =  3.220893 angstrom
           Maximum rank =  0   Radius =  0.325 angstrom
                   Q00  =   0.097165

H          x = -3.571867  y =  3.450044  z =  3.492893 angstrom
           Maximum rank =  0   Radius =  0.325 angstrom
                   Q00  =   0.095717

H          x = -1.625867  y =  4.185044  z =  2.255893 angstrom
           Maximum rank =  0   Radius =  0.325 angstrom
                   Q00  =   0.055584

H          x = -2.842842  y =  2.019534  z =  4.259099 angstrom
           Maximum rank =  0   Radius =  0.325 angstrom
                   Q00  =   0.104160

Total multipoles referred to origin at
           x =   0.000000,  y =    0.000000,  z =    0.000000 angstrom
                   Q00  =  -0.000000

Finished at 4:13:16 on 27 Apr 2020

  DMA results are available in the Python driver through the
	  variable('DMA DISTRIBUTED MULTIPOLES')
  and
	  variable('DMA TOTAL MULTIPOLES')
  commands.

    Psi4 stopped on: Monday, 27 April 2020 04:13AM
    Psi4 wall time for execution: 0:19:30.89

*** Psi4 exiting successfully. Buy a developer a beer!
