                               Psi4 1.3.2 release

  ==> Input File <==

--------------------------------------------------------------------------
import numpy as np
set {scf_type pk
basis cc-pvdz
d_convergence 10
gdma_switch   0
gdma_limit    0
gdma_origin   [ 0.0,  0.0,  0.0 ]
}
molecule test {
    units Angstrom
    0 1
    --
    0 1
    C               -1.299196915873181    -2.894846460665397    -1.850080611443930
    C                0.650803084126819     0.170153539334603    -1.863080611443929
    C               -0.867196915873181    -0.708846460665397    -0.534080611443929
    C               -0.651196915873181    -1.575846460665397    -1.560080611443929
    N               -0.039196915873181     0.371153539334603    -0.741080611443929
    N                0.291803084126819    -0.994846460665397    -2.386080611443929
    H               -0.005196915873181     1.204153539334603    -0.163080611443929
    H                1.358803084126819     0.859153539334603    -2.304080611443930
    H               -1.570196915873181    -0.847846460665397     0.275919388556071
    H               -1.509196915873181    -2.946846460665397    -2.918080611443929
    H               -2.245196915873181    -2.938846460665397    -1.315080611443930
    H               -0.697408915873181    -3.765457460665397    -1.550267611443930
    C                0.897803084126819     1.367153539334603     2.269919388556070
    C                1.360803084126819     1.747153539334603     3.682919388556071
    O               -0.366196915873181     1.929153539334603     1.971919388556071
    H                1.628803084126819     1.719153539334603     1.540919388556071
    H                0.808803084126819     0.283153539334603     2.224919388556071
    H                2.422803084126819     1.547153539334603     3.781919388556070
    H               -1.032196915873181     1.507153539334603     2.529919388556071
    H                0.823661084126819     1.169387539334603     4.449512388556070
    H                1.225265084126819     2.822807539334603     3.868924388556070

}
e, wfn = energy('scf', return_wfn=True)
gdma(wfn)
dmavals = variable('DMA DISTRIBUTED MULTIPOLES')
charges = np.array(dmavals)
print(charges)
np.save('SSI-091HIE-098SER-1-dimer.npy', np.array(charges))--------------------------------------------------------------------------

*** tstart() called on ds3
*** at Tue Apr 28 03:38:06 2020

   => Loading Basis Set <=

    Name: CC-PVDZ
    Role: ORBITAL
    Keyword: BASIS
    atoms 1-4, 13-14  entry C          line   138 file /theoryfs2/ds/metcalf/miniconda2/envs/tf2gpu/share/psi4/basis/cc-pvdz.gbs
    atoms 5-6         entry N          line   168 file /theoryfs2/ds/metcalf/miniconda2/envs/tf2gpu/share/psi4/basis/cc-pvdz.gbs
    atoms 7-12, 16-21 entry H          line    22 file /theoryfs2/ds/metcalf/miniconda2/envs/tf2gpu/share/psi4/basis/cc-pvdz.gbs
    atoms 15          entry O          line   198 file /theoryfs2/ds/metcalf/miniconda2/envs/tf2gpu/share/psi4/basis/cc-pvdz.gbs

         ---------------------------------------------------------
                                   SCF
               by Justin Turney, Rob Parrish, Andy Simmonett
                          and Daniel G. A. Smith
                              RHF Reference
                        1 Threads,    500 MiB Core
         ---------------------------------------------------------

  ==> Geometry <==

    Molecular point group: c1
    Full point group: C1

    Geometry (in Angstrom), charge = 0, multiplicity = 1:

       Center              X                  Y                   Z               Mass
    ------------   -----------------  -----------------  -----------------  -----------------
         C           -1.299196915873    -2.894846460665    -1.850080611444    12.000000000000
         C            0.650803084127     0.170153539335    -1.863080611444    12.000000000000
         C           -0.867196915873    -0.708846460665    -0.534080611444    12.000000000000
         C           -0.651196915873    -1.575846460665    -1.560080611444    12.000000000000
         N           -0.039196915873     0.371153539335    -0.741080611444    14.003074004430
         N            0.291803084127    -0.994846460665    -2.386080611444    14.003074004430
         H           -0.005196915873     1.204153539335    -0.163080611444     1.007825032230
         H            1.358803084127     0.859153539335    -2.304080611444     1.007825032230
         H           -1.570196915873    -0.847846460665     0.275919388556     1.007825032230
         H           -1.509196915873    -2.946846460665    -2.918080611444     1.007825032230
         H           -2.245196915873    -2.938846460665    -1.315080611444     1.007825032230
         H           -0.697408915873    -3.765457460665    -1.550267611444     1.007825032230
         C            0.897803084127     1.367153539335     2.269919388556    12.000000000000
         C            1.360803084127     1.747153539335     3.682919388556    12.000000000000
         O           -0.366196915873     1.929153539335     1.971919388556    15.994914619570
         H            1.628803084127     1.719153539335     1.540919388556     1.007825032230
         H            0.808803084127     0.283153539335     2.224919388556     1.007825032230
         H            2.422803084127     1.547153539335     3.781919388556     1.007825032230
         H           -1.032196915873     1.507153539335     2.529919388556     1.007825032230
         H            0.823661084127     1.169387539335     4.449512388556     1.007825032230
         H            1.225265084127     2.822807539335     3.868924388556     1.007825032230

  Running in c1 symmetry.

  Rotational constants: A =      0.11787  B =      0.01890  C =      0.01771 [cm^-1]
  Rotational constants: A =   3533.68502  B =    566.48553  C =    531.00540 [MHz]
  Nuclear repulsion =  430.287706789217907

  Charge       = 0
  Multiplicity = 1
  Electrons    = 70
  Nalpha       = 35
  Nbeta        = 35

  ==> Algorithm <==

  SCF Algorithm Type is PK.
  DIIS enabled.
  MOM disabled.
  Fractional occupation disabled.
  Guess Type is SAD.
  Energy threshold   = 1.00e-06
  Density threshold  = 1.00e-10
  Integral threshold = 0.00e+00

  ==> Primary Basis <==

  Basis Set: CC-PVDZ
    Blend: CC-PVDZ
    Number of shells: 90
    Number of basis function: 186
    Number of Cartesian functions: 195
    Spherical Harmonics?: true
    Max angular momentum: 2

  ==> Pre-Iterations <==

   -------------------------------------------------------
    Irrep   Nso     Nmo     Nalpha   Nbeta   Ndocc  Nsocc
   -------------------------------------------------------
     A        186     186       0       0       0       0
   -------------------------------------------------------
    Total     186     186      35      35      35       0
   -------------------------------------------------------

  ==> Integral Setup <==

  Using integral reordering PK algorithm.
  Sizing the integral batches needed.
  Building batch lookup table.
   Calculation information:
      Number of atoms:                  21
      Number of AO shells:              90
      Number of primitives:            258
      Number of atomic orbitals:       195
      Number of basis functions:       186

      Integral cutoff                 1.00e-12
      Number of threads:                 1

	Batch   1 pq = [       0,    9405] index = [             0,44231715] size =     44231715
	Batch   2 pq = [    9405,   13301] index = [      44231715,88464951] size =     44233236
	Batch   3 pq = [   13301,   16290] index = [      88464951,132690195] size =     44225244
	Batch   4 pq = [   16290,   17391] index = [     132690195,151232136] size =     18541941
  Task number: 14
  Buffer size: 11059200
  Buffer per thread: 2
  We computed 6377891 shell quartets total.
  Whereas there are 8386560 unique shell quartets.

  ==> DiskJK: Disk-Based J/K Matrices <==

    J tasked:                  Yes
    K tasked:                  Yes
    wK tasked:                  No
    Memory [MiB]:              375
    Schwarz Cutoff:          1E-12

    OpenMP threads:              1

  Minimum eigenvalue in the overlap matrix is 1.2170558572E-03.
  Using Symmetric Orthogonalization.

  SCF Guess: Superposition of Atomic Densities via on-the-fly atomic UHF.

  ==> Iterations <==

                        Total Energy        Delta E     RMS |[F,P]|

   @RHF iter SAD:  -416.94910287834210   -4.16949e+02   0.00000e+00
   @RHF iter   1:  -417.73782310864192   -7.88720e-01   3.31470e-03 DIIS
   @RHF iter   2:  -417.92139705171491   -1.83574e-01   1.69206e-03 DIIS
   @RHF iter   3:  -417.96429124782605   -4.28942e-02   4.07998e-04 DIIS
   @RHF iter   4:  -417.96786688374101   -3.57564e-03   1.67070e-04 DIIS
   @RHF iter   5:  -417.96840836995261   -5.41486e-04   3.05552e-05 DIIS
   @RHF iter   6:  -417.96843458633089   -2.62164e-05   1.25277e-05 DIIS
   @RHF iter   7:  -417.96843932908172   -4.74275e-06   4.08371e-06 DIIS
   @RHF iter   8:  -417.96844021582774   -8.86746e-07   1.63396e-06 DIIS
   @RHF iter   9:  -417.96844040236476   -1.86537e-07   5.89097e-07 DIIS
   @RHF iter  10:  -417.96844042223148   -1.98667e-08   2.07503e-07 DIIS
   @RHF iter  11:  -417.96844042510708   -2.87559e-09   7.05094e-08 DIIS
   @RHF iter  12:  -417.96844042539311   -2.86036e-10   2.89450e-08 DIIS
   @RHF iter  13:  -417.96844042543108   -3.79714e-11   9.05124e-09 DIIS
   @RHF iter  14:  -417.96844042543563   -4.54747e-12   3.33880e-09 DIIS
   @RHF iter  15:  -417.96844042543563    0.00000e+00   1.51814e-09 DIIS
   @RHF iter  16:  -417.96844042543671   -1.08002e-12   4.49857e-10 DIIS
   @RHF iter  17:  -417.96844042543700   -2.84217e-13   2.02193e-10 DIIS
   @RHF iter  18:  -417.96844042543711   -1.13687e-13   5.81967e-11 DIIS
  Energy and wave function converged.

  ==> Post-Iterations <==

    Orbital Energies [Eh]
    ---------------------

    Doubly Occupied:

       1A    -20.574921     2A    -15.608250     3A    -15.521077
       4A    -11.294038     5A    -11.284389     6A    -11.243661
       7A    -11.235099     8A    -11.235039     9A    -11.219583
      10A     -1.378552    11A     -1.330849    12A     -1.144150
      13A     -1.024866    14A     -1.021848    15A     -0.934205
      16A     -0.861416    17A     -0.808343    18A     -0.754649
      19A     -0.732686    20A     -0.707048    21A     -0.641832
      22A     -0.617389    23A     -0.601079    24A     -0.594249
      25A     -0.588754    26A     -0.557929    27A     -0.546803
      28A     -0.537081    29A     -0.532722    30A     -0.516959
      31A     -0.496189    32A     -0.453899    33A     -0.403535
      34A     -0.369355    35A     -0.302796

    Virtual:

      36A      0.155926    37A      0.188876    38A      0.194486
      39A      0.200267    40A      0.209791    41A      0.226056
      42A      0.235939    43A      0.240809    44A      0.251269
      45A      0.259814    46A      0.274996    47A      0.294671
      48A      0.299183    49A      0.305593    50A      0.368945
      51A      0.382798    52A      0.388338    53A      0.408133
      54A      0.424684    55A      0.479587    56A      0.501639
      57A      0.590582    58A      0.600152    59A      0.615099
      60A      0.628358    61A      0.643292    62A      0.655686
      63A      0.676710    64A      0.700587    65A      0.713183
      66A      0.728545    67A      0.740509    68A      0.766305
      69A      0.775590    70A      0.783380    71A      0.800141
      72A      0.821333    73A      0.846962    74A      0.851040
      75A      0.868200    76A      0.874498    77A      0.879994
      78A      0.883996    79A      0.891305    80A      0.902754
      81A      0.911373    82A      0.927175    83A      0.938961
      84A      0.944694    85A      0.974126    86A      0.980281
      87A      1.045482    88A      1.087206    89A      1.095931
      90A      1.104497    91A      1.121428    92A      1.125369
      93A      1.142717    94A      1.146235    95A      1.176421
      96A      1.211975    97A      1.254258    98A      1.269222
      99A      1.291897   100A      1.310823   101A      1.317354
     102A      1.333270   103A      1.356369   104A      1.381443
     105A      1.441164   106A      1.450703   107A      1.456844
     108A      1.490384   109A      1.527656   110A      1.542782
     111A      1.567394   112A      1.598468   113A      1.621646
     114A      1.646884   115A      1.662493   116A      1.673551
     117A      1.698085   118A      1.712941   119A      1.723873
     120A      1.789377   121A      1.814774   122A      1.828883
     123A      1.844873   124A      1.856973   125A      1.874979
     126A      1.880597   127A      1.896701   128A      1.907244
     129A      1.931572   130A      1.947139   131A      1.952450
     132A      1.956661   133A      1.970903   134A      1.976653
     135A      1.992599   136A      2.024086   137A      2.037245
     138A      2.054617   139A      2.066942   140A      2.106553
     141A      2.113848   142A      2.149944   143A      2.151950
     144A      2.208195   145A      2.221046   146A      2.226489
     147A      2.248288   148A      2.316176   149A      2.318344
     150A      2.340266   151A      2.344854   152A      2.386065
     153A      2.405599   154A      2.453975   155A      2.467938
     156A      2.477318   157A      2.502278   158A      2.517540
     159A      2.552750   160A      2.567923   161A      2.616888
     162A      2.699505   163A      2.731182   164A      2.735990
     165A      2.757441   166A      2.769985   167A      2.791044
     168A      2.801981   169A      2.828411   170A      2.844988
     171A      2.863899   172A      2.875779   173A      2.893864
     174A      2.914569   175A      2.924010   176A      2.978063
     177A      3.072508   178A      3.181530   179A      3.241534
     180A      3.302255   181A      3.370899   182A      3.443904
     183A      3.477163   184A      3.619736   185A      3.807260
     186A      4.080953

    Final Occupation by Irrep:
              A
    DOCC [    35 ]

  @RHF Final Energy:  -417.96844042543711

   => Energetics <=

    Nuclear Repulsion Energy =            430.2877067892179070
    One-Electron Energy =               -1421.1618083736047993
    Two-Electron Energy =                 572.9056611589497834
    Total Energy =                       -417.9684404254370520

Computation Completed

Properties will be evaluated at   0.000000,   0.000000,   0.000000 [a0]

Properties computed using the SCF density matrix

  Nuclear Dipole Moment: [e a0]
     X:     1.1307      Y:     0.5859      Z:     9.7883

  Electronic Dipole Moment: [e a0]
     X:    -1.1828      Y:    -0.0620      Z:    -8.1454

  Dipole Moment: [e a0]
     X:    -0.0521      Y:     0.5239      Z:     1.6430     Total:     1.7253

  Dipole Moment: [D]
     X:    -0.1324      Y:     1.3316      Z:     4.1760     Total:     4.3852

*** tstop() called on ds3 at Tue Apr 28 03:39:15 2020
Module time:
	user time   =      47.54 seconds =       0.79 minutes
	system time =      23.99 seconds =       0.40 minutes
	total time  =         69 seconds =       1.15 minutes
Total time:
	user time   =      47.54 seconds =       0.79 minutes
	system time =      23.99 seconds =       0.40 minutes
	total time  =         69 seconds =       1.15 minutes
                                     G D M A

                                 by Anthony Stone

                           version 2.2.06, 22 June 2011

               Distributed Multipoles from Gaussian wavefunctions

Starting at 3:39:15 on 28 Apr 2020

Using SCF density matrix from file ./SSI/SSI-091HIE-098SER-1-dimer.test.2913.fchk

                         Distributed Multipole Analysis

Standard DMA

Positions and radii in angstrom
Multipole moments in atomic units, ea_0^k for rank k

C          x = -1.299197  y = -2.894846  z = -1.850081 angstrom
           Maximum rank =  0   Radius =  0.650 angstrom
                   Q00  =  -0.193451

C          x =  0.650803  y =  0.170154  z = -1.863081 angstrom
           Maximum rank =  0   Radius =  0.650 angstrom
                   Q00  =   0.467122

C          x = -0.867197  y = -0.708846  z = -0.534081 angstrom
           Maximum rank =  0   Radius =  0.650 angstrom
                   Q00  =  -0.000893

C          x = -0.651197  y = -1.575846  z = -1.560081 angstrom
           Maximum rank =  0   Radius =  0.650 angstrom
                   Q00  =   0.213964

N          x = -0.039197  y =  0.371154  z = -0.741081 angstrom
           Maximum rank =  0   Radius =  0.650 angstrom
                   Q00  =  -0.485717

N          x =  0.291803  y = -0.994846  z = -2.386081 angstrom
           Maximum rank =  0   Radius =  0.650 angstrom
                   Q00  =  -0.768552

H          x = -0.005197  y =  1.204154  z = -0.163081 angstrom
           Maximum rank =  0   Radius =  0.325 angstrom
                   Q00  =   0.235124

H          x =  1.358803  y =  0.859154  z = -2.304081 angstrom
           Maximum rank =  0   Radius =  0.325 angstrom
                   Q00  =   0.120827

H          x = -1.570197  y = -0.847846  z =  0.275919 angstrom
           Maximum rank =  0   Radius =  0.325 angstrom
                   Q00  =   0.091692

H          x = -1.509197  y = -2.946846  z = -2.918081 angstrom
           Maximum rank =  0   Radius =  0.325 angstrom
                   Q00  =   0.115407

H          x = -2.245197  y = -2.938846  z = -1.315081 angstrom
           Maximum rank =  0   Radius =  0.325 angstrom
                   Q00  =   0.089276

H          x = -0.697409  y = -3.765457  z = -1.550268 angstrom
           Maximum rank =  0   Radius =  0.325 angstrom
                   Q00  =   0.101910

C          x =  0.897803  y =  1.367154  z =  2.269919 angstrom
           Maximum rank =  0   Radius =  0.650 angstrom
                   Q00  =   0.066875

C          x =  1.360803  y =  1.747154  z =  3.682919 angstrom
           Maximum rank =  0   Radius =  0.650 angstrom
                   Q00  =  -0.246603

O          x = -0.366197  y =  1.929154  z =  1.971919 angstrom
           Maximum rank =  0   Radius =  0.650 angstrom
                   Q00  =  -0.597195

H          x =  1.628803  y =  1.719154  z =  1.540919 angstrom
           Maximum rank =  0   Radius =  0.325 angstrom
                   Q00  =   0.084928

H          x =  0.808803  y =  0.283154  z =  2.224919 angstrom
           Maximum rank =  0   Radius =  0.325 angstrom
                   Q00  =   0.044899

H          x =  2.422803  y =  1.547154  z =  3.781919 angstrom
           Maximum rank =  0   Radius =  0.325 angstrom
                   Q00  =   0.090269

H          x = -1.032197  y =  1.507154  z =  2.529919 angstrom
           Maximum rank =  0   Radius =  0.325 angstrom
                   Q00  =   0.396161

H          x =  0.823661  y =  1.169388  z =  4.449512 angstrom
           Maximum rank =  0   Radius =  0.325 angstrom
                   Q00  =   0.079528

H          x =  1.225265  y =  2.822808  z =  3.868924 angstrom
           Maximum rank =  0   Radius =  0.325 angstrom
                   Q00  =   0.094429

Total multipoles referred to origin at
           x =   0.000000,  y =    0.000000,  z =    0.000000 angstrom
                   Q00  =  -0.000000

Finished at 3:39:15 on 28 Apr 2020

  DMA results are available in the Python driver through the
	  variable('DMA DISTRIBUTED MULTIPOLES')
  and
	  variable('DMA TOTAL MULTIPOLES')
  commands.

    Psi4 stopped on: Tuesday, 28 April 2020 03:39AM
    Psi4 wall time for execution: 0:01:09.36

*** Psi4 exiting successfully. Buy a developer a beer!
