                               Psi4 1.3.2 release

  ==> Input File <==

--------------------------------------------------------------------------
import numpy as np
set {scf_type pk
basis cc-pvdz
d_convergence 10
gdma_switch   0
gdma_limit    0
gdma_origin   [ 0.0,  0.0,  0.0 ]
}
molecule test {
    units Angstrom
    0 1
    --
    0 1
    C               -1.739041193184439     0.437957263236074    -0.149078257825305
    C               -2.259041193184439     1.300957263236074     1.005921742174695
    C               -2.804041193184438    -0.374042736763926    -0.876078257825305
    H               -1.274041193184439     1.075957263236074    -0.892078257825305
    H               -0.986041193184439    -0.244042736763926     0.241921742174695
    H               -2.652041193184439     0.668957263236074     1.798921742174695
    H               -3.629041193184439     0.268957263236074    -1.187078257825306
    H               -2.356041193184439    -0.775042736763926    -1.786078257825306
    H               -3.010528193184439     2.017767263236074     0.643371742174695
    H               -1.443135193184439     1.899147263236074     1.437741742174695
    H               -3.180472193184439    -1.210878736763926    -0.269448257825305
    C                2.061958806815561    -0.179042736763926    -0.442078257825305
    C                3.065958806815561     0.440957263236074     0.531921742174695
    C                1.679958806815561    -1.615042736763926    -0.094078257825305
    H                1.164958806815561     0.437957263236074    -0.499078257825305
    H                2.522958806815562    -0.189042736763926    -1.430078257825306
    H                3.955958806815561    -0.175042736763926     0.556921742174695
    H                2.591958806815561    -2.192042736763926     0.002921742174695
    H                1.147958806815561    -1.607042736763926     0.856921742174695
    H                2.621518806815561     0.534365263236074     1.533791742174694
    H                3.394974806815561     1.420017263236074     0.153511742174695
    H                1.062555806815561    -2.069819736763926    -0.882738257825305

}
e, wfn = energy('scf', return_wfn=True)
gdma(wfn)
dmavals = variable('DMA DISTRIBUTED MULTIPOLES')
charges = np.array(dmavals)
print(charges)
np.save('SSI-019GLU-022LYS-2-dimer.npy', np.array(charges))--------------------------------------------------------------------------

*** tstart() called on ds3
*** at Tue Apr 28 13:33:42 2020

   => Loading Basis Set <=

    Name: CC-PVDZ
    Role: ORBITAL
    Keyword: BASIS
    atoms 1-3, 12-14  entry C          line   138 file /theoryfs2/ds/metcalf/miniconda2/envs/tf2gpu/share/psi4/basis/cc-pvdz.gbs
    atoms 4-11, 15-22 entry H          line    22 file /theoryfs2/ds/metcalf/miniconda2/envs/tf2gpu/share/psi4/basis/cc-pvdz.gbs

         ---------------------------------------------------------
                                   SCF
               by Justin Turney, Rob Parrish, Andy Simmonett
                          and Daniel G. A. Smith
                              RHF Reference
                        1 Threads,    500 MiB Core
         ---------------------------------------------------------

  ==> Geometry <==

    Molecular point group: c1
    Full point group: C1

    Geometry (in Angstrom), charge = 0, multiplicity = 1:

       Center              X                  Y                   Z               Mass
    ------------   -----------------  -----------------  -----------------  -----------------
         C           -1.739041193184     0.437957263236    -0.149078257825    12.000000000000
         C           -2.259041193184     1.300957263236     1.005921742175    12.000000000000
         C           -2.804041193184    -0.374042736764    -0.876078257825    12.000000000000
         H           -1.274041193184     1.075957263236    -0.892078257825     1.007825032230
         H           -0.986041193184    -0.244042736764     0.241921742175     1.007825032230
         H           -2.652041193184     0.668957263236     1.798921742175     1.007825032230
         H           -3.629041193184     0.268957263236    -1.187078257825     1.007825032230
         H           -2.356041193184    -0.775042736764    -1.786078257825     1.007825032230
         H           -3.010528193184     2.017767263236     0.643371742175     1.007825032230
         H           -1.443135193184     1.899147263236     1.437741742175     1.007825032230
         H           -3.180472193184    -1.210878736764    -0.269448257825     1.007825032230
         C            2.061958806816    -0.179042736764    -0.442078257825    12.000000000000
         C            3.065958806816     0.440957263236     0.531921742175    12.000000000000
         C            1.679958806816    -1.615042736764    -0.094078257825    12.000000000000
         H            1.164958806816     0.437957263236    -0.499078257825     1.007825032230
         H            2.522958806816    -0.189042736764    -1.430078257825     1.007825032230
         H            3.955958806816    -0.175042736764     0.556921742175     1.007825032230
         H            2.591958806816    -2.192042736764     0.002921742175     1.007825032230
         H            1.147958806816    -1.607042736764     0.856921742175     1.007825032230
         H            2.621518806816     0.534365263236     1.533791742175     1.007825032230
         H            3.394974806816     1.420017263236     0.153511742175     1.007825032230
         H            1.062555806816    -2.069819736764    -0.882738257825     1.007825032230

  Running in c1 symmetry.

  Rotational constants: A =      0.14107  B =      0.03217  C =      0.02822 [cm^-1]
  Rotational constants: A =   4229.18410  B =    964.38991  C =    845.96140 [MHz]
  Nuclear repulsion =  239.514570115125423

  Charge       = 0
  Multiplicity = 1
  Electrons    = 52
  Nalpha       = 26
  Nbeta        = 26

  ==> Algorithm <==

  SCF Algorithm Type is PK.
  DIIS enabled.
  MOM disabled.
  Fractional occupation disabled.
  Guess Type is SAD.
  Energy threshold   = 1.00e-06
  Density threshold  = 1.00e-10
  Integral threshold = 0.00e+00

  ==> Primary Basis <==

  Basis Set: CC-PVDZ
    Blend: CC-PVDZ
    Number of shells: 84
    Number of basis function: 164
    Number of Cartesian functions: 170
    Spherical Harmonics?: true
    Max angular momentum: 2

  ==> Pre-Iterations <==

   -------------------------------------------------------
    Irrep   Nso     Nmo     Nalpha   Nbeta   Ndocc  Nsocc
   -------------------------------------------------------
     A        164     164       0       0       0       0
   -------------------------------------------------------
    Total     164     164      26      26      26       0
   -------------------------------------------------------

  ==> Integral Setup <==

  Using integral reordering PK algorithm.
  Sizing the integral batches needed.
  Building batch lookup table.
   Calculation information:
      Number of atoms:                  22
      Number of AO shells:              84
      Number of primitives:            212
      Number of atomic orbitals:       170
      Number of basis functions:       164

      Integral cutoff                 1.00e-12
      Number of threads:                 1

	Batch   1 pq = [       0,    9405] index = [             0,44231715] size =     44231715
	Batch   2 pq = [    9405,   13530] index = [      44231715,91537215] size =     47305500
  Task number: 9
  Buffer size: 11059200
  Buffer per thread: 2
  We computed 5560114 shell quartets total.
  Whereas there are 6374235 unique shell quartets.

  ==> DiskJK: Disk-Based J/K Matrices <==

    J tasked:                  Yes
    K tasked:                  Yes
    wK tasked:                  No
    Memory [MiB]:              375
    Schwarz Cutoff:          1E-12

    OpenMP threads:              1

  Minimum eigenvalue in the overlap matrix is 5.3502207716E-03.
  Using Symmetric Orthogonalization.

  SCF Guess: Superposition of Atomic Densities via on-the-fly atomic UHF.

  ==> Iterations <==

                        Total Energy        Delta E     RMS |[F,P]|

   @RHF iter SAD:  -235.38012502889907   -2.35380e+02   0.00000e+00
   @RHF iter   1:  -236.31595117471781   -9.35826e-01   3.49442e-03 DIIS
   @RHF iter   2:  -236.50282465287870   -1.86873e-01   1.51710e-03 DIIS
   @RHF iter   3:  -236.53617167530302   -3.33470e-02   3.05723e-04 DIIS
   @RHF iter   4:  -236.53880205137847   -2.63038e-03   4.97788e-05 DIIS
   @RHF iter   5:  -236.53885499883188   -5.29475e-05   1.39512e-05 DIIS
   @RHF iter   6:  -236.53885937887571   -4.38004e-06   2.29880e-06 DIIS
   @RHF iter   7:  -236.53885951456897   -1.35693e-07   4.55375e-07 DIIS
   @RHF iter   8:  -236.53885952145521   -6.88624e-09   8.99354e-08 DIIS
   @RHF iter   9:  -236.53885952176185   -3.06642e-10   2.05484e-08 DIIS
   @RHF iter  10:  -236.53885952177461   -1.27613e-11   6.32705e-09 DIIS
   @RHF iter  11:  -236.53885952177603   -1.42109e-12   1.44401e-09 DIIS
   @RHF iter  12:  -236.53885952177589    1.42109e-13   3.05093e-10 DIIS
   @RHF iter  13:  -236.53885952177600   -1.13687e-13   5.89668e-11 DIIS
  Energy and wave function converged.

  ==> Post-Iterations <==

    Orbital Energies [Eh]
    ---------------------

    Doubly Occupied:

       1A    -11.218931     2A    -11.217529     3A    -11.217496
       4A    -11.216700     5A    -11.215953     6A    -11.215452
       7A     -1.054656     8A     -1.052055     9A     -0.926315
      10A     -0.925152    11A     -0.798203    12A     -0.793448
      13A     -0.631959    14A     -0.626156    15A     -0.595518
      16A     -0.589831    17A     -0.547143    18A     -0.545905
      19A     -0.537110    20A     -0.536482    21A     -0.475485
      22A     -0.471793    23A     -0.471006    24A     -0.470839
      25A     -0.464768    26A     -0.460297

    Virtual:

      27A      0.166402    28A      0.195705    29A      0.208389
      30A      0.213839    31A      0.228356    32A      0.244939
      33A      0.248608    34A      0.258764    35A      0.262481
      36A      0.274996    37A      0.292041    38A      0.300591
      39A      0.303403    40A      0.308390    41A      0.319554
      42A      0.330846    43A      0.367400    44A      0.387522
      45A      0.423266    46A      0.434415    47A      0.564269
      48A      0.574104    49A      0.597923    50A      0.610234
      51A      0.616835    52A      0.619918    53A      0.628626
      54A      0.632735    55A      0.646478    56A      0.748837
      57A      0.774123    58A      0.800767    59A      0.802843
      60A      0.812514    61A      0.850387    62A      0.855905
      63A      0.881854    64A      0.885218    65A      0.888190
      66A      0.894322    67A      0.896456    68A      0.899269
      69A      0.902335    70A      0.904940    71A      0.908405
      72A      0.911126    73A      0.919603    74A      0.927812
      75A      0.947631    76A      0.950823    77A      0.961669
      78A      0.986745    79A      0.998402    80A      1.065167
      81A      1.121657    82A      1.125243    83A      1.129503
      84A      1.162859    85A      1.232365    86A      1.244016
      87A      1.375674    88A      1.386228    89A      1.456565
      90A      1.467912    91A      1.480929    92A      1.499755
      93A      1.522467    94A      1.531769    95A      1.620582
      96A      1.649318    97A      1.669794    98A      1.677459
      99A      1.689192   100A      1.689590   101A      1.698402
     102A      1.701594   103A      1.840912   104A      1.859062
     105A      1.873557   106A      1.884541   107A      1.888821
     108A      1.889278   109A      1.906168   110A      1.910611
     111A      1.922774   112A      1.931838   113A      1.953847
     114A      1.960108   115A      1.966595   116A      1.969135
     117A      1.974789   118A      1.976891   119A      1.985705
     120A      1.994928   121A      2.010290   122A      2.011020
     123A      2.018882   124A      2.040175   125A      2.045770
     126A      2.061667   127A      2.117006   128A      2.122891
     129A      2.153808   130A      2.169872   131A      2.286006
     132A      2.296379   133A      2.297211   134A      2.307029
     135A      2.314376   136A      2.332893   137A      2.348480
     138A      2.357034   139A      2.481720   140A      2.502806
     141A      2.540813   142A      2.546649   143A      2.571257
     144A      2.583963   145A      2.612979   146A      2.619076
     147A      2.627404   148A      2.635104   149A      2.750896
     150A      2.758455   151A      2.765553   152A      2.781303
     153A      2.787856   154A      2.805417   155A      2.813202
     156A      2.820300   157A      2.912045   158A      2.917717
     159A      2.961053   160A      2.967148   161A      2.984612
     162A      2.992212   163A      3.048474   164A      3.114411

    Final Occupation by Irrep:
              A
    DOCC [    26 ]

  @RHF Final Energy:  -236.53885952177600

   => Energetics <=

    Nuclear Repulsion Energy =            239.5145701151254229
    One-Electron Energy =                -791.5544965125425279
    Two-Electron Energy =                 315.5010668756410723
    Total Energy =                       -236.5388595217759757

Computation Completed

Properties will be evaluated at   0.000000,   0.000000,   0.000000 [a0]

Properties computed using the SCF density matrix

  Nuclear Dipole Moment: [e a0]
     X:    -0.0642      Y:    -0.1311      Z:     0.2620

  Electronic Dipole Moment: [e a0]
     X:     0.1008      Y:     0.1425      Z:    -0.3144

  Dipole Moment: [e a0]
     X:     0.0365      Y:     0.0114      Z:    -0.0524     Total:     0.0649

  Dipole Moment: [D]
     X:     0.0929      Y:     0.0291      Z:    -0.1333     Total:     0.1650

*** tstop() called on ds3 at Tue Apr 28 13:35:09 2020
Module time:
	user time   =      27.67 seconds =       0.46 minutes
	system time =      10.36 seconds =       0.17 minutes
	total time  =         87 seconds =       1.45 minutes
Total time:
	user time   =      27.67 seconds =       0.46 minutes
	system time =      10.36 seconds =       0.17 minutes
	total time  =         87 seconds =       1.45 minutes
                                     G D M A

                                 by Anthony Stone

                           version 2.2.06, 22 June 2011

               Distributed Multipoles from Gaussian wavefunctions

Starting at 13:35:9 on 28 Apr 2020

Using SCF density matrix from file ./SSI/SSI-019GLU-022LYS-2-dimer.test.16380.fchk

                         Distributed Multipole Analysis

Standard DMA

Positions and radii in angstrom
Multipole moments in atomic units, ea_0^k for rank k

C          x = -1.739041  y =  0.437957  z = -0.149078 angstrom
           Maximum rank =  0   Radius =  0.650 angstrom
                   Q00  =  -0.066428

C          x = -2.259041  y =  1.300957  z =  1.005922 angstrom
           Maximum rank =  0   Radius =  0.650 angstrom
                   Q00  =  -0.249513

C          x = -2.804041  y = -0.374043  z = -0.876078 angstrom
           Maximum rank =  0   Radius =  0.650 angstrom
                   Q00  =  -0.250593

H          x = -1.274041  y =  1.075957  z = -0.892078 angstrom
           Maximum rank =  0   Radius =  0.325 angstrom
                   Q00  =   0.043396

H          x = -0.986041  y = -0.244043  z =  0.241922 angstrom
           Maximum rank =  0   Radius =  0.325 angstrom
                   Q00  =   0.048605

H          x = -2.652041  y =  0.668957  z =  1.798922 angstrom
           Maximum rank =  0   Radius =  0.325 angstrom
                   Q00  =   0.079856

H          x = -3.629041  y =  0.268957  z = -1.187078 angstrom
           Maximum rank =  0   Radius =  0.325 angstrom
                   Q00  =   0.077481

H          x = -2.356041  y = -0.775043  z = -1.786078 angstrom
           Maximum rank =  0   Radius =  0.325 angstrom
                   Q00  =   0.080564

H          x = -3.010528  y =  2.017767  z =  0.643372 angstrom
           Maximum rank =  0   Radius =  0.325 angstrom
                   Q00  =   0.077386

H          x = -1.443135  y =  1.899147  z =  1.437742 angstrom
           Maximum rank =  0   Radius =  0.325 angstrom
                   Q00  =   0.081205

H          x = -3.180472  y = -1.210879  z = -0.269448 angstrom
           Maximum rank =  0   Radius =  0.325 angstrom
                   Q00  =   0.078713

C          x =  2.061959  y = -0.179043  z = -0.442078 angstrom
           Maximum rank =  0   Radius =  0.650 angstrom
                   Q00  =  -0.088749

C          x =  3.065959  y =  0.440957  z =  0.531922 angstrom
           Maximum rank =  0   Radius =  0.650 angstrom
                   Q00  =  -0.241912

C          x =  1.679959  y = -1.615043  z = -0.094078 angstrom
           Maximum rank =  0   Radius =  0.650 angstrom
                   Q00  =  -0.237095

H          x =  1.164959  y =  0.437957  z = -0.499078 angstrom
           Maximum rank =  0   Radius =  0.325 angstrom
                   Q00  =   0.052619

H          x =  2.522959  y = -0.189043  z = -1.430078 angstrom
           Maximum rank =  0   Radius =  0.325 angstrom
                   Q00  =   0.041526

H          x =  3.955959  y = -0.175043  z =  0.556922 angstrom
           Maximum rank =  0   Radius =  0.325 angstrom
                   Q00  =   0.077336

H          x =  2.591959  y = -2.192043  z =  0.002922 angstrom
           Maximum rank =  0   Radius =  0.325 angstrom
                   Q00  =   0.077337

H          x =  1.147959  y = -1.607043  z =  0.856922 angstrom
           Maximum rank =  0   Radius =  0.325 angstrom
                   Q00  =   0.073709

H          x =  2.621519  y =  0.534365  z =  1.533792 angstrom
           Maximum rank =  0   Radius =  0.325 angstrom
                   Q00  =   0.076730

H          x =  3.394975  y =  1.420017  z =  0.153512 angstrom
           Maximum rank =  0   Radius =  0.325 angstrom
                   Q00  =   0.083025

H          x =  1.062556  y = -2.069820  z = -0.882738 angstrom
           Maximum rank =  0   Radius =  0.325 angstrom
                   Q00  =   0.084802

Total multipoles referred to origin at
           x =   0.000000,  y =    0.000000,  z =    0.000000 angstrom
                   Q00  =  -0.000000

Finished at 13:35:9 on 28 Apr 2020

  DMA results are available in the Python driver through the
	  variable('DMA DISTRIBUTED MULTIPOLES')
  and
	  variable('DMA TOTAL MULTIPOLES')
  commands.

    Psi4 stopped on: Tuesday, 28 April 2020 01:35PM
    Psi4 wall time for execution: 0:01:27.46

*** Psi4 exiting successfully. Buy a developer a beer!
