                               Psi4 1.3.2 release

  ==> Input File <==

--------------------------------------------------------------------------
import numpy as np
set {scf_type pk
basis cc-pvdz
d_convergence 10
gdma_switch   0
gdma_limit    0
gdma_origin   [ 0.0,  0.0,  0.0 ]
}
molecule test {
    units Angstrom
    0 1
    --
    0 1
    C                0.446838532006771     2.291470820878758     1.978931246627519
    C               -0.474161467993229     3.501470820878759     2.035931246627519
    H                1.444838532006771     2.565470820878759     2.319931246627519
    H                0.053838532006771     1.503470820878758     2.620931246627519
    H                0.509838532006771     1.909470820878759     0.959931246627519
    H               -1.453161467993229     3.209470820878759     1.663931246627519
    H               -0.087819467993229     4.334250820878759     1.429947246627519
    H               -0.559862467993229     3.830380820878758     3.082103246627519
    C               -1.798161467993229    -0.100529179121242     0.069931246627519
    C               -2.841161467993229    -1.215529179121241    -0.090068753372481
    C               -0.414161467993229    -0.495529179121242    -0.361068753372481
    C                0.471838532006771    -1.081529179121242     0.540931246627519
    C               -0.006161467993229    -0.290529179121242    -1.675068753372481
    C                1.755838532006771    -1.454529179121242     0.129931246627519
    C                1.267838532006771    -0.667529179121241    -2.089068753372481
    C                2.154838532006771    -1.241529179121242    -1.186068753372481
    H               -2.113161467993229     0.770470820878759    -0.507068753372481
    H               -1.766161467993229     0.208470820878758     1.115931246627519
    H               -3.815161467993229    -0.792529179121241     0.149931246627519
    H                0.173838532006771    -1.229529179121241     1.564931246627519
    H               -0.681161467993229     0.173470820878758    -2.379068753372481
    H                2.451838532006771    -1.889529179121242     0.828931246627519
    H                1.556838532006771    -0.535529179121241    -3.119068753372481
    H                3.146838532006771    -1.530529179121242    -1.508068753372481
    H               -2.628731467993229    -2.036739179121242     0.610283246627519
    H               -2.940781467993229    -1.509319179121242    -1.145417853372481

}
e, wfn = energy('scf', return_wfn=True)
gdma(wfn)
dmavals = variable('DMA DISTRIBUTED MULTIPOLES')
charges = np.array(dmavals)
print(charges)
np.save('SSI-036THR-133PHE-1-dimer.npy', np.array(charges))--------------------------------------------------------------------------

*** tstart() called on ds3
*** at Tue Apr 28 14:51:57 2020

   => Loading Basis Set <=

    Name: CC-PVDZ
    Role: ORBITAL
    Keyword: BASIS
    atoms 1-2, 9-16  entry C          line   138 file /theoryfs2/ds/metcalf/miniconda2/envs/tf2gpu/share/psi4/basis/cc-pvdz.gbs
    atoms 3-8, 17-26 entry H          line    22 file /theoryfs2/ds/metcalf/miniconda2/envs/tf2gpu/share/psi4/basis/cc-pvdz.gbs

         ---------------------------------------------------------
                                   SCF
               by Justin Turney, Rob Parrish, Andy Simmonett
                          and Daniel G. A. Smith
                              RHF Reference
                        1 Threads,    500 MiB Core
         ---------------------------------------------------------

  ==> Geometry <==

    Molecular point group: c1
    Full point group: C1

    Geometry (in Angstrom), charge = 0, multiplicity = 1:

       Center              X                  Y                   Z               Mass
    ------------   -----------------  -----------------  -----------------  -----------------
         C            0.446838532007     2.291470820879     1.978931246628    12.000000000000
         C           -0.474161467993     3.501470820879     2.035931246628    12.000000000000
         H            1.444838532007     2.565470820879     2.319931246628     1.007825032230
         H            0.053838532007     1.503470820879     2.620931246628     1.007825032230
         H            0.509838532007     1.909470820879     0.959931246628     1.007825032230
         H           -1.453161467993     3.209470820879     1.663931246628     1.007825032230
         H           -0.087819467993     4.334250820879     1.429947246628     1.007825032230
         H           -0.559862467993     3.830380820879     3.082103246628     1.007825032230
         C           -1.798161467993    -0.100529179121     0.069931246628    12.000000000000
         C           -2.841161467993    -1.215529179121    -0.090068753372    12.000000000000
         C           -0.414161467993    -0.495529179121    -0.361068753372    12.000000000000
         C            0.471838532007    -1.081529179121     0.540931246628    12.000000000000
         C           -0.006161467993    -0.290529179121    -1.675068753372    12.000000000000
         C            1.755838532007    -1.454529179121     0.129931246628    12.000000000000
         C            1.267838532007    -0.667529179121    -2.089068753372    12.000000000000
         C            2.154838532007    -1.241529179121    -1.186068753372    12.000000000000
         H           -2.113161467993     0.770470820879    -0.507068753372     1.007825032230
         H           -1.766161467993     0.208470820879     1.115931246628     1.007825032230
         H           -3.815161467993    -0.792529179121     0.149931246628     1.007825032230
         H            0.173838532007    -1.229529179121     1.564931246628     1.007825032230
         H           -0.681161467993     0.173470820879    -2.379068753372     1.007825032230
         H            2.451838532007    -1.889529179121     0.828931246628     1.007825032230
         H            1.556838532007    -0.535529179121    -3.119068753372     1.007825032230
         H            3.146838532007    -1.530529179121    -1.508068753372     1.007825032230
         H           -2.628731467993    -2.036739179121     0.610283246628     1.007825032230
         H           -2.940781467993    -1.509319179121    -1.145417853372     1.007825032230

  Running in c1 symmetry.

  Rotational constants: A =      0.04290  B =      0.02618  C =      0.01982 [cm^-1]
  Rotational constants: A =   1286.24296  B =    784.91402  C =    594.08594 [MHz]
  Nuclear repulsion =  497.635172153679548

  Charge       = 0
  Multiplicity = 1
  Electrons    = 76
  Nalpha       = 38
  Nbeta        = 38

  ==> Algorithm <==

  SCF Algorithm Type is PK.
  DIIS enabled.
  MOM disabled.
  Fractional occupation disabled.
  Guess Type is SAD.
  Energy threshold   = 1.00e-06
  Density threshold  = 1.00e-10
  Integral threshold = 0.00e+00

  ==> Primary Basis <==

  Basis Set: CC-PVDZ
    Blend: CC-PVDZ
    Number of shells: 108
    Number of basis function: 220
    Number of Cartesian functions: 230
    Spherical Harmonics?: true
    Max angular momentum: 2

  ==> Pre-Iterations <==

   -------------------------------------------------------
    Irrep   Nso     Nmo     Nalpha   Nbeta   Ndocc  Nsocc
   -------------------------------------------------------
     A        220     220       0       0       0       0
   -------------------------------------------------------
    Total     220     220      38      38      38       0
   -------------------------------------------------------

  ==> Integral Setup <==

  Using integral reordering PK algorithm.
  Sizing the integral batches needed.
  Building batch lookup table.
   Calculation information:
      Number of atoms:                  26
      Number of AO shells:             108
      Number of primitives:            300
      Number of atomic orbitals:       230
      Number of basis functions:       220

      Integral cutoff                 1.00e-12
      Number of threads:                 1

	Batch   1 pq = [       0,    9405] index = [             0,44231715] size =     44231715
	Batch   2 pq = [    9405,   13301] index = [      44231715,88464951] size =     44233236
	Batch   3 pq = [   13301,   16290] index = [      88464951,132690195] size =     44225244
	Batch   4 pq = [   16290,   18810] index = [     132690195,176917455] size =     44227260
	Batch   5 pq = [   18810,   21030] index = [     176917455,221140965] size =     44223510
	Batch   6 pq = [   21030,   23037] index = [     221140965,265363203] size =     44222238
	Batch   7 pq = [   23037,   24310] index = [     265363203,295500205] size =     30137002
  Task number: 27
  Buffer size: 11059200
  Buffer per thread: 2
  We computed 16265531 shell quartets total.
  Whereas there are 17325441 unique shell quartets.

  ==> DiskJK: Disk-Based J/K Matrices <==

    J tasked:                  Yes
    K tasked:                  Yes
    wK tasked:                  No
    Memory [MiB]:              375
    Schwarz Cutoff:          1E-12

    OpenMP threads:              1

  Minimum eigenvalue in the overlap matrix is 3.0888739849E-04.
  Using Symmetric Orthogonalization.

  SCF Guess: Superposition of Atomic Densities via on-the-fly atomic UHF.

  ==> Iterations <==

                        Total Energy        Delta E     RMS |[F,P]|

   @RHF iter SAD:  -386.88985744768445   -3.86890e+02   0.00000e+00
   @RHF iter   1:  -387.77584659301442   -8.85989e-01   2.72774e-03 DIIS
   @RHF iter   2:  -387.99089114176792   -2.15045e-01   1.13601e-03 DIIS
   @RHF iter   3:  -388.02502366895408   -3.41325e-02   2.48296e-04 DIIS
   @RHF iter   4:  -388.02784857627574   -2.82491e-03   6.17884e-05 DIIS
   @RHF iter   5:  -388.02796193819711   -1.13362e-04   2.13112e-05 DIIS
   @RHF iter   6:  -388.02797652373886   -1.45855e-05   3.95113e-06 DIIS
   @RHF iter   7:  -388.02797719049863   -6.66760e-07   1.18910e-06 DIIS
   @RHF iter   8:  -388.02797725247376   -6.19751e-08   3.67306e-07 DIIS
   @RHF iter   9:  -388.02797726514780   -1.26740e-08   1.76679e-07 DIIS
   @RHF iter  10:  -388.02797726916276   -4.01496e-09   9.06925e-08 DIIS
   @RHF iter  11:  -388.02797727030293   -1.14017e-09   2.88271e-08 DIIS
   @RHF iter  12:  -388.02797727039103   -8.81073e-11   1.26679e-08 DIIS
   @RHF iter  13:  -388.02797727039837   -7.33280e-12   4.46825e-09 DIIS
   @RHF iter  14:  -388.02797727039933   -9.66338e-13   1.20512e-09 DIIS
   @RHF iter  15:  -388.02797727040195   -2.61480e-12   3.42377e-10 DIIS
   @RHF iter  16:  -388.02797727040036    1.59162e-12   9.64166e-11 DIIS
  Energy and wave function converged.

  ==> Post-Iterations <==

    Orbital Energies [Eh]
    ---------------------

    Doubly Occupied:

       1A    -11.236192     2A    -11.235416     3A    -11.234335
       4A    -11.230747     5A    -11.230388     6A    -11.229568
       7A    -11.229487     8A    -11.224639     9A    -11.214984
      10A    -11.209690    11A     -1.153728    12A     -1.062999
      13A     -1.015762    14A     -1.010485    15A     -0.982213
      16A     -0.862419    17A     -0.831648    18A     -0.825723
      19A     -0.784623    20A     -0.690481    21A     -0.641158
      22A     -0.634373    23A     -0.597690    24A     -0.593601
      25A     -0.589738    26A     -0.586121    27A     -0.578717
      28A     -0.542523    29A     -0.514255    30A     -0.502276
      31A     -0.496596    32A     -0.483795    33A     -0.482980
      34A     -0.476989    35A     -0.475965    36A     -0.466375
      37A     -0.330831    38A     -0.321479

    Virtual:

      39A      0.135877    40A      0.139183    41A      0.172800
      42A      0.191042    43A      0.202089    44A      0.205711
      45A      0.234442    46A      0.235341    47A      0.242021
      48A      0.255077    49A      0.261767    50A      0.265151
      51A      0.276496    52A      0.283204    53A      0.286419
      54A      0.299901    55A      0.314637    56A      0.334196
      57A      0.353559    58A      0.389295    59A      0.404166
      60A      0.415343    61A      0.452488    62A      0.468986
      63A      0.491136    64A      0.493030    65A      0.568936
      66A      0.575444    67A      0.584537    68A      0.600581
      69A      0.603124    70A      0.624600    71A      0.633317
      72A      0.649219    73A      0.679331    74A      0.685107
      75A      0.703963    76A      0.718220    77A      0.724244
      78A      0.737265    79A      0.742785    80A      0.746332
      81A      0.748716    82A      0.766686    83A      0.796633
      84A      0.809389    85A      0.829537    86A      0.841906
      87A      0.859723    88A      0.862258    89A      0.881583
      90A      0.886547    91A      0.888509    92A      0.896764
      93A      0.897409    94A      0.901977    95A      0.907104
      96A      0.915603    97A      0.922486    98A      0.936824
      99A      0.944140   100A      0.953781   101A      0.960703
     102A      0.966047   103A      0.980126   104A      0.995278
     105A      1.008482   106A      1.024843   107A      1.037411
     108A      1.088285   109A      1.119224   110A      1.131892
     111A      1.134084   112A      1.145995   113A      1.156590
     114A      1.160746   115A      1.185880   116A      1.223863
     117A      1.237912   118A      1.248354   119A      1.248994
     120A      1.272129   121A      1.292090   122A      1.300092
     123A      1.312837   124A      1.327138   125A      1.397652
     126A      1.421763   127A      1.444175   128A      1.480510
     129A      1.490957   130A      1.509695   131A      1.539583
     132A      1.581155   133A      1.604824   134A      1.613231
     135A      1.678515   136A      1.685265   137A      1.689270
     138A      1.708982   139A      1.723122   140A      1.745766
     141A      1.766127   142A      1.772623   143A      1.847468
     144A      1.857051   145A      1.860587   146A      1.866748
     147A      1.878643   148A      1.880388   149A      1.890759
     150A      1.903750   151A      1.906789   152A      1.918111
     153A      1.930145   154A      1.937646   155A      1.939830
     156A      1.946971   157A      1.952896   158A      1.956957
     159A      1.959675   160A      1.969704   161A      1.977242
     162A      1.978253   163A      1.995989   164A      1.999239
     165A      2.008393   166A      2.020358   167A      2.039521
     168A      2.065340   169A      2.081544   170A      2.094175
     171A      2.114134   172A      2.119258   173A      2.134561
     174A      2.156521   175A      2.165367   176A      2.167333
     177A      2.168500   178A      2.191263   179A      2.241534
     180A      2.258252   181A      2.277988   182A      2.302432
     183A      2.310621   184A      2.319769   185A      2.323728
     186A      2.341295   187A      2.392775   188A      2.453885
     189A      2.464854   190A      2.473936   191A      2.476647
     192A      2.497813   193A      2.511432   194A      2.539848
     195A      2.569620   196A      2.576091   197A      2.587182
     198A      2.636840   199A      2.749166   200A      2.759637
     201A      2.774227   202A      2.778390   203A      2.785849
     204A      2.807270   205A      2.812030   206A      2.841789
     207A      2.855554   208A      2.860829   209A      2.867211
     210A      2.922150   211A      2.964393   212A      2.969239
     213A      2.985446   214A      3.000799   215A      3.037499
     216A      3.051401   217A      3.187386   218A      3.203388
     219A      3.311897   220A      3.974860

    Final Occupation by Irrep:
              A
    DOCC [    38 ]

  @RHF Final Energy:  -388.02797727040036

   => Energetics <=

    Nuclear Repulsion Energy =            497.6351721536795480
    One-Electron Energy =               -1509.7043195137850944
    Two-Electron Energy =                 624.0411700897051333
    Total Energy =                       -388.0279772704003562

Computation Completed

Properties will be evaluated at   0.000000,   0.000000,   0.000000 [a0]

Properties computed using the SCF density matrix

  Nuclear Dipole Moment: [e a0]
     X:    -6.2887      Y:     8.4196      Z:     7.2074

  Electronic Dipole Moment: [e a0]
     X:     6.1860      Y:    -8.4279      Z:    -7.2110

  Dipole Moment: [e a0]
     X:    -0.1027      Y:    -0.0083      Z:    -0.0036     Total:     0.1031

  Dipole Moment: [D]
     X:    -0.2609      Y:    -0.0211      Z:    -0.0092     Total:     0.2619

*** tstop() called on ds3 at Tue Apr 28 14:56:02 2020
Module time:
	user time   =     110.89 seconds =       1.85 minutes
	system time =      39.35 seconds =       0.66 minutes
	total time  =        245 seconds =       4.08 minutes
Total time:
	user time   =     110.89 seconds =       1.85 minutes
	system time =      39.35 seconds =       0.66 minutes
	total time  =        245 seconds =       4.08 minutes
                                     G D M A

                                 by Anthony Stone

                           version 2.2.06, 22 June 2011

               Distributed Multipoles from Gaussian wavefunctions

Starting at 14:56:2 on 28 Apr 2020

Using SCF density matrix from file ./SSI/SSI-036THR-133PHE-1-dimer.test.18681.fchk

                         Distributed Multipole Analysis

Standard DMA

Positions and radii in angstrom
Multipole moments in atomic units, ea_0^k for rank k

C          x =  0.446839  y =  2.291471  z =  1.978931 angstrom
           Maximum rank =  0   Radius =  0.650 angstrom
                   Q00  =  -0.230776

C          x = -0.474161  y =  3.501471  z =  2.035931 angstrom
           Maximum rank =  0   Radius =  0.650 angstrom
                   Q00  =  -0.236990

H          x =  1.444839  y =  2.565471  z =  2.319931 angstrom
           Maximum rank =  0   Radius =  0.325 angstrom
                   Q00  =   0.077461

H          x =  0.053839  y =  1.503471  z =  2.620931 angstrom
           Maximum rank =  0   Radius =  0.325 angstrom
                   Q00  =   0.069819

H          x =  0.509839  y =  1.909471  z =  0.959931 angstrom
           Maximum rank =  0   Radius =  0.325 angstrom
                   Q00  =   0.090221

H          x = -1.453161  y =  3.209471  z =  1.663931 angstrom
           Maximum rank =  0   Radius =  0.325 angstrom
                   Q00  =   0.075394

H          x = -0.087819  y =  4.334251  z =  1.429947 angstrom
           Maximum rank =  0   Radius =  0.325 angstrom
                   Q00  =   0.079366

H          x = -0.559862  y =  3.830381  z =  3.082103 angstrom
           Maximum rank =  0   Radius =  0.325 angstrom
                   Q00  =   0.073583

C          x = -1.798161  y = -0.100529  z =  0.069931 angstrom
           Maximum rank =  0   Radius =  0.650 angstrom
                   Q00  =  -0.022253

C          x = -2.841161  y = -1.215529  z = -0.090069 angstrom
           Maximum rank =  0   Radius =  0.650 angstrom
                   Q00  =  -0.222931

C          x = -0.414161  y = -0.495529  z = -0.361069 angstrom
           Maximum rank =  0   Radius =  0.650 angstrom
                   Q00  =  -0.111096

C          x =  0.471839  y = -1.081529  z =  0.540931 angstrom
           Maximum rank =  0   Radius =  0.650 angstrom
                   Q00  =  -0.088256

C          x = -0.006161  y = -0.290529  z = -1.675069 angstrom
           Maximum rank =  0   Radius =  0.650 angstrom
                   Q00  =   0.001970

C          x =  1.755839  y = -1.454529  z =  0.129931 angstrom
           Maximum rank =  0   Radius =  0.650 angstrom
                   Q00  =  -0.060869

C          x =  1.267839  y = -0.667529  z = -2.089069 angstrom
           Maximum rank =  0   Radius =  0.650 angstrom
                   Q00  =  -0.077281

C          x =  2.154839  y = -1.241529  z = -1.186069 angstrom
           Maximum rank =  0   Radius =  0.650 angstrom
                   Q00  =  -0.080442

H          x = -2.113161  y =  0.770471  z = -0.507069 angstrom
           Maximum rank =  0   Radius =  0.325 angstrom
                   Q00  =   0.066573

H          x = -1.766161  y =  0.208471  z =  1.115931 angstrom
           Maximum rank =  0   Radius =  0.325 angstrom
                   Q00  =   0.066946

H          x = -3.815161  y = -0.792529  z =  0.149931 angstrom
           Maximum rank =  0   Radius =  0.325 angstrom
                   Q00  =   0.079299

H          x =  0.173839  y = -1.229529  z =  1.564931 angstrom
           Maximum rank =  0   Radius =  0.325 angstrom
                   Q00  =   0.055933

H          x = -0.681161  y =  0.173471  z = -2.379069 angstrom
           Maximum rank =  0   Radius =  0.325 angstrom
                   Q00  =   0.054285

H          x =  2.451839  y = -1.889529  z =  0.828931 angstrom
           Maximum rank =  0   Radius =  0.325 angstrom
                   Q00  =   0.065140

H          x =  1.556839  y = -0.535529  z = -3.119069 angstrom
           Maximum rank =  0   Radius =  0.325 angstrom
                   Q00  =   0.064011

H          x =  3.146839  y = -1.530529  z = -1.508069 angstrom
           Maximum rank =  0   Radius =  0.325 angstrom
                   Q00  =   0.061802

H          x = -2.628731  y = -2.036739  z =  0.610283 angstrom
           Maximum rank =  0   Radius =  0.325 angstrom
                   Q00  =   0.075480

H          x = -2.940781  y = -1.509319  z = -1.145418 angstrom
           Maximum rank =  0   Radius =  0.325 angstrom
                   Q00  =   0.073608

Total multipoles referred to origin at
           x =   0.000000,  y =    0.000000,  z =    0.000000 angstrom
                   Q00  =  -0.000000

Finished at 14:56:2 on 28 Apr 2020

  DMA results are available in the Python driver through the
	  variable('DMA DISTRIBUTED MULTIPOLES')
  and
	  variable('DMA TOTAL MULTIPOLES')
  commands.

    Psi4 stopped on: Tuesday, 28 April 2020 02:56PM
    Psi4 wall time for execution: 0:04:04.67

*** Psi4 exiting successfully. Buy a developer a beer!
