                               Psi4 1.3.2 release

  ==> Input File <==

--------------------------------------------------------------------------
import numpy as np
set {scf_type pk
basis cc-pvdz
d_convergence 10
gdma_switch   0
gdma_limit    0
gdma_origin   [ 0.0,  0.0,  0.0 ]
}
molecule test {
    units Angstrom
    0 1
    --
    0 1
    C                1.754717172551312    -0.506737198963834    -1.413018475173520
    C                0.472717172551312    -1.293737198963834    -1.230018475173520
    O                0.243717172551312    -1.927737198963834    -0.205018475173520
    N               -0.390282827448688    -1.234737198963834    -2.245018475173520
    H                1.493717172551312     0.545262801036166    -1.521018475173520
    H                2.222717172551312    -0.836737198963834    -2.339018475173520
    H               -1.292282827448688    -1.692737198963834    -2.157018475173520
    H               -0.215282827448688    -0.631737198963834    -3.032018475173520
    H                2.479057172551312    -0.610943198963834    -0.591758475173520
    C               -0.461282827448688     1.275262801036166     1.365981524826480
    C                0.215717172551312     1.750262801036166     2.706981524826479
    C               -1.782282827448688     1.926262801036166     1.090981524826480
    H                0.221717172551312     1.451262801036166     0.533981524826480
    H               -0.616282827448688     0.196262801036166     1.431981524826480
    H                0.205717172551312     2.840262801036166     2.749981524826480
    H                1.256717172551312     1.427262801036166     2.671981524826480
    H               -2.367282827448688     1.270262801036166     0.436981524826480
    H               -2.333282827448688     2.039262801036166     2.030981524826480
    H               -0.235502827448688     1.331571801036166     3.618621524826480
    H               -1.641402827448688     2.899046801036166     0.597171524826480

}
e, wfn = energy('scf', return_wfn=True)
gdma(wfn)
dmavals = variable('DMA DISTRIBUTED MULTIPOLES')
charges = np.array(dmavals)
print(charges)
np.save('SSI-183GLN-190LYS-1-dimer.npy', np.array(charges))--------------------------------------------------------------------------

*** tstart() called on ds3
*** at Mon Apr 27 23:39:56 2020

   => Loading Basis Set <=

    Name: CC-PVDZ
    Role: ORBITAL
    Keyword: BASIS
    atoms 1-2, 10-12 entry C          line   138 file /theoryfs2/ds/metcalf/miniconda2/envs/tf2gpu/share/psi4/basis/cc-pvdz.gbs
    atoms 3          entry O          line   198 file /theoryfs2/ds/metcalf/miniconda2/envs/tf2gpu/share/psi4/basis/cc-pvdz.gbs
    atoms 4          entry N          line   168 file /theoryfs2/ds/metcalf/miniconda2/envs/tf2gpu/share/psi4/basis/cc-pvdz.gbs
    atoms 5-9, 13-20 entry H          line    22 file /theoryfs2/ds/metcalf/miniconda2/envs/tf2gpu/share/psi4/basis/cc-pvdz.gbs

         ---------------------------------------------------------
                                   SCF
               by Justin Turney, Rob Parrish, Andy Simmonett
                          and Daniel G. A. Smith
                              RHF Reference
                        1 Threads,    500 MiB Core
         ---------------------------------------------------------

  ==> Geometry <==

    Molecular point group: c1
    Full point group: C1

    Geometry (in Angstrom), charge = 0, multiplicity = 1:

       Center              X                  Y                   Z               Mass
    ------------   -----------------  -----------------  -----------------  -----------------
         C            1.754717172551    -0.506737198964    -1.413018475174    12.000000000000
         C            0.472717172551    -1.293737198964    -1.230018475174    12.000000000000
         O            0.243717172551    -1.927737198964    -0.205018475174    15.994914619570
         N           -0.390282827449    -1.234737198964    -2.245018475174    14.003074004430
         H            1.493717172551     0.545262801036    -1.521018475174     1.007825032230
         H            2.222717172551    -0.836737198964    -2.339018475174     1.007825032230
         H           -1.292282827449    -1.692737198964    -2.157018475174     1.007825032230
         H           -0.215282827449    -0.631737198964    -3.032018475174     1.007825032230
         H            2.479057172551    -0.610943198964    -0.591758475174     1.007825032230
         C           -0.461282827449     1.275262801036     1.365981524826    12.000000000000
         C            0.215717172551     1.750262801036     2.706981524826    12.000000000000
         C           -1.782282827449     1.926262801036     1.090981524826    12.000000000000
         H            0.221717172551     1.451262801036     0.533981524826     1.007825032230
         H           -0.616282827449     0.196262801036     1.431981524826     1.007825032230
         H            0.205717172551     2.840262801036     2.749981524826     1.007825032230
         H            1.256717172551     1.427262801036     2.671981524826     1.007825032230
         H           -2.367282827449     1.270262801036     0.436981524826     1.007825032230
         H           -2.333282827449     2.039262801036     2.030981524826     1.007825032230
         H           -0.235502827449     1.331571801036     3.618621524826     1.007825032230
         H           -1.641402827449     2.899046801036     0.597171524826     1.007825032230

  Running in c1 symmetry.

  Rotational constants: A =      0.11227  B =      0.03068  C =      0.02825 [cm^-1]
  Rotational constants: A =   3365.85656  B =    919.86307  C =    846.99174 [MHz]
  Nuclear repulsion =  300.409276912754422

  Charge       = 0
  Multiplicity = 1
  Electrons    = 58
  Nalpha       = 29
  Nbeta        = 29

  ==> Algorithm <==

  SCF Algorithm Type is PK.
  DIIS enabled.
  MOM disabled.
  Fractional occupation disabled.
  Guess Type is SAD.
  Energy threshold   = 1.00e-06
  Density threshold  = 1.00e-10
  Integral threshold = 0.00e+00

  ==> Primary Basis <==

  Basis Set: CC-PVDZ
    Blend: CC-PVDZ
    Number of shells: 81
    Number of basis function: 163
    Number of Cartesian functions: 170
    Spherical Harmonics?: true
    Max angular momentum: 2

  ==> Pre-Iterations <==

   -------------------------------------------------------
    Irrep   Nso     Nmo     Nalpha   Nbeta   Ndocc  Nsocc
   -------------------------------------------------------
     A        163     163       0       0       0       0
   -------------------------------------------------------
    Total     163     163      29      29      29       0
   -------------------------------------------------------

  ==> Integral Setup <==

  Using integral reordering PK algorithm.
  Sizing the integral batches needed.
  Building batch lookup table.
   Calculation information:
      Number of atoms:                  20
      Number of AO shells:              81
      Number of primitives:            219
      Number of atomic orbitals:       170
      Number of basis functions:       163

      Integral cutoff                 1.00e-12
      Number of threads:                 1

	Batch   1 pq = [       0,    9405] index = [             0,44231715] size =     44231715
	Batch   2 pq = [    9405,   13366] index = [      44231715,89331661] size =     45099946
  Task number: 9
  Buffer size: 11059200
  Buffer per thread: 2
  We computed 4795287 shell quartets total.
  Whereas there are 5516181 unique shell quartets.

  ==> DiskJK: Disk-Based J/K Matrices <==

    J tasked:                  Yes
    K tasked:                  Yes
    wK tasked:                  No
    Memory [MiB]:              375
    Schwarz Cutoff:          1E-12

    OpenMP threads:              1

  Minimum eigenvalue in the overlap matrix is 4.6938272059E-03.
  Using Symmetric Orthogonalization.

  SCF Guess: Superposition of Atomic Densities via on-the-fly atomic UHF.

  ==> Iterations <==

                        Total Energy        Delta E     RMS |[F,P]|

   @RHF iter SAD:  -324.89543224850189   -3.24895e+02   0.00000e+00
   @RHF iter   1:  -325.99879428642765   -1.10336e+00   4.14823e-03 DIIS
   @RHF iter   2:  -326.20031869998490   -2.01524e-01   2.28761e-03 DIIS
   @RHF iter   3:  -326.25500830970225   -5.46896e-02   4.87665e-04 DIIS
   @RHF iter   4:  -326.25879951106367   -3.79120e-03   2.02464e-04 DIIS
   @RHF iter   5:  -326.25947182629409   -6.72315e-04   3.13977e-05 DIIS
   @RHF iter   6:  -326.25950459244592   -3.27662e-05   1.40771e-05 DIIS
   @RHF iter   7:  -326.25951020845196   -5.61601e-06   5.47257e-06 DIIS
   @RHF iter   8:  -326.25951136625275   -1.15780e-06   1.87241e-06 DIIS
   @RHF iter   9:  -326.25951150636610   -1.40113e-07   4.92188e-07 DIIS
   @RHF iter  10:  -326.25951151305856   -6.69246e-09   1.58562e-07 DIIS
   @RHF iter  11:  -326.25951151385948   -8.00924e-10   3.81531e-08 DIIS
   @RHF iter  12:  -326.25951151390819   -4.87148e-11   9.33019e-09 DIIS
   @RHF iter  13:  -326.25951151390882   -6.25278e-13   2.50498e-09 DIIS
   @RHF iter  14:  -326.25951151390859    2.27374e-13   9.06079e-10 DIIS
   @RHF iter  15:  -326.25951151390854    5.68434e-14   3.33962e-10 DIIS
   @RHF iter  16:  -326.25951151391126   -2.72848e-12   1.42470e-10 DIIS
   @RHF iter  17:  -326.25951151391251   -1.25056e-12   6.91646e-11 DIIS
  Energy and wave function converged.

  ==> Post-Iterations <==

    Orbital Energies [Eh]
    ---------------------

    Doubly Occupied:

       1A    -20.507144     2A    -15.589648     3A    -11.350154
       4A    -11.242850     5A    -11.211872     6A    -11.210861
       7A    -11.209868     8A     -1.369267     9A     -1.216660
      10A     -1.043415    11A     -1.001401    12A     -0.917613
      13A     -0.800099    14A     -0.788046    15A     -0.725338
      16A     -0.654800    17A     -0.617709    18A     -0.614772
      19A     -0.585942    20A     -0.573370    21A     -0.558241
      22A     -0.540645    23A     -0.530789    24A     -0.522453
      25A     -0.469564    26A     -0.462344    27A     -0.447661
      28A     -0.411335    29A     -0.405232

    Virtual:

      30A      0.156222    31A      0.190648    32A      0.199748
      33A      0.204819    34A      0.224236    35A      0.230550
      36A      0.250115    37A      0.260281    38A      0.263781
      39A      0.271374    40A      0.284088    41A      0.291086
      42A      0.306141    43A      0.355377    44A      0.384119
      45A      0.385970    46A      0.427298    47A      0.467407
      48A      0.544223    49A      0.592361    50A      0.602870
      51A      0.603550    52A      0.617223    53A      0.641600
      54A      0.652066    55A      0.685914    56A      0.718167
      57A      0.737023    58A      0.743427    59A      0.760779
      60A      0.778882    61A      0.826138    62A      0.841366
      63A      0.862093    64A      0.874021    65A      0.886922
      66A      0.894667    67A      0.899749    68A      0.906514
      69A      0.911591    70A      0.915572    71A      0.928241
      72A      0.933078    73A      0.939265    74A      0.966706
      75A      0.969161    76A      1.007628    77A      1.018128
      78A      1.039373    79A      1.069297    80A      1.115326
      81A      1.124016    82A      1.131892    83A      1.149131
      84A      1.223978    85A      1.327970    86A      1.339056
      87A      1.360752    88A      1.388323    89A      1.401091
      90A      1.423217    91A      1.435297    92A      1.474321
      93A      1.485807    94A      1.497852    95A      1.555020
      96A      1.648499    97A      1.664546    98A      1.673087
      99A      1.692464   100A      1.697686   101A      1.712838
     102A      1.739466   103A      1.789637   104A      1.837301
     105A      1.844298   106A      1.850092   107A      1.882456
     108A      1.891024   109A      1.908692   110A      1.919254
     111A      1.922148   112A      1.940816   113A      1.949220
     114A      1.962629   115A      1.966873   116A      1.978193
     117A      1.986204   118A      2.005262   119A      2.016957
     120A      2.041628   121A      2.047502   122A      2.061084
     123A      2.090646   124A      2.124524   125A      2.171835
     126A      2.187599   127A      2.243737   128A      2.269581
     129A      2.273672   130A      2.314653   131A      2.328165
     132A      2.351073   133A      2.424895   134A      2.449788
     135A      2.466872   136A      2.493020   137A      2.531867
     138A      2.554217   139A      2.563123   140A      2.595703
     141A      2.615178   142A      2.620156   143A      2.658477
     144A      2.697622   145A      2.753448   146A      2.766618
     147A      2.770402   148A      2.783015   149A      2.799893
     150A      2.846292   151A      2.882626   152A      2.897979
     153A      2.940505   154A      2.976421   155A      2.991220
     156A      3.061167   157A      3.096979   158A      3.136182
     159A      3.268481   160A      3.517658   161A      3.533052
     162A      3.856819   163A      3.906074

    Final Occupation by Irrep:
              A
    DOCC [    29 ]

  @RHF Final Energy:  -326.25951151391251

   => Energetics <=

    Nuclear Repulsion Energy =            300.4092769127544216
    One-Electron Energy =               -1038.1793886412078791
    Two-Electron Energy =                 411.5106002145409434
    Total Energy =                       -326.2595115139125141

Computation Completed

Properties will be evaluated at   0.000000,   0.000000,   0.000000 [a0]

Properties computed using the SCF density matrix

  Nuclear Dipole Moment: [e a0]
     X:    -0.7680      Y:     9.5830      Z:     4.1593

  Electronic Dipole Moment: [e a0]
     X:     0.7796      Y:    -8.8810      Z:    -5.6538

  Dipole Moment: [e a0]
     X:     0.0116      Y:     0.7021      Z:    -1.4945     Total:     1.6512

  Dipole Moment: [D]
     X:     0.0296      Y:     1.7845      Z:    -3.7987     Total:     4.1970

*** tstop() called on ds3 at Mon Apr 27 23:40:56 2020
Module time:
	user time   =      43.20 seconds =       0.72 minutes
	system time =      18.89 seconds =       0.31 minutes
	total time  =         60 seconds =       1.00 minutes
Total time:
	user time   =      43.20 seconds =       0.72 minutes
	system time =      18.89 seconds =       0.31 minutes
	total time  =         60 seconds =       1.00 minutes
                                     G D M A

                                 by Anthony Stone

                           version 2.2.06, 22 June 2011

               Distributed Multipoles from Gaussian wavefunctions

Starting at 23:40:57 on 27 Apr 2020

Using SCF density matrix from file ./SSI/SSI-183GLN-190LYS-1-dimer.test.3607.fchk

                         Distributed Multipole Analysis

Standard DMA

Positions and radii in angstrom
Multipole moments in atomic units, ea_0^k for rank k

C          x =  1.754717  y = -0.506737  z = -1.413018 angstrom
           Maximum rank =  0   Radius =  0.650 angstrom
                   Q00  =  -0.264074

C          x =  0.472717  y = -1.293737  z = -1.230018 angstrom
           Maximum rank =  0   Radius =  0.650 angstrom
                   Q00  =   0.828354

O          x =  0.243717  y = -1.927737  z = -0.205018 angstrom
           Maximum rank =  0   Radius =  0.650 angstrom
                   Q00  =  -0.783403

N          x = -0.390283  y = -1.234737  z = -2.245018 angstrom
           Maximum rank =  0   Radius =  0.650 angstrom
                   Q00  =  -0.540626

H          x =  1.493717  y =  0.545263  z = -1.521018 angstrom
           Maximum rank =  0   Radius =  0.325 angstrom
                   Q00  =   0.105127

H          x =  2.222717  y = -0.836737  z = -2.339018 angstrom
           Maximum rank =  0   Radius =  0.325 angstrom
                   Q00  =   0.101206

H          x = -1.292283  y = -1.692737  z = -2.157018 angstrom
           Maximum rank =  0   Radius =  0.325 angstrom
                   Q00  =   0.222239

H          x = -0.215283  y = -0.631737  z = -3.032018 angstrom
           Maximum rank =  0   Radius =  0.325 angstrom
                   Q00  =   0.201074

H          x =  2.479057  y = -0.610943  z = -0.591758 angstrom
           Maximum rank =  0   Radius =  0.325 angstrom
                   Q00  =   0.132370

C          x = -0.461283  y =  1.275263  z =  1.365982 angstrom
           Maximum rank =  0   Radius =  0.650 angstrom
                   Q00  =  -0.090613

C          x =  0.215717  y =  1.750263  z =  2.706982 angstrom
           Maximum rank =  0   Radius =  0.650 angstrom
                   Q00  =  -0.266641

C          x = -1.782283  y =  1.926263  z =  1.090982 angstrom
           Maximum rank =  0   Radius =  0.650 angstrom
                   Q00  =  -0.218999

H          x =  0.221717  y =  1.451263  z =  0.533982 angstrom
           Maximum rank =  0   Radius =  0.325 angstrom
                   Q00  =   0.033113

H          x = -0.616283  y =  0.196263  z =  1.431982 angstrom
           Maximum rank =  0   Radius =  0.325 angstrom
                   Q00  =   0.074941

H          x =  0.205717  y =  2.840263  z =  2.749982 angstrom
           Maximum rank =  0   Radius =  0.325 angstrom
                   Q00  =   0.070637

H          x =  1.256717  y =  1.427263  z =  2.671982 angstrom
           Maximum rank =  0   Radius =  0.325 angstrom
                   Q00  =   0.083024

H          x = -2.367283  y =  1.270263  z =  0.436982 angstrom
           Maximum rank =  0   Radius =  0.325 angstrom
                   Q00  =   0.078317

H          x = -2.333283  y =  2.039263  z =  2.030982 angstrom
           Maximum rank =  0   Radius =  0.325 angstrom
                   Q00  =   0.075531

H          x = -0.235503  y =  1.331572  z =  3.618622 angstrom
           Maximum rank =  0   Radius =  0.325 angstrom
                   Q00  =   0.089202

H          x = -1.641403  y =  2.899047  z =  0.597172 angstrom
           Maximum rank =  0   Radius =  0.325 angstrom
                   Q00  =   0.069221

Total multipoles referred to origin at
           x =   0.000000,  y =    0.000000,  z =    0.000000 angstrom
                   Q00  =  -0.000000

Finished at 23:40:57 on 27 Apr 2020

  DMA results are available in the Python driver through the
	  variable('DMA DISTRIBUTED MULTIPOLES')
  and
	  variable('DMA TOTAL MULTIPOLES')
  commands.

    Psi4 stopped on: Monday, 27 April 2020 11:40PM
    Psi4 wall time for execution: 0:01:00.59

*** Psi4 exiting successfully. Buy a developer a beer!
