                               Psi4 1.3.2 release

  ==> Input File <==

--------------------------------------------------------------------------
import numpy as np
set {scf_type pk
basis cc-pvdz
d_convergence 10
gdma_switch   0
gdma_limit    0
gdma_origin   [ 0.0,  0.0,  0.0 ]
}
molecule test {
    units Angstrom
    0 1
    --
    0 1
    C                1.337514218839465    -1.386217316343479    -1.631402400520956
    O                1.036514218839465    -0.248217316343479    -0.852402400520956
    H                0.772514218839465     0.466782683656521    -1.447402400520956
    H                2.222514218839466    -1.171217316343479    -2.232402400520956
    H                0.509514218839465    -1.582217316343479    -2.315402400520956
    H                1.528024218839465    -2.290762016343478    -1.035162400520956
    C               -1.171485781160535     1.094782683656521     1.911597599479044
    O               -1.170485781160535     0.446782683656521     0.666597599479044
    H               -1.376485781160535     1.104782683656521    -0.007402400520956
    H               -2.178485781160535     1.439782683656522     2.147597599479044
    H               -0.833955781160535     0.395668683656521     2.690897599479044
    H               -0.494285781160535     1.955865683656521     1.811897599479044

}
e, wfn = energy('scf', return_wfn=True)
gdma(wfn)
dmavals = variable('DMA DISTRIBUTED MULTIPOLES')
charges = np.array(dmavals)
print(charges)
np.save('SSI-024SER-038THR-1-dimer.npy', np.array(charges))--------------------------------------------------------------------------

*** tstart() called on ds3
*** at Tue Apr 28 21:00:02 2020

   => Loading Basis Set <=

    Name: CC-PVDZ
    Role: ORBITAL
    Keyword: BASIS
    atoms 1, 7      entry C          line   138 file /theoryfs2/ds/metcalf/miniconda2/envs/tf2gpu/share/psi4/basis/cc-pvdz.gbs
    atoms 2, 8      entry O          line   198 file /theoryfs2/ds/metcalf/miniconda2/envs/tf2gpu/share/psi4/basis/cc-pvdz.gbs
    atoms 3-6, 9-12 entry H          line    22 file /theoryfs2/ds/metcalf/miniconda2/envs/tf2gpu/share/psi4/basis/cc-pvdz.gbs

         ---------------------------------------------------------
                                   SCF
               by Justin Turney, Rob Parrish, Andy Simmonett
                          and Daniel G. A. Smith
                              RHF Reference
                        1 Threads,    500 MiB Core
         ---------------------------------------------------------

  ==> Geometry <==

    Molecular point group: c1
    Full point group: C1

    Geometry (in Angstrom), charge = 0, multiplicity = 1:

       Center              X                  Y                   Z               Mass
    ------------   -----------------  -----------------  -----------------  -----------------
         C            1.337514218839    -1.386217316343    -1.631402400521    12.000000000000
         O            1.036514218839    -0.248217316343    -0.852402400521    15.994914619570
         H            0.772514218839     0.466782683657    -1.447402400521     1.007825032230
         H            2.222514218839    -1.171217316343    -2.232402400521     1.007825032230
         H            0.509514218839    -1.582217316343    -2.315402400521     1.007825032230
         H            1.528024218839    -2.290762016343    -1.035162400521     1.007825032230
         C           -1.171485781161     1.094782683657     1.911597599479    12.000000000000
         O           -1.170485781161     0.446782683657     0.666597599479    15.994914619570
         H           -1.376485781161     1.104782683657    -0.007402400521     1.007825032230
         H           -2.178485781161     1.439782683657     2.147597599479     1.007825032230
         H           -0.833955781161     0.395668683657     2.690897599479     1.007825032230
         H           -0.494285781161     1.955865683657     1.811897599479     1.007825032230

  Running in c1 symmetry.

  Rotational constants: A =      0.86931  B =      0.06406  C =      0.06321 [cm^-1]
  Rotational constants: A =  26061.22791  B =   1920.55702  C =   1894.84949 [MHz]
  Nuclear repulsion =  126.152710070700238

  Charge       = 0
  Multiplicity = 1
  Electrons    = 36
  Nalpha       = 18
  Nbeta        = 18

  ==> Algorithm <==

  SCF Algorithm Type is PK.
  DIIS enabled.
  MOM disabled.
  Fractional occupation disabled.
  Guess Type is SAD.
  Energy threshold   = 1.00e-06
  Density threshold  = 1.00e-10
  Integral threshold = 0.00e+00

  ==> Primary Basis <==

  Basis Set: CC-PVDZ
    Blend: CC-PVDZ
    Number of shells: 48
    Number of basis function: 96
    Number of Cartesian functions: 100
    Spherical Harmonics?: true
    Max angular momentum: 2

  ==> Pre-Iterations <==

   -------------------------------------------------------
    Irrep   Nso     Nmo     Nalpha   Nbeta   Ndocc  Nsocc
   -------------------------------------------------------
     A         96      96       0       0       0       0
   -------------------------------------------------------
    Total      96      96      18      18      18       0
   -------------------------------------------------------

  ==> Integral Setup <==

  Using in-core PK algorithm.
   Calculation information:
      Number of atoms:                  12
      Number of AO shells:              48
      Number of primitives:            128
      Number of atomic orbitals:       100
      Number of basis functions:        96

      Integral cutoff                 1.00e-12
      Number of threads:                 1

  Performing in-core PK
  Using 21682992 doubles for integral storage.
  We computed 554216 shell quartets total.
  Whereas there are 692076 unique shell quartets.

  ==> DiskJK: Disk-Based J/K Matrices <==

    J tasked:                  Yes
    K tasked:                  Yes
    wK tasked:                  No
    Memory [MiB]:              375
    Schwarz Cutoff:          1E-12

    OpenMP threads:              1

  Minimum eigenvalue in the overlap matrix is 1.6034142021E-02.
  Using Symmetric Orthogonalization.

  SCF Guess: Superposition of Atomic Densities via on-the-fly atomic UHF.

  ==> Iterations <==

                        Total Energy        Delta E     RMS |[F,P]|

   @RHF iter SAD:  -228.85070864700026   -2.28851e+02   0.00000e+00
   @RHF iter   1:  -229.94921625496426   -1.09851e+00   5.40759e-03 DIIS
   @RHF iter   2:  -230.05752894843070   -1.08313e-01   2.88286e-03 DIIS
   @RHF iter   3:  -230.08529181843377   -2.77629e-02   4.70921e-04 DIIS
   @RHF iter   4:  -230.08681043447098   -1.51862e-03   1.20208e-04 DIIS
   @RHF iter   5:  -230.08690276720364   -9.23327e-05   2.98692e-05 DIIS
   @RHF iter   6:  -230.08690883963015   -6.07243e-06   6.71177e-06 DIIS
   @RHF iter   7:  -230.08690933782239   -4.98192e-07   1.51929e-06 DIIS
   @RHF iter   8:  -230.08690936846537   -3.06430e-08   3.54918e-07 DIIS
   @RHF iter   9:  -230.08690936989302   -1.42765e-09   1.33046e-07 DIIS
   @RHF iter  10:  -230.08690937002100   -1.27983e-10   4.05080e-08 DIIS
   @RHF iter  11:  -230.08690937003766   -1.66551e-11   1.00089e-08 DIIS
   @RHF iter  12:  -230.08690937003939   -1.73372e-12   2.41332e-09 DIIS
   @RHF iter  13:  -230.08690937003902    3.69482e-13   7.15137e-10 DIIS
   @RHF iter  14:  -230.08690937003988   -8.52651e-13   2.70831e-10 DIIS
   @RHF iter  15:  -230.08690937003939    4.83169e-13   7.78307e-11 DIIS
  Energy and wave function converged.

  ==> Post-Iterations <==

    Orbital Energies [Eh]
    ---------------------

    Doubly Occupied:

       1A    -20.535684     2A    -20.533228     3A    -11.266135
       4A    -11.265383     5A     -1.343347     6A     -1.337363
       7A     -0.910898     8A     -0.906352     9A     -0.673228
      10A     -0.667783    11A     -0.610921    12A     -0.605830
      13A     -0.586604    14A     -0.576223    15A     -0.485031
      16A     -0.476348    17A     -0.433142    18A     -0.416298

    Virtual:

      19A      0.172023    20A      0.201299    21A      0.221432
      22A      0.255425    23A      0.271723    24A      0.272850
      25A      0.279224    26A      0.285975    27A      0.363015
      28A      0.380474    29A      0.641710    30A      0.643999
      31A      0.647200    32A      0.650746    33A      0.739328
      34A      0.749040    35A      0.794583    36A      0.845910
      37A      0.869217    38A      0.869371    39A      0.895545
      40A      0.907774    41A      0.914066    42A      0.918624
      43A      1.103069    44A      1.127813    45A      1.144693
      46A      1.166107    47A      1.172664    48A      1.192184
      49A      1.221054    50A      1.306899    51A      1.332908
      52A      1.434119    53A      1.480014    54A      1.489357
      55A      1.601999    56A      1.661107    57A      1.669591
      58A      1.677288    59A      1.684520    60A      1.741996
      61A      1.856575    62A      1.884266    63A      1.900270
      64A      1.911765    65A      1.914454    66A      1.942458
      67A      1.966637    68A      1.982221    69A      2.040641
      70A      2.072040    71A      2.176569    72A      2.201405
      73A      2.294639    74A      2.333439    75A      2.360036
      76A      2.366390    77A      2.382088    78A      2.384569
      79A      2.518998    80A      2.542380    81A      2.748673
      82A      2.753844    83A      2.761366    84A      2.769011
      85A      2.777590    86A      2.787309    87A      3.318226
      88A      3.328208    89A      3.401811    90A      3.406475
      91A      3.462546    92A      3.484264    93A      3.612332
      94A      3.616047    95A      4.066337    96A      4.146285

    Final Occupation by Irrep:
              A
    DOCC [    18 ]

  @RHF Final Energy:  -230.08690937003939

   => Energetics <=

    Nuclear Repulsion Energy =            126.1527100707002376
    One-Electron Energy =                -565.2196403521220418
    Two-Electron Energy =                 208.9800209113824394
    Total Energy =                       -230.0869093700393933

Computation Completed

Properties will be evaluated at   0.000000,   0.000000,   0.000000 [a0]

Properties computed using the SCF density matrix

  Nuclear Dipole Moment: [e a0]
     X:     0.1394      Y:     0.2997      Z:    -0.3640

  Electronic Dipole Moment: [e a0]
     X:    -0.3001      Y:     0.2973      Z:    -0.2015

  Dipole Moment: [e a0]
     X:    -0.1608      Y:     0.5971      Z:    -0.5656     Total:     0.8380

  Dipole Moment: [D]
     X:    -0.4086      Y:     1.5176      Z:    -1.4375     Total:     2.1299

*** tstop() called on ds3 at Tue Apr 28 21:00:06 2020
Module time:
	user time   =       4.02 seconds =       0.07 minutes
	system time =       0.07 seconds =       0.00 minutes
	total time  =          4 seconds =       0.07 minutes
Total time:
	user time   =       4.02 seconds =       0.07 minutes
	system time =       0.07 seconds =       0.00 minutes
	total time  =          4 seconds =       0.07 minutes
                                     G D M A

                                 by Anthony Stone

                           version 2.2.06, 22 June 2011

               Distributed Multipoles from Gaussian wavefunctions

Starting at 21:0:6 on 28 Apr 2020

Using SCF density matrix from file ./SSI/SSI-024SER-038THR-1-dimer.test.7417.fchk

                         Distributed Multipole Analysis

Standard DMA

Positions and radii in angstrom
Multipole moments in atomic units, ea_0^k for rank k

C          x =  1.337514  y = -1.386217  z = -1.631402 angstrom
           Maximum rank =  0   Radius =  0.650 angstrom
                   Q00  =  -0.031595

O          x =  1.036514  y = -0.248217  z = -0.852402 angstrom
           Maximum rank =  0   Radius =  0.650 angstrom
                   Q00  =  -0.564937

H          x =  0.772514  y =  0.466783  z = -1.447402 angstrom
           Maximum rank =  0   Radius =  0.325 angstrom
                   Q00  =   0.368822

H          x =  2.222514  y = -1.171217  z = -2.232402 angstrom
           Maximum rank =  0   Radius =  0.325 angstrom
                   Q00  =   0.054088

H          x =  0.509514  y = -1.582217  z = -2.315402 angstrom
           Maximum rank =  0   Radius =  0.325 angstrom
                   Q00  =   0.058127

H          x =  1.528024  y = -2.290762  z = -1.035162 angstrom
           Maximum rank =  0   Radius =  0.325 angstrom
                   Q00  =   0.115118

C          x = -1.171486  y =  1.094783  z =  1.911598 angstrom
           Maximum rank =  0   Radius =  0.650 angstrom
                   Q00  =  -0.038633

O          x = -1.170486  y =  0.446783  z =  0.666598 angstrom
           Maximum rank =  0   Radius =  0.650 angstrom
                   Q00  =  -0.554598

H          x = -1.376486  y =  1.104783  z = -0.007402 angstrom
           Maximum rank =  0   Radius =  0.325 angstrom
                   Q00  =   0.362923

H          x = -2.178486  y =  1.439783  z =  2.147598 angstrom
           Maximum rank =  0   Radius =  0.325 angstrom
                   Q00  =   0.055380

H          x = -0.833956  y =  0.395669  z =  2.690898 angstrom
           Maximum rank =  0   Radius =  0.325 angstrom
                   Q00  =   0.116635

H          x = -0.494286  y =  1.955866  z =  1.811898 angstrom
           Maximum rank =  0   Radius =  0.325 angstrom
                   Q00  =   0.058671

Total multipoles referred to origin at
           x =   0.000000,  y =    0.000000,  z =    0.000000 angstrom
                   Q00  =  -0.000000

Finished at 21:0:6 on 28 Apr 2020

  DMA results are available in the Python driver through the
	  variable('DMA DISTRIBUTED MULTIPOLES')
  and
	  variable('DMA TOTAL MULTIPOLES')
  commands.

    Psi4 stopped on: Tuesday, 28 April 2020 09:00PM
    Psi4 wall time for execution: 0:00:04.38

*** Psi4 exiting successfully. Buy a developer a beer!
