                               Psi4 1.3.2 release

  ==> Input File <==

--------------------------------------------------------------------------
import numpy as np
set {scf_type pk
basis cc-pvdz
d_convergence 10
gdma_switch   0
gdma_limit    0
gdma_origin   [ 0.0,  0.0,  0.0 ]
}
molecule test {
    units Angstrom
    0 1
    --
    0 1
    C                2.680697649812234     0.535592086794957    -0.729120690307956
    C                3.428697649812233    -0.793407913205043    -0.678120690307956
    C                1.582697649812234     0.710592086794957     0.287879309692044
    C                1.143697649812234    -0.356407913205043     1.081879309692044
    C                0.984697649812234     1.963592086794957     0.449879309692044
    C                0.128697649812234    -0.172407913205043     2.021879309692044
    C               -0.029302350187766     2.156592086794957     1.385879309692044
    C               -0.454302350187766     1.088592086794957     2.172879309692044
    O               -1.437302350187766     1.285592086794957     3.094879309692044
    H                3.396697649812234     1.349592086794956    -0.608120690307956
    H                2.229697649812234     0.641592086794957    -1.717120690307956
    H                2.714697649812233    -1.614407913205043    -0.759120690307956
    H                1.557697649812234    -1.347407913205043     0.987879309692044
    H                1.307697649812234     2.789592086794956    -0.169120690307956
    H               -0.209302350187766    -1.002407913205043     2.625879309692044
    H               -0.482302350187766     3.126592086794956     1.503879309692044
    H               -1.617302350187766     0.494592086794957     3.614879309692044
    H                4.031427649812233    -0.871007913205043     0.238779309692044
    H                4.093617649812233    -0.846567913205043    -1.552790690307956
    C               -0.284302350187766    -1.131407913205043    -2.365120690307956
    C               -2.649302350187766    -1.015407913205044    -0.884120690307956
    S               -2.011302350187766    -1.668407913205043    -2.434120690307956
    H                0.127697649812234    -1.314407913205043    -1.376120690307956
    H                0.303697649812234    -1.671407913205043    -3.106120690307956
    H               -0.226302350187766    -0.062407913205043    -2.575120690307956
    H               -2.053302350187766    -1.391407913205043    -0.051120690307956
    H               -3.666302350187766    -1.392407913205044    -0.771120690307956
    H               -2.665992350187766     0.084042086794957    -0.853640690307956

}
e, wfn = energy('scf', return_wfn=True)
gdma(wfn)
dmavals = variable('DMA DISTRIBUTED MULTIPOLES')
charges = np.array(dmavals)
print(charges)
np.save('SSI-128TYR-158MET-1-dimer.npy', np.array(charges))--------------------------------------------------------------------------

*** tstart() called on ds3
*** at Mon Apr 27 23:43:45 2020

   => Loading Basis Set <=

    Name: CC-PVDZ
    Role: ORBITAL
    Keyword: BASIS
    atoms 1-8, 20-21   entry C          line   138 file /theoryfs2/ds/metcalf/miniconda2/envs/tf2gpu/share/psi4/basis/cc-pvdz.gbs
    atoms 9            entry O          line   198 file /theoryfs2/ds/metcalf/miniconda2/envs/tf2gpu/share/psi4/basis/cc-pvdz.gbs
    atoms 10-19, 23-28 entry H          line    22 file /theoryfs2/ds/metcalf/miniconda2/envs/tf2gpu/share/psi4/basis/cc-pvdz.gbs
    atoms 22           entry S          line   598 file /theoryfs2/ds/metcalf/miniconda2/envs/tf2gpu/share/psi4/basis/cc-pvdz.gbs

         ---------------------------------------------------------
                                   SCF
               by Justin Turney, Rob Parrish, Andy Simmonett
                          and Daniel G. A. Smith
                              RHF Reference
                        1 Threads,    500 MiB Core
         ---------------------------------------------------------

  ==> Geometry <==

    Molecular point group: c1
    Full point group: C1

    Geometry (in Angstrom), charge = 0, multiplicity = 1:

       Center              X                  Y                   Z               Mass
    ------------   -----------------  -----------------  -----------------  -----------------
         C            2.680697649812     0.535592086795    -0.729120690308    12.000000000000
         C            3.428697649812    -0.793407913205    -0.678120690308    12.000000000000
         C            1.582697649812     0.710592086795     0.287879309692    12.000000000000
         C            1.143697649812    -0.356407913205     1.081879309692    12.000000000000
         C            0.984697649812     1.963592086795     0.449879309692    12.000000000000
         C            0.128697649812    -0.172407913205     2.021879309692    12.000000000000
         C           -0.029302350188     2.156592086795     1.385879309692    12.000000000000
         C           -0.454302350188     1.088592086795     2.172879309692    12.000000000000
         O           -1.437302350188     1.285592086795     3.094879309692    15.994914619570
         H            3.396697649812     1.349592086795    -0.608120690308     1.007825032230
         H            2.229697649812     0.641592086795    -1.717120690308     1.007825032230
         H            2.714697649812    -1.614407913205    -0.759120690308     1.007825032230
         H            1.557697649812    -1.347407913205     0.987879309692     1.007825032230
         H            1.307697649812     2.789592086795    -0.169120690308     1.007825032230
         H           -0.209302350188    -1.002407913205     2.625879309692     1.007825032230
         H           -0.482302350188     3.126592086795     1.503879309692     1.007825032230
         H           -1.617302350188     0.494592086795     3.614879309692     1.007825032230
         H            4.031427649812    -0.871007913205     0.238779309692     1.007825032230
         H            4.093617649812    -0.846567913205    -1.552790690308     1.007825032230
         C           -0.284302350188    -1.131407913205    -2.365120690308    12.000000000000
         C           -2.649302350188    -1.015407913205    -0.884120690308    12.000000000000
         S           -2.011302350188    -1.668407913205    -2.434120690308    31.972071174400
         H            0.127697649812    -1.314407913205    -1.376120690308     1.007825032230
         H            0.303697649812    -1.671407913205    -3.106120690308     1.007825032230
         H           -0.226302350188    -0.062407913205    -2.575120690308     1.007825032230
         H           -2.053302350188    -1.391407913205    -0.051120690308     1.007825032230
         H           -3.666302350188    -1.392407913205    -0.771120690308     1.007825032230
         H           -2.665992350188     0.084042086795    -0.853640690308     1.007825032230

  Running in c1 symmetry.

  Rotational constants: A =      0.02485  B =      0.01695  C =      0.01156 [cm^-1]
  Rotational constants: A =    745.11552  B =    508.27614  C =    346.63212 [MHz]
  Nuclear repulsion =  767.632049295219645

  Charge       = 0
  Multiplicity = 1
  Electrons    = 100
  Nalpha       = 50
  Nbeta        = 50

  ==> Algorithm <==

  SCF Algorithm Type is PK.
  DIIS enabled.
  MOM disabled.
  Fractional occupation disabled.
  Guess Type is SAD.
  Energy threshold   = 1.00e-06
  Density threshold  = 1.00e-10
  Integral threshold = 0.00e+00

  ==> Primary Basis <==

  Basis Set: CC-PVDZ
    Blend: CC-PVDZ
    Number of shells: 122
    Number of basis function: 252
    Number of Cartesian functions: 264
    Spherical Harmonics?: true
    Max angular momentum: 2

  ==> Pre-Iterations <==

   -------------------------------------------------------
    Irrep   Nso     Nmo     Nalpha   Nbeta   Ndocc  Nsocc
   -------------------------------------------------------
     A        252     252       0       0       0       0
   -------------------------------------------------------
    Total     252     252      50      50      50       0
   -------------------------------------------------------

  ==> Integral Setup <==

  Using integral reordering PK algorithm.
  Sizing the integral batches needed.
  Building batch lookup table.
   Calculation information:
      Number of atoms:                  28
      Number of AO shells:             122
      Number of primitives:            372
      Number of atomic orbitals:       264
      Number of basis functions:       252

      Integral cutoff                 1.00e-12
      Number of threads:                 1

	Batch   1 pq = [       0,    9405] index = [             0,44231715] size =     44231715
	Batch   2 pq = [    9405,   13301] index = [      44231715,88464951] size =     44233236
	Batch   3 pq = [   13301,   16290] index = [      88464951,132690195] size =     44225244
	Batch   4 pq = [   16290,   18810] index = [     132690195,176917455] size =     44227260
	Batch   5 pq = [   18810,   21030] index = [     176917455,221140965] size =     44223510
	Batch   6 pq = [   21030,   23037] index = [     221140965,265363203] size =     44222238
	Batch   7 pq = [   23037,   24883] index = [     265363203,309594286] size =     44231083
	Batch   8 pq = [   24883,   26601] index = [     309594286,353819901] size =     44225615
	Batch   9 pq = [   26601,   28214] index = [     353819901,398029005] size =     44209104
	Batch  10 pq = [   28214,   29740] index = [     398029005,442248670] size =     44219665
	Batch  11 pq = [   29740,   31191] index = [     442248670,486454836] size =     44206166
	Batch  12 pq = [   31191,   31878] index = [     486454836,508119381] size =     21664545
  Task number: 46
  Buffer size: 11059200
  Buffer per thread: 2
  We computed 29361351 shell quartets total.
  Whereas there are 28151256 unique shell quartets.
     4.30 percent of shell quartets recomputed by reordering.

  ==> DiskJK: Disk-Based J/K Matrices <==

    J tasked:                  Yes
    K tasked:                  Yes
    wK tasked:                  No
    Memory [MiB]:              375
    Schwarz Cutoff:          1E-12

    OpenMP threads:              1

  Minimum eigenvalue in the overlap matrix is 3.2030968890E-04.
  Using Symmetric Orthogonalization.

  SCF Guess: Superposition of Atomic Densities via on-the-fly atomic UHF.

  ==> Iterations <==

                        Total Energy        Delta E     RMS |[F,P]|

   @RHF iter SAD:  -859.24118687969894   -8.59241e+02   0.00000e+00
   @RHF iter   1:  -860.14688998721181   -9.05703e-01   2.49422e-03 DIIS
   @RHF iter   2:  -860.37654430634586   -2.29654e-01   1.01992e-03 DIIS
   @RHF iter   3:  -860.41018699952986   -3.36427e-02   2.62758e-04 DIIS
   @RHF iter   4:  -860.41362105155872   -3.43405e-03   1.03252e-04 DIIS
   @RHF iter   5:  -860.41402336664260   -4.02315e-04   2.01967e-05 DIIS
   @RHF iter   6:  -860.41404548239143   -2.21157e-05   5.73558e-06 DIIS
   @RHF iter   7:  -860.41404752356175   -2.04117e-06   2.05226e-06 DIIS
   @RHF iter   8:  -860.41404783495909   -3.11397e-07   7.57598e-07 DIIS
   @RHF iter   9:  -860.41404790119236   -6.62333e-08   3.02167e-07 DIIS
   @RHF iter  10:  -860.41404791276125   -1.15689e-08   1.45172e-07 DIIS
   @RHF iter  11:  -860.41404791665059   -3.88934e-09   6.25482e-08 DIIS
   @RHF iter  12:  -860.41404791741445   -7.63862e-10   2.25003e-08 DIIS
   @RHF iter  13:  -860.41404791747073   -5.62750e-11   8.83127e-09 DIIS
   @RHF iter  14:  -860.41404791747493   -4.20641e-12   2.09623e-09 DIIS
   @RHF iter  15:  -860.41404791747766   -2.72848e-12   8.25769e-10 DIIS
   @RHF iter  16:  -860.41404791747777   -1.13687e-13   3.77041e-10 DIIS
   @RHF iter  17:  -860.41404791747436    3.41061e-12   1.67492e-10 DIIS
   @RHF iter  18:  -860.41404791747925   -4.88853e-12   7.96374e-11 DIIS
  Energy and wave function converged.

  ==> Post-Iterations <==

    Orbital Energies [Eh]
    ---------------------

    Doubly Occupied:

       1A    -91.929527     2A    -20.587120     3A    -11.305021
       4A    -11.249136     5A    -11.248792     6A    -11.243818
       7A    -11.243678     8A    -11.238562     9A    -11.237778
      10A    -11.235984    11A    -11.233250    12A    -11.229116
      13A     -8.933178    14A     -6.615293    15A     -6.613665
      16A     -6.611449    17A     -1.403801    18A     -1.155784
      19A     -1.064112    20A     -1.053822    21A     -1.023185
      22A     -0.981105    23A     -0.945522    24A     -0.870425
      25A     -0.847979    26A     -0.799226    27A     -0.792219
      28A     -0.737145    29A     -0.677503    30A     -0.641574
      31A     -0.624910    32A     -0.616047    33A     -0.596676
      34A     -0.591930    35A     -0.590696    36A     -0.586962
      37A     -0.580529    38A     -0.568356    39A     -0.554970
      40A     -0.539354    41A     -0.516027    42A     -0.513567
      43A     -0.491246    44A     -0.483022    45A     -0.480636
      46A     -0.467357    47A     -0.419854    48A     -0.344362
      49A     -0.324662    50A     -0.304586

    Virtual:

      51A      0.121675    52A      0.148202    53A      0.168603
      54A      0.168885    55A      0.193308    56A      0.203225
      57A      0.204701    58A      0.211820    59A      0.235989
      60A      0.243133    61A      0.247496    62A      0.254906
      63A      0.257434    64A      0.268339    65A      0.270734
      66A      0.283682    67A      0.293655    68A      0.309235
      69A      0.315672    70A      0.341906    71A      0.366495
      72A      0.389317    73A      0.397526    74A      0.428936
      75A      0.449278    76A      0.472575    77A      0.497206
      78A      0.506930    79A      0.520656    80A      0.569814
      81A      0.587730    82A      0.595203    83A      0.610797
      84A      0.624652    85A      0.634934    86A      0.654421
      87A      0.671649    88A      0.679065    89A      0.698818
      90A      0.703177    91A      0.709927    92A      0.710260
      93A      0.720583    94A      0.732579    95A      0.732806
      96A      0.739609    97A      0.760329    98A      0.767175
      99A      0.784061   100A      0.796431   101A      0.807684
     102A      0.811185   103A      0.827487   104A      0.830557
     105A      0.838462   106A      0.854286   107A      0.862381
     108A      0.866293   109A      0.876239   110A      0.878378
     111A      0.885519   112A      0.890734   113A      0.896500
     114A      0.901062   115A      0.910397   116A      0.914025
     117A      0.917127   118A      0.923817   119A      0.924952
     120A      0.937693   121A      0.945234   122A      0.956459
     123A      0.965700   124A      0.973053   125A      1.001907
     126A      1.010734   127A      1.024584   128A      1.033720
     129A      1.043064   130A      1.088519   131A      1.136331
     132A      1.144547   133A      1.150827   134A      1.183194
     135A      1.202049   136A      1.222939   137A      1.241790
     138A      1.249556   139A      1.258121   140A      1.264845
     141A      1.280821   142A      1.293896   143A      1.302790
     144A      1.307548   145A      1.315177   146A      1.321088
     147A      1.335836   148A      1.345951   149A      1.360097
     150A      1.377006   151A      1.395164   152A      1.435027
     153A      1.469332   154A      1.478525   155A      1.484114
     156A      1.497308   157A      1.513706   158A      1.552451
     159A      1.587225   160A      1.613823   161A      1.620125
     162A      1.661238   163A      1.676263   164A      1.678380
     165A      1.685986   166A      1.747023   167A      1.761372
     168A      1.774693   169A      1.791879   170A      1.804877
     171A      1.816651   172A      1.852111   173A      1.871220
     174A      1.879026   175A      1.888625   176A      1.890295
     177A      1.893649   178A      1.905209   179A      1.915842
     180A      1.919398   181A      1.931859   182A      1.938264
     183A      1.945525   184A      1.957854   185A      1.962243
     186A      1.975345   187A      1.983772   188A      1.988507
     189A      1.998787   190A      2.008784   191A      2.014078
     192A      2.022330   193A      2.029929   194A      2.055354
     195A      2.064549   196A      2.068287   197A      2.077415
     198A      2.083038   199A      2.112607   200A      2.122163
     201A      2.129791   202A      2.164653   203A      2.174776
     204A      2.190235   205A      2.218498   206A      2.233939
     207A      2.238288   208A      2.256718   209A      2.264697
     210A      2.300183   211A      2.340490   212A      2.350522
     213A      2.361350   214A      2.402651   215A      2.413774
     216A      2.438739   217A      2.449751   218A      2.457783
     219A      2.466926   220A      2.476029   221A      2.486763
     222A      2.506507   223A      2.534393   224A      2.559291
     225A      2.603639   226A      2.610920   227A      2.639359
     228A      2.733313   229A      2.741645   230A      2.749056
     231A      2.770951   232A      2.776047   233A      2.795480
     234A      2.797020   235A      2.806280   236A      2.826402
     237A      2.850251   238A      2.874478   239A      2.882255
     240A      2.949776   241A      2.969383   242A      2.982701
     243A      3.012853   244A      3.084328   245A      3.136565
     246A      3.243608   247A      3.274504   248A      3.344148
     249A      3.567248   250A      3.669261   251A      3.964500
     252A      4.189370

    Final Occupation by Irrep:
              A
    DOCC [    50 ]

  @RHF Final Energy:  -860.41404791747925

   => Energetics <=

    Nuclear Repulsion Energy =            767.6320492952196446
    One-Electron Energy =               -2702.2031624453506993
    Two-Electron Energy =                1074.1570652326518029
    Total Energy =                       -860.4140479174793654

Computation Completed

Properties will be evaluated at   0.000000,   0.000000,   0.000000 [a0]

Properties computed using the SCF density matrix

  Nuclear Dipole Moment: [e a0]
     X:     8.2292      Y:    -2.8764      Z:    -4.3319

  Electronic Dipole Moment: [e a0]
     X:    -7.6584      Y:     2.7818      Z:     4.9125

  Dipole Moment: [e a0]
     X:     0.5709      Y:    -0.0946      Z:     0.5806     Total:     0.8197

  Dipole Moment: [D]
     X:     1.4510      Y:    -0.2403      Z:     1.4756     Total:     2.0834

*** tstop() called on ds3 at Mon Apr 27 23:49:32 2020
Module time:
	user time   =     261.37 seconds =       4.36 minutes
	system time =      99.92 seconds =       1.67 minutes
	total time  =        347 seconds =       5.78 minutes
Total time:
	user time   =     261.37 seconds =       4.36 minutes
	system time =      99.92 seconds =       1.67 minutes
	total time  =        347 seconds =       5.78 minutes
                                     G D M A

                                 by Anthony Stone

                           version 2.2.06, 22 June 2011

               Distributed Multipoles from Gaussian wavefunctions

Starting at 23:49:32 on 27 Apr 2020

Using SCF density matrix from file ./SSI/SSI-128TYR-158MET-1-dimer.test.3854.fchk

                         Distributed Multipole Analysis

Standard DMA

Positions and radii in angstrom
Multipole moments in atomic units, ea_0^k for rank k

C          x =  2.680698  y =  0.535592  z = -0.729121 angstrom
           Maximum rank =  0   Radius =  0.650 angstrom
                   Q00  =  -0.043290

C          x =  3.428698  y = -0.793408  z = -0.678121 angstrom
           Maximum rank =  0   Radius =  0.650 angstrom
                   Q00  =  -0.252342

C          x =  1.582698  y =  0.710592  z =  0.287879 angstrom
           Maximum rank =  0   Radius =  0.650 angstrom
                   Q00  =  -0.138288

C          x =  1.143698  y = -0.356408  z =  1.081879 angstrom
           Maximum rank =  0   Radius =  0.650 angstrom
                   Q00  =  -0.046928

C          x =  0.984698  y =  1.963592  z =  0.449879 angstrom
           Maximum rank =  0   Radius =  0.650 angstrom
                   Q00  =   0.034001

C          x =  0.128698  y = -0.172408  z =  2.021879 angstrom
           Maximum rank =  0   Radius =  0.650 angstrom
                   Q00  =  -0.198451

C          x = -0.029302  y =  2.156592  z =  1.385879 angstrom
           Maximum rank =  0   Radius =  0.650 angstrom
                   Q00  =  -0.109427

C          x = -0.454302  y =  1.088592  z =  2.172879 angstrom
           Maximum rank =  0   Radius =  0.650 angstrom
                   Q00  =   0.322938

O          x = -1.437302  y =  1.285592  z =  3.094879 angstrom
           Maximum rank =  0   Radius =  0.650 angstrom
                   Q00  =  -0.672542

H          x =  3.396698  y =  1.349592  z = -0.608121 angstrom
           Maximum rank =  0   Radius =  0.325 angstrom
                   Q00  =   0.071479

H          x =  2.229698  y =  0.641592  z = -1.717121 angstrom
           Maximum rank =  0   Radius =  0.325 angstrom
                   Q00  =   0.070397

H          x =  2.714698  y = -1.614408  z = -0.759121 angstrom
           Maximum rank =  0   Radius =  0.325 angstrom
                   Q00  =   0.080819

H          x =  1.557698  y = -1.347408  z =  0.987879 angstrom
           Maximum rank =  0   Radius =  0.325 angstrom
                   Q00  =   0.072320

H          x =  1.307698  y =  2.789592  z = -0.169121 angstrom
           Maximum rank =  0   Radius =  0.325 angstrom
                   Q00  =   0.062748

H          x = -0.209302  y = -1.002408  z =  2.625879 angstrom
           Maximum rank =  0   Radius =  0.325 angstrom
                   Q00  =   0.074808

H          x = -0.482302  y =  3.126592  z =  1.503879 angstrom
           Maximum rank =  0   Radius =  0.325 angstrom
                   Q00  =   0.083377

H          x = -1.617302  y =  0.494592  z =  3.614879 angstrom
           Maximum rank =  0   Radius =  0.325 angstrom
                   Q00  =   0.407734

H          x =  4.031428  y = -0.871008  z =  0.238779 angstrom
           Maximum rank =  0   Radius =  0.325 angstrom
                   Q00  =   0.087458

H          x =  4.093618  y = -0.846568  z = -1.552791 angstrom
           Maximum rank =  0   Radius =  0.325 angstrom
                   Q00  =   0.093496

C          x = -0.284302  y = -1.131408  z = -2.365121 angstrom
           Maximum rank =  0   Radius =  0.650 angstrom
                   Q00  =  -0.358395

C          x = -2.649302  y = -1.015408  z = -0.884121 angstrom
           Maximum rank =  0   Radius =  0.650 angstrom
                   Q00  =  -0.356900

S          x = -2.011302  y = -1.668408  z = -2.434121 angstrom
           Maximum rank =  0   Radius =  0.650 angstrom
                   Q00  =   0.115507

H          x =  0.127698  y = -1.314408  z = -1.376121 angstrom
           Maximum rank =  0   Radius =  0.325 angstrom
                   Q00  =   0.097281

H          x =  0.303698  y = -1.671408  z = -3.106121 angstrom
           Maximum rank =  0   Radius =  0.325 angstrom
                   Q00  =   0.114913

H          x = -0.226302  y = -0.062408  z = -2.575121 angstrom
           Maximum rank =  0   Radius =  0.325 angstrom
                   Q00  =   0.088468

H          x = -2.053302  y = -1.391408  z = -0.051121 angstrom
           Maximum rank =  0   Radius =  0.325 angstrom
                   Q00  =   0.089704

H          x = -3.666302  y = -1.392408  z = -0.771121 angstrom
           Maximum rank =  0   Radius =  0.325 angstrom
                   Q00  =   0.115159

H          x = -2.665992  y =  0.084042  z = -0.853641 angstrom
           Maximum rank =  0   Radius =  0.325 angstrom
                   Q00  =   0.093954

Total multipoles referred to origin at
           x =   0.000000,  y =    0.000000,  z =    0.000000 angstrom
                   Q00  =  -0.000000

Finished at 23:49:32 on 27 Apr 2020

  DMA results are available in the Python driver through the
	  variable('DMA DISTRIBUTED MULTIPOLES')
  and
	  variable('DMA TOTAL MULTIPOLES')
  commands.

    Psi4 stopped on: Monday, 27 April 2020 11:49PM
    Psi4 wall time for execution: 0:05:47.69

*** Psi4 exiting successfully. Buy a developer a beer!
