                               Psi4 1.3.2 release

  ==> Input File <==

--------------------------------------------------------------------------
import numpy as np
set {scf_type pk
basis cc-pvdz
d_convergence 10
gdma_switch   0
gdma_limit    0
gdma_origin   [ 0.0,  0.0,  0.0 ]
}
molecule test {
    units Angstrom
    0 1
    --
    0 1
    C               -0.806713684271942    -1.391875652628681     1.883628900676835
    C               -1.215713684271942    -0.083875652628681     2.584628900676835
    H               -1.657713684271942    -2.072875652628681     1.843628900676835
    H               -0.482713684271942    -1.206875652628681     0.874628900676835
    H                0.027286315728058    -1.868875652628681     2.392628900676835
    H               -0.357713684271942     0.584124347371319     2.576628900676835
    H               -1.526373684271942    -0.283175652628681     3.620857900676835
    H               -2.030353684271942     0.383594347371319     2.012062900676835
    C                0.263286315728058     0.492124347371319    -1.093371099323165
    C                0.022286315728058     0.829124347371319    -2.568371099323165
    O                1.615286315728058     0.166124347371319    -0.814371099323165
    H               -0.024713684271942     1.351124347371319    -0.484371099323165
    H               -0.391713684271942    -0.341875652628681    -0.870371099323165
    H               -0.960713684271942     1.297124347371319    -2.635371099323165
    H                1.695286315728058    -0.118875652628681     0.102628900676835
    H               -0.001833684271942    -0.084515652628681    -3.180480499323165
    H                0.755936315728058     1.564224347371319    -2.930854299323165

}
e, wfn = energy('scf', return_wfn=True)
gdma(wfn)
dmavals = variable('DMA DISTRIBUTED MULTIPOLES')
charges = np.array(dmavals)
print(charges)
np.save('SSI-008VAL-072SER-1-dimer.npy', np.array(charges))--------------------------------------------------------------------------

*** tstart() called on ds3
*** at Mon Apr 27 11:31:42 2020

   => Loading Basis Set <=

    Name: CC-PVDZ
    Role: ORBITAL
    Keyword: BASIS
    atoms 1-2, 9-10  entry C          line   138 file /theoryfs2/ds/metcalf/miniconda2/envs/tf2gpu/share/psi4/basis/cc-pvdz.gbs
    atoms 3-8, 12-17 entry H          line    22 file /theoryfs2/ds/metcalf/miniconda2/envs/tf2gpu/share/psi4/basis/cc-pvdz.gbs
    atoms 11         entry O          line   198 file /theoryfs2/ds/metcalf/miniconda2/envs/tf2gpu/share/psi4/basis/cc-pvdz.gbs

         ---------------------------------------------------------
                                   SCF
               by Justin Turney, Rob Parrish, Andy Simmonett
                          and Daniel G. A. Smith
                              RHF Reference
                        1 Threads,    500 MiB Core
         ---------------------------------------------------------

  ==> Geometry <==

    Molecular point group: c1
    Full point group: C1

    Geometry (in Angstrom), charge = 0, multiplicity = 1:

       Center              X                  Y                   Z               Mass
    ------------   -----------------  -----------------  -----------------  -----------------
         C           -0.806713684272    -1.391875652629     1.883628900677    12.000000000000
         C           -1.215713684272    -0.083875652629     2.584628900677    12.000000000000
         H           -1.657713684272    -2.072875652629     1.843628900677     1.007825032230
         H           -0.482713684272    -1.206875652629     0.874628900677     1.007825032230
         H            0.027286315728    -1.868875652629     2.392628900677     1.007825032230
         H           -0.357713684272     0.584124347371     2.576628900677     1.007825032230
         H           -1.526373684272    -0.283175652629     3.620857900677     1.007825032230
         H           -2.030353684272     0.383594347371     2.012062900677     1.007825032230
         C            0.263286315728     0.492124347371    -1.093371099323    12.000000000000
         C            0.022286315728     0.829124347371    -2.568371099323    12.000000000000
         O            1.615286315728     0.166124347371    -0.814371099323    15.994914619570
         H           -0.024713684272     1.351124347371    -0.484371099323     1.007825032230
         H           -0.391713684272    -0.341875652629    -0.870371099323     1.007825032230
         H           -0.960713684272     1.297124347371    -2.635371099323     1.007825032230
         H            1.695286315728    -0.118875652629     0.102628900677     1.007825032230
         H           -0.001833684272    -0.084515652629    -3.180480499323     1.007825032230
         H            0.755936315728     1.564224347371    -2.930854299323     1.007825032230

  Running in c1 symmetry.

  Rotational constants: A =      0.23779  B =      0.04524  C =      0.04232 [cm^-1]
  Rotational constants: A =   7128.85254  B =   1356.25506  C =   1268.67610 [MHz]
  Nuclear repulsion =  180.891110750007243

  Charge       = 0
  Multiplicity = 1
  Electrons    = 44
  Nalpha       = 22
  Nbeta        = 22

  ==> Algorithm <==

  SCF Algorithm Type is PK.
  DIIS enabled.
  MOM disabled.
  Fractional occupation disabled.
  Guess Type is SAD.
  Energy threshold   = 1.00e-06
  Density threshold  = 1.00e-10
  Integral threshold = 0.00e+00

  ==> Primary Basis <==

  Basis Set: CC-PVDZ
    Blend: CC-PVDZ
    Number of shells: 66
    Number of basis function: 130
    Number of Cartesian functions: 135
    Spherical Harmonics?: true
    Max angular momentum: 2

  ==> Pre-Iterations <==

   -------------------------------------------------------
    Irrep   Nso     Nmo     Nalpha   Nbeta   Ndocc  Nsocc
   -------------------------------------------------------
     A        130     130       0       0       0       0
   -------------------------------------------------------
    Total     130     130      22      22      22       0
   -------------------------------------------------------

  ==> Integral Setup <==

  Using integral reordering PK algorithm.
  Sizing the integral batches needed.
  Building batch lookup table.
   Calculation information:
      Number of atoms:                  17
      Number of AO shells:              66
      Number of primitives:            170
      Number of atomic orbitals:       135
      Number of basis functions:       130

      Integral cutoff                 1.00e-12
      Number of threads:                 1

	Batch   1 pq = [       0,    8515] index = [             0,36256870] size =     36256870
  Task number: 4
  Buffer size: 11059200
  Buffer per thread: 2
  We computed 2059039 shell quartets total.
  Whereas there are 2445366 unique shell quartets.

  ==> DiskJK: Disk-Based J/K Matrices <==

    J tasked:                  Yes
    K tasked:                  Yes
    wK tasked:                  No
    Memory [MiB]:              375
    Schwarz Cutoff:          1E-12

    OpenMP threads:              1

  Minimum eigenvalue in the overlap matrix is 5.2204423562E-03.
  Using Symmetric Orthogonalization.

  SCF Guess: Superposition of Atomic Densities via on-the-fly atomic UHF.

  ==> Iterations <==

                        Total Energy        Delta E     RMS |[F,P]|

   @RHF iter SAD:  -232.08306899706693   -2.32083e+02   0.00000e+00
   @RHF iter   1:  -233.13991976016371   -1.05685e+00   4.21045e-03 DIIS
   @RHF iter   2:  -233.28828863839436   -1.48369e-01   1.97062e-03 DIIS
   @RHF iter   3:  -233.31730733842829   -2.90187e-02   3.82409e-04 DIIS
   @RHF iter   4:  -233.31939361189251   -2.08627e-03   1.23755e-04 DIIS
   @RHF iter   5:  -233.31953426876314   -1.40657e-04   2.33570e-05 DIIS
   @RHF iter   6:  -233.31954223494338   -7.96618e-06   3.86562e-06 DIIS
   @RHF iter   7:  -233.31954252967273   -2.94729e-07   9.59706e-07 DIIS
   @RHF iter   8:  -233.31954254564599   -1.59733e-08   3.18728e-07 DIIS
   @RHF iter   9:  -233.31954254746640   -1.82041e-09   8.17180e-08 DIIS
   @RHF iter  10:  -233.31954254762866   -1.62260e-10   1.47848e-08 DIIS
   @RHF iter  11:  -233.31954254763428   -5.62750e-12   3.71465e-09 DIIS
   @RHF iter  12:  -233.31954254763474   -4.54747e-13   1.30625e-09 DIIS
   @RHF iter  13:  -233.31954254763414    5.96856e-13   3.70141e-10 DIIS
   @RHF iter  14:  -233.31954254763420   -5.68434e-14   1.03511e-10 DIIS
   @RHF iter  15:  -233.31954254763434   -1.42109e-13   4.23420e-11 DIIS
  Energy and wave function converged.

  ==> Post-Iterations <==

    Orbital Energies [Eh]
    ---------------------

    Doubly Occupied:

       1A    -20.547423     2A    -11.274273     3A    -11.227971
       4A    -11.222649     5A    -11.222276     6A     -1.349628
       7A     -1.024840     8A     -1.008964     9A     -0.847754
      10A     -0.831382    11A     -0.691634    12A     -0.645004
      13A     -0.606660    14A     -0.604078    15A     -0.565013
      16A     -0.532174    17A     -0.526649    18A     -0.507037
      19A     -0.496251    20A     -0.495033    21A     -0.470085
      22A     -0.434065

    Virtual:

      23A      0.157130    24A      0.198805    25A      0.211294
      26A      0.218771    27A      0.243208    28A      0.257883
      29A      0.262300    30A      0.269791    31A      0.274504
      32A      0.289513    33A      0.307753    34A      0.361443
      35A      0.382390    36A      0.391430    37A      0.415502
      38A      0.569955    39A      0.596832    40A      0.601873
      41A      0.610662    42A      0.647786    43A      0.680053
      44A      0.689885    45A      0.729556    46A      0.754067
      47A      0.773537    48A      0.799794    49A      0.846769
      50A      0.861573    51A      0.879268    52A      0.886073
      53A      0.889996    54A      0.892784    55A      0.899355
      56A      0.910170    57A      0.913066    58A      0.938901
      59A      0.946700    60A      0.978414    61A      0.998960
      62A      1.113706    63A      1.122251    64A      1.126629
      65A      1.150320    66A      1.186354    67A      1.262606
      68A      1.308007    69A      1.337688    70A      1.446786
      71A      1.459253    72A      1.473637    73A      1.500038
      74A      1.532096    75A      1.550954    76A      1.573314
      77A      1.624686    78A      1.671428    79A      1.680390
      80A      1.697839    81A      1.768407    82A      1.850431
      83A      1.864738    84A      1.868698    85A      1.875847
      86A      1.886289    87A      1.898307    88A      1.912985
      89A      1.931745    90A      1.935562    91A      1.943969
      92A      1.948835    93A      1.962606    94A      1.984104
      95A      2.008652    96A      2.025874    97A      2.044926
      98A      2.089945    99A      2.113008   100A      2.118197
     101A      2.203546   102A      2.252368   103A      2.271904
     104A      2.283970   105A      2.327284   106A      2.353209
     107A      2.446791   108A      2.465937   109A      2.480184
     110A      2.490110   111A      2.547729   112A      2.558772
     113A      2.574229   114A      2.584907   115A      2.760326
     116A      2.761329   117A      2.780069   118A      2.787371
     119A      2.801649   120A      2.844605   121A      2.859027
     122A      2.890284   123A      2.912307   124A      2.944412
     125A      2.985931   126A      3.328992   127A      3.428916
     128A      3.456584   129A      3.625050   130A      4.122954

    Final Occupation by Irrep:
              A
    DOCC [    22 ]

  @RHF Final Energy:  -233.31954254763434

   => Energetics <=

    Nuclear Repulsion Energy =            180.8911107500072433
    One-Electron Energy =                -674.1596237012505526
    Two-Electron Energy =                 259.9489704036089961
    Total Energy =                       -233.3195425476343416

Computation Completed

Properties will be evaluated at   0.000000,   0.000000,   0.000000 [a0]

Properties computed using the SCF density matrix

  Nuclear Dipole Moment: [e a0]
     X:    -4.6377      Y:    -0.7463      Z:     3.1100

  Electronic Dipole Moment: [e a0]
     X:     4.1080      Y:     0.6958      Z:    -2.6764

  Dipole Moment: [e a0]
     X:    -0.5297      Y:    -0.0505      Z:     0.4336     Total:     0.6864

  Dipole Moment: [D]
     X:    -1.3464      Y:    -0.1283      Z:     1.1020     Total:     1.7447

*** tstop() called on ds3 at Mon Apr 27 11:32:43 2020
Module time:
	user time   =      11.48 seconds =       0.19 minutes
	system time =       4.63 seconds =       0.08 minutes
	total time  =         61 seconds =       1.02 minutes
Total time:
	user time   =      11.48 seconds =       0.19 minutes
	system time =       4.63 seconds =       0.08 minutes
	total time  =         61 seconds =       1.02 minutes
                                     G D M A

                                 by Anthony Stone

                           version 2.2.06, 22 June 2011

               Distributed Multipoles from Gaussian wavefunctions

Starting at 11:32:43 on 27 Apr 2020

Using SCF density matrix from file ./SSI/SSI-008VAL-072SER-1-dimer.test.2994.fchk

                         Distributed Multipole Analysis

Standard DMA

Positions and radii in angstrom
Multipole moments in atomic units, ea_0^k for rank k

C          x = -0.806714  y = -1.391876  z =  1.883629 angstrom
           Maximum rank =  0   Radius =  0.650 angstrom
                   Q00  =  -0.244127

C          x = -1.215714  y = -0.083876  z =  2.584629 angstrom
           Maximum rank =  0   Radius =  0.650 angstrom
                   Q00  =  -0.233896

H          x = -1.657714  y = -2.072876  z =  1.843629 angstrom
           Maximum rank =  0   Radius =  0.325 angstrom
                   Q00  =   0.083733

H          x = -0.482714  y = -1.206876  z =  0.874629 angstrom
           Maximum rank =  0   Radius =  0.325 angstrom
                   Q00  =   0.057903

H          x =  0.027286  y = -1.868876  z =  2.392629 angstrom
           Maximum rank =  0   Radius =  0.325 angstrom
                   Q00  =   0.078686

H          x = -0.357714  y =  0.584124  z =  2.576629 angstrom
           Maximum rank =  0   Radius =  0.325 angstrom
                   Q00  =   0.075192

H          x = -1.526374  y = -0.283176  z =  3.620858 angstrom
           Maximum rank =  0   Radius =  0.325 angstrom
                   Q00  =   0.087838

H          x = -2.030354  y =  0.383594  z =  2.012063 angstrom
           Maximum rank =  0   Radius =  0.325 angstrom
                   Q00  =   0.080418

C          x =  0.263286  y =  0.492124  z = -1.093371 angstrom
           Maximum rank =  0   Radius =  0.650 angstrom
                   Q00  =   0.160344

C          x =  0.022286  y =  0.829124  z = -2.568371 angstrom
           Maximum rank =  0   Radius =  0.650 angstrom
                   Q00  =  -0.241226

O          x =  1.615286  y =  0.166124  z = -0.814371 angstrom
           Maximum rank =  0   Radius =  0.650 angstrom
                   Q00  =  -0.612931

H          x = -0.024714  y =  1.351124  z = -0.484371 angstrom
           Maximum rank =  0   Radius =  0.325 angstrom
                   Q00  =   0.036566

H          x = -0.391714  y = -0.341876  z = -0.870371 angstrom
           Maximum rank =  0   Radius =  0.325 angstrom
                   Q00  =   0.013176

H          x = -0.960714  y =  1.297124  z = -2.635371 angstrom
           Maximum rank =  0   Radius =  0.325 angstrom
                   Q00  =   0.082536

H          x =  1.695286  y = -0.118876  z =  0.102629 angstrom
           Maximum rank =  0   Radius =  0.325 angstrom
                   Q00  =   0.392316

H          x = -0.001834  y = -0.084516  z = -3.180481 angstrom
           Maximum rank =  0   Radius =  0.325 angstrom
                   Q00  =   0.087622

H          x =  0.755936  y =  1.564224  z = -2.930854 angstrom
           Maximum rank =  0   Radius =  0.325 angstrom
                   Q00  =   0.095849

Total multipoles referred to origin at
           x =   0.000000,  y =    0.000000,  z =    0.000000 angstrom
                   Q00  =  -0.000000

Finished at 11:32:43 on 27 Apr 2020

  DMA results are available in the Python driver through the
	  variable('DMA DISTRIBUTED MULTIPOLES')
  and
	  variable('DMA TOTAL MULTIPOLES')
  commands.

    Psi4 stopped on: Monday, 27 April 2020 11:32AM
    Psi4 wall time for execution: 0:01:00.98

*** Psi4 exiting successfully. Buy a developer a beer!
