                               Psi4 1.3.2 release

  ==> Input File <==

--------------------------------------------------------------------------
import numpy as np
set {scf_type pk
basis cc-pvdz
d_convergence 10
gdma_switch   0
gdma_limit    0
gdma_origin   [ 0.0,  0.0,  0.0 ]
}
molecule test {
    units Angstrom
    -1 1
    --
    -1 1
    C               -2.150817850001131    -0.426713339485678    -1.296260988838493
    C                0.263182149998868     0.144286660514322    -0.801260988838493
    C               -0.670817850001132    -0.444713339485678    -1.645260988838493
    C                1.647182149998868     0.089286660514322    -1.078260988838493
    C                2.102182149998868    -0.556713339485678    -2.219260988838493
    C               -0.206817850001132    -1.085713339485678    -2.799260988838493
    C                1.183182149998868    -1.134713339485678    -3.088260988838493
    H               -0.095817850001132     0.649286660514322     0.080739011161507
    H                2.365182149998868     0.548286660514322    -0.408260988838493
    H               -2.703817850001132    -0.579713339485678    -2.225260988838493
    H               -2.378817850001131     0.568286660514322    -0.913260988838493
    H                3.162182149998868    -0.606713339485678    -2.429260988838493
    H               -0.920817850001132    -1.545713339485679    -3.471260988838493
    H                1.545182149998868    -1.623713339485678    -3.985260988838493
    H               -2.451607850001132    -1.161973339485678    -0.535400988838493
    C               -0.510817850001132    -0.247713339485678     3.851739011161507
    C               -0.415817850001132     0.821286660514322     2.797739011161507
    O                0.688182149998868     1.390286660514322     2.703739011161507
    O               -1.425817850001132     1.076286660514322     2.104739011161507
    H                0.369182149998868    -0.885713339485678     3.790739011161507
    H               -1.403817850001132    -0.847713339485678     3.669739011161507
    H               -0.552297850001132     0.171386660514322     4.867939011161506

}
e, wfn = energy('scf', return_wfn=True)
gdma(wfn)
dmavals = variable('DMA DISTRIBUTED MULTIPOLES')
charges = np.array(dmavals)
print(charges)
np.save('SSI-077PHE-205GLU-1-dimer.npy', np.array(charges))--------------------------------------------------------------------------

*** tstart() called on ds3
*** at Mon Apr 27 07:10:44 2020

   => Loading Basis Set <=

    Name: CC-PVDZ
    Role: ORBITAL
    Keyword: BASIS
    atoms 1-7, 16-17  entry C          line   138 file /theoryfs2/ds/metcalf/miniconda2/envs/tf2gpu/share/psi4/basis/cc-pvdz.gbs
    atoms 8-15, 20-22 entry H          line    22 file /theoryfs2/ds/metcalf/miniconda2/envs/tf2gpu/share/psi4/basis/cc-pvdz.gbs
    atoms 18-19       entry O          line   198 file /theoryfs2/ds/metcalf/miniconda2/envs/tf2gpu/share/psi4/basis/cc-pvdz.gbs

         ---------------------------------------------------------
                                   SCF
               by Justin Turney, Rob Parrish, Andy Simmonett
                          and Daniel G. A. Smith
                              RHF Reference
                        1 Threads,    500 MiB Core
         ---------------------------------------------------------

  ==> Geometry <==

    Molecular point group: c1
    Full point group: C1

    Geometry (in Angstrom), charge = -1, multiplicity = 1:

       Center              X                  Y                   Z               Mass
    ------------   -----------------  -----------------  -----------------  -----------------
         C           -2.150817850001    -0.426713339486    -1.296260988838    12.000000000000
         C            0.263182149999     0.144286660514    -0.801260988838    12.000000000000
         C           -0.670817850001    -0.444713339486    -1.645260988838    12.000000000000
         C            1.647182149999     0.089286660514    -1.078260988838    12.000000000000
         C            2.102182149999    -0.556713339486    -2.219260988838    12.000000000000
         C           -0.206817850001    -1.085713339486    -2.799260988838    12.000000000000
         C            1.183182149999    -1.134713339486    -3.088260988838    12.000000000000
         H           -0.095817850001     0.649286660514     0.080739011162     1.007825032230
         H            2.365182149999     0.548286660514    -0.408260988838     1.007825032230
         H           -2.703817850001    -0.579713339486    -2.225260988838     1.007825032230
         H           -2.378817850001     0.568286660514    -0.913260988838     1.007825032230
         H            3.162182149999    -0.606713339486    -2.429260988838     1.007825032230
         H           -0.920817850001    -1.545713339486    -3.471260988838     1.007825032230
         H            1.545182149999    -1.623713339486    -3.985260988838     1.007825032230
         H           -2.451607850001    -1.161973339486    -0.535400988838     1.007825032230
         C           -0.510817850001    -0.247713339486     3.851739011162    12.000000000000
         C           -0.415817850001     0.821286660514     2.797739011162    12.000000000000
         O            0.688182149999     1.390286660514     2.703739011162    15.994914619570
         O           -1.425817850001     1.076286660514     2.104739011162    15.994914619570
         H            0.369182149999    -0.885713339486     3.790739011162     1.007825032230
         H           -1.403817850001    -0.847713339486     3.669739011162     1.007825032230
         H           -0.552297850001     0.171386660514     4.867939011162     1.007825032230

  Running in c1 symmetry.

  Rotational constants: A =      0.06230  B =      0.01646  C =      0.01397 [cm^-1]
  Rotational constants: A =   1867.60985  B =    493.53629  C =    418.79782 [MHz]
  Nuclear repulsion =  543.894010484180285

  Charge       = -1
  Multiplicity = 1
  Electrons    = 82
  Nalpha       = 41
  Nbeta        = 41

  ==> Algorithm <==

  SCF Algorithm Type is PK.
  DIIS enabled.
  MOM disabled.
  Fractional occupation disabled.
  Guess Type is SAD.
  Energy threshold   = 1.00e-06
  Density threshold  = 1.00e-10
  Integral threshold = 0.00e+00

  ==> Primary Basis <==

  Basis Set: CC-PVDZ
    Blend: CC-PVDZ
    Number of shells: 99
    Number of basis function: 209
    Number of Cartesian functions: 220
    Spherical Harmonics?: true
    Max angular momentum: 2

  ==> Pre-Iterations <==

   -------------------------------------------------------
    Irrep   Nso     Nmo     Nalpha   Nbeta   Ndocc  Nsocc
   -------------------------------------------------------
     A        209     209       0       0       0       0
   -------------------------------------------------------
    Total     209     209      41      41      41       0
   -------------------------------------------------------

  ==> Integral Setup <==

  Using integral reordering PK algorithm.
  Sizing the integral batches needed.
  Building batch lookup table.
   Calculation information:
      Number of atoms:                  22
      Number of AO shells:              99
      Number of primitives:            297
      Number of atomic orbitals:       220
      Number of basis functions:       209

      Integral cutoff                 1.00e-12
      Number of threads:                 1

	Batch   1 pq = [       0,    9405] index = [             0,44231715] size =     44231715
	Batch   2 pq = [    9405,   13301] index = [      44231715,88464951] size =     44233236
	Batch   3 pq = [   13301,   16290] index = [      88464951,132690195] size =     44225244
	Batch   4 pq = [   16290,   18810] index = [     132690195,176917455] size =     44227260
	Batch   5 pq = [   18810,   21030] index = [     176917455,221140965] size =     44223510
	Batch   6 pq = [   21030,   21945] index = [     221140965,240802485] size =     19661520
  Task number: 22
  Buffer size: 11059200
  Buffer per thread: 2
  We computed 10378857 shell quartets total.
  Whereas there are 12253725 unique shell quartets.

  ==> DiskJK: Disk-Based J/K Matrices <==

    J tasked:                  Yes
    K tasked:                  Yes
    wK tasked:                  No
    Memory [MiB]:              375
    Schwarz Cutoff:          1E-12

    OpenMP threads:              1

  Minimum eigenvalue in the overlap matrix is 3.0622382601E-04.
  Using Symmetric Orthogonalization.

  SCF Guess: Superposition of Atomic Densities via on-the-fly atomic UHF.

  ==> Iterations <==

                        Total Energy        Delta E     RMS |[F,P]|

   @RHF iter SAD:  -495.30851023098057   -4.95309e+02   0.00000e+00
   @RHF iter   1:  -496.68553790696592   -1.37703e+00   3.70461e-03 DIIS
   @RHF iter   2:  -496.94336097360821   -2.57823e-01   1.97618e-03 DIIS
   @RHF iter   3:  -497.00833526210840   -6.49743e-02   3.35946e-04 DIIS
   @RHF iter   4:  -497.01169852740850   -3.36327e-03   1.21939e-04 DIIS
   @RHF iter   5:  -497.01212423520917   -4.25708e-04   1.81654e-05 DIIS
   @RHF iter   6:  -497.01213812743305   -1.38922e-05   5.86984e-06 DIIS
   @RHF iter   7:  -497.01213956790230   -1.44047e-06   2.32909e-06 DIIS
   @RHF iter   8:  -497.01213990282577   -3.34923e-07   1.12088e-06 DIIS
   @RHF iter   9:  -497.01214002269347   -1.19868e-07   6.02336e-07 DIIS
   @RHF iter  10:  -497.01214006374710   -4.10536e-08   2.13174e-07 DIIS
   @RHF iter  11:  -497.01214006970713   -5.96003e-09   6.04920e-08 DIIS
   @RHF iter  12:  -497.01214006995201   -2.44881e-10   3.40678e-08 DIIS
   @RHF iter  13:  -497.01214006999578   -4.37694e-11   8.67279e-09 DIIS
   @RHF iter  14:  -497.01214006999828   -2.50111e-12   3.48262e-09 DIIS
   @RHF iter  15:  -497.01214007000374   -5.45697e-12   1.32398e-09 DIIS
   @RHF iter  16:  -497.01214007000033    3.41061e-12   5.70259e-10 DIIS
   @RHF iter  17:  -497.01214006999868    1.64846e-12   1.88133e-10 DIIS
   @RHF iter  18:  -497.01214007000067   -1.98952e-12   6.92636e-11 DIIS
  Energy and wave function converged.

  ==> Post-Iterations <==

    Orbital Energies [Eh]
    ---------------------

    Doubly Occupied:

       1A    -20.272234     2A    -20.266218     3A    -11.132553
       4A    -11.128156     5A    -11.125331     6A    -11.124541
       7A    -11.121836     8A    -11.119451     9A    -11.113939
      10A    -11.103318    11A    -11.050614    12A     -1.159640
      13A     -1.049696    14A     -1.034301    15A     -0.930746
      16A     -0.888658    17A     -0.816036    18A     -0.801728
      19A     -0.712974    20A     -0.676080    21A     -0.576679
      22A     -0.516377    23A     -0.513569    24A     -0.507894
      25A     -0.462234    26A     -0.458706    27A     -0.448501
      28A     -0.420783    29A     -0.417206    30A     -0.415626
      31A     -0.410109    32A     -0.374154    33A     -0.368644
      34A     -0.363113    35A     -0.349424    36A     -0.309485
      37A     -0.216190    38A     -0.209706    39A     -0.190267
      40A     -0.183126    41A     -0.172638

    Virtual:

      42A      0.245259    43A      0.253834    44A      0.285891
      45A      0.308852    46A      0.329553    47A      0.347080
      48A      0.355646    49A      0.369674    50A      0.386433
      51A      0.392851    52A      0.395883    53A      0.420966
      54A      0.470420    55A      0.478028    56A      0.483438
      57A      0.501393    58A      0.558702    59A      0.572562
      60A      0.577367    61A      0.599599    62A      0.603647
      63A      0.672266    64A      0.706529    65A      0.731972
      66A      0.738231    67A      0.748958    68A      0.786623
      69A      0.800171    70A      0.802471    71A      0.825285
      72A      0.828678    73A      0.843532    74A      0.846932
      75A      0.850417    76A      0.857091    77A      0.866944
      78A      0.875708    79A      0.885306    80A      0.898454
      81A      0.932589    82A      0.958856    83A      0.971654
      84A      0.974105    85A      0.977421    86A      0.988444
      87A      0.997958    88A      1.008680    89A      1.022421
      90A      1.030706    91A      1.033813    92A      1.043979
      93A      1.048351    94A      1.057321    95A      1.079296
      96A      1.088734    97A      1.114724    98A      1.144640
      99A      1.164979   100A      1.172937   101A      1.220008
     102A      1.233009   103A      1.252085   104A      1.264826
     105A      1.266575   106A      1.298295   107A      1.326205
     108A      1.343653   109A      1.348347   110A      1.361827
     111A      1.365195   112A      1.385875   113A      1.397732
     114A      1.412004   115A      1.418495   116A      1.437416
     117A      1.451615   118A      1.524674   119A      1.531187
     120A      1.553842   121A      1.589687   122A      1.598385
     123A      1.637130   124A      1.644893   125A      1.677097
     126A      1.683051   127A      1.694591   128A      1.738916
     129A      1.764717   130A      1.790467   131A      1.816179
     132A      1.837653   133A      1.838337   134A      1.854903
     135A      1.865283   136A      1.868561   137A      1.908872
     138A      1.911680   139A      1.969268   140A      1.991927
     141A      2.005881   142A      2.019176   143A      2.026181
     144A      2.033993   145A      2.041759   146A      2.055731
     147A      2.060120   148A      2.068091   149A      2.082442
     150A      2.094384   151A      2.113874   152A      2.115296
     153A      2.140865   154A      2.157128   155A      2.159338
     156A      2.184421   157A      2.208548   158A      2.219987
     159A      2.242819   160A      2.252433   161A      2.273097
     162A      2.285747   163A      2.293815   164A      2.298403
     165A      2.360023   166A      2.372720   167A      2.382649
     168A      2.398160   169A      2.412152   170A      2.422580
     171A      2.435638   172A      2.436076   173A      2.475981
     174A      2.571025   175A      2.575101   176A      2.608150
     177A      2.628759   178A      2.644830   179A      2.677637
     180A      2.732627   181A      2.741405   182A      2.749526
     183A      2.840896   184A      2.856282   185A      2.884138
     186A      2.890390   187A      2.912514   188A      2.953970
     189A      2.957411   190A      2.967968   191A      2.985216
     192A      2.994698   193A      3.074884   194A      3.097337
     195A      3.141235   196A      3.233194   197A      3.247560
     198A      3.261284   199A      3.287600   200A      3.310556
     201A      3.355293   202A      3.407423   203A      3.615776
     204A      3.804350   205A      3.850180   206A      4.044803
     207A      4.059431   208A      4.086689   209A      4.190432

    Final Occupation by Irrep:
              A
    DOCC [    41 ]

  @RHF Final Energy:  -497.01214007000067

   => Energetics <=

    Nuclear Repulsion Energy =            543.8940104841802849
    One-Electron Energy =               -1768.7873362297659696
    Two-Electron Energy =                 727.8811856755849021
    Total Energy =                       -497.0121400700006689

Computation Completed

Properties will be evaluated at   0.000000,   0.000000,   0.000000 [a0]

Properties computed using the SCF density matrix

  Nuclear Dipole Moment: [e a0]
     X:    -2.8771      Y:    -4.9699      Z:    -1.4382

  Electronic Dipole Moment: [e a0]
     X:     3.2567      Y:     2.9542      Z:    -1.8986

  Dipole Moment: [e a0]
     X:     0.3795      Y:    -2.0156      Z:    -3.3368     Total:     3.9168

  Dipole Moment: [D]
     X:     0.9646      Y:    -5.1232      Z:    -8.4814     Total:     9.9555

*** tstop() called on ds3 at Mon Apr 27 07:12:48 2020
Module time:
	user time   =      88.34 seconds =       1.47 minutes
	system time =      40.03 seconds =       0.67 minutes
	total time  =        124 seconds =       2.07 minutes
Total time:
	user time   =      88.34 seconds =       1.47 minutes
	system time =      40.03 seconds =       0.67 minutes
	total time  =        124 seconds =       2.07 minutes
                                     G D M A

                                 by Anthony Stone

                           version 2.2.06, 22 June 2011

               Distributed Multipoles from Gaussian wavefunctions

Starting at 7:12:49 on 27 Apr 2020

Using SCF density matrix from file ./SSI/SSI-077PHE-205GLU-1-dimer.test.24132.fchk

                         Distributed Multipole Analysis

Standard DMA

Positions and radii in angstrom
Multipole moments in atomic units, ea_0^k for rank k

C          x = -2.150818  y = -0.426713  z = -1.296261 angstrom
           Maximum rank =  0   Radius =  0.650 angstrom
                   Q00  =  -0.191714

C          x =  0.263182  y =  0.144287  z = -0.801261 angstrom
           Maximum rank =  0   Radius =  0.650 angstrom
                   Q00  =   0.068172

C          x = -0.670818  y = -0.444713  z = -1.645261 angstrom
           Maximum rank =  0   Radius =  0.650 angstrom
                   Q00  =  -0.131983

C          x =  1.647182  y =  0.089287  z = -1.078261 angstrom
           Maximum rank =  0   Radius =  0.650 angstrom
                   Q00  =  -0.051115

C          x =  2.102182  y = -0.556713  z = -2.219261 angstrom
           Maximum rank =  0   Radius =  0.650 angstrom
                   Q00  =  -0.099444

C          x = -0.206818  y = -1.085713  z = -2.799261 angstrom
           Maximum rank =  0   Radius =  0.650 angstrom
                   Q00  =  -0.100539

C          x =  1.183182  y = -1.134713  z = -3.088261 angstrom
           Maximum rank =  0   Radius =  0.650 angstrom
                   Q00  =  -0.081723

H          x = -0.095818  y =  0.649287  z =  0.080739 angstrom
           Maximum rank =  0   Radius =  0.325 angstrom
                   Q00  =   0.095731

H          x =  2.365182  y =  0.548287  z = -0.408261 angstrom
           Maximum rank =  0   Radius =  0.325 angstrom
                   Q00  =   0.066444

H          x = -2.703818  y = -0.579713  z = -2.225261 angstrom
           Maximum rank =  0   Radius =  0.325 angstrom
                   Q00  =   0.057029

H          x = -2.378818  y =  0.568287  z = -0.913261 angstrom
           Maximum rank =  0   Radius =  0.325 angstrom
                   Q00  =   0.132279

H          x =  3.162182  y = -0.606713  z = -2.429261 angstrom
           Maximum rank =  0   Radius =  0.325 angstrom
                   Q00  =   0.035938

H          x = -0.920818  y = -1.545713  z = -3.471261 angstrom
           Maximum rank =  0   Radius =  0.325 angstrom
                   Q00  =   0.035125

H          x =  1.545182  y = -1.623713  z = -3.985261 angstrom
           Maximum rank =  0   Radius =  0.325 angstrom
                   Q00  =   0.035662

H          x = -2.451608  y = -1.161973  z = -0.535401 angstrom
           Maximum rank =  0   Radius =  0.325 angstrom
                   Q00  =   0.114352

C          x = -0.510818  y = -0.247713  z =  3.851739 angstrom
           Maximum rank =  0   Radius =  0.650 angstrom
                   Q00  =  -0.272321

C          x = -0.415818  y =  0.821287  z =  2.797739 angstrom
           Maximum rank =  0   Radius =  0.650 angstrom
                   Q00  =   0.964043

O          x =  0.688182  y =  1.390287  z =  2.703739 angstrom
           Maximum rank =  0   Radius =  0.650 angstrom
                   Q00  =  -0.924237

O          x = -1.425818  y =  1.076287  z =  2.104739 angstrom
           Maximum rank =  0   Radius =  0.650 angstrom
                   Q00  =  -0.932555

H          x =  0.369182  y = -0.885713  z =  3.790739 angstrom
           Maximum rank =  0   Radius =  0.325 angstrom
                   Q00  =   0.060930

H          x = -1.403818  y = -0.847713  z =  3.669739 angstrom
           Maximum rank =  0   Radius =  0.325 angstrom
                   Q00  =   0.043312

H          x = -0.552298  y =  0.171387  z =  4.867939 angstrom
           Maximum rank =  0   Radius =  0.325 angstrom
                   Q00  =   0.076613

Total multipoles referred to origin at
           x =   0.000000,  y =    0.000000,  z =    0.000000 angstrom
                   Q00  =  -1.000000

Finished at 7:12:49 on 27 Apr 2020

  DMA results are available in the Python driver through the
	  variable('DMA DISTRIBUTED MULTIPOLES')
  and
	  variable('DMA TOTAL MULTIPOLES')
  commands.

    Psi4 stopped on: Monday, 27 April 2020 07:12AM
    Psi4 wall time for execution: 0:02:04.16

*** Psi4 exiting successfully. Buy a developer a beer!
