                               Psi4 1.3.2 release

  ==> Input File <==

--------------------------------------------------------------------------
import numpy as np
set {scf_type pk
basis cc-pvdz
d_convergence 10
gdma_switch   0
gdma_limit    0
gdma_origin   [ 0.0,  0.0,  0.0 ]
}
molecule test {
    units Angstrom
    0 1
    --
    0 1
    C                1.543500986236252     2.051193463371574     0.097523243477752
    C                0.911500986236252     3.386193463371574     0.517523243477752
    C                2.953500986236252     2.091193463371574    -0.494476756522248
    H                1.595500986236252     1.403193463371574     0.975523243477752
    H                0.881500986236252     1.579193463371575    -0.631476756522248
    H                0.726500986236252     3.960193463371575    -0.390476756522248
    H                3.634500986236252     2.474193463371574     0.262523243477752
    H                1.581250986236252     3.939173463371574     1.192543243477752
    H               -0.063319013763748     3.214463463371575     0.997353243477752
    H                3.290110986236252     1.078483463371574    -0.761166756522248
    H                2.997610986236253     2.756433463371574    -1.369406756522248
    C               -0.027499013763748    -1.316806536628425     0.058523243477752
    C                0.466500986236252    -2.760806536628426     0.191523243477752
    C               -1.531499013763748    -1.240806536628426    -0.098476756522248
    O               -2.167499013763748    -2.197806536628426    -0.532476756522248
    N               -2.113499013763748    -0.105806536628426     0.245523243477752
    H                0.290500986236252    -0.731806536628426     0.922523243477752
    H                0.413500986236252    -0.861806536628426    -0.829476756522248
    H               -0.005499013763748    -3.359806536628426    -0.590476756522248
    H               -3.115499013763748    -0.044806536628426     0.174523243477752
    H               -1.572499013763748     0.635193463371574     0.680523243477752
    H                0.174440986236252    -3.174376536628426     1.168083243477752
    H                1.546930986236252    -2.833026536628426    -0.002026756522248

}
e, wfn = energy('scf', return_wfn=True)
gdma(wfn)
dmavals = variable('DMA DISTRIBUTED MULTIPOLES')
charges = np.array(dmavals)
print(charges)
np.save('SSI-085LEU-137ASN-1-dimer.npy', np.array(charges))--------------------------------------------------------------------------

*** tstart() called on ds3
*** at Tue Apr 28 00:10:17 2020

   => Loading Basis Set <=

    Name: CC-PVDZ
    Role: ORBITAL
    Keyword: BASIS
    atoms 1-3, 12-14  entry C          line   138 file /theoryfs2/ds/metcalf/miniconda2/envs/tf2gpu/share/psi4/basis/cc-pvdz.gbs
    atoms 4-11, 17-23 entry H          line    22 file /theoryfs2/ds/metcalf/miniconda2/envs/tf2gpu/share/psi4/basis/cc-pvdz.gbs
    atoms 15          entry O          line   198 file /theoryfs2/ds/metcalf/miniconda2/envs/tf2gpu/share/psi4/basis/cc-pvdz.gbs
    atoms 16          entry N          line   168 file /theoryfs2/ds/metcalf/miniconda2/envs/tf2gpu/share/psi4/basis/cc-pvdz.gbs

         ---------------------------------------------------------
                                   SCF
               by Justin Turney, Rob Parrish, Andy Simmonett
                          and Daniel G. A. Smith
                              RHF Reference
                        1 Threads,    500 MiB Core
         ---------------------------------------------------------

  ==> Geometry <==

    Molecular point group: c1
    Full point group: C1

    Geometry (in Angstrom), charge = 0, multiplicity = 1:

       Center              X                  Y                   Z               Mass
    ------------   -----------------  -----------------  -----------------  -----------------
         C            1.543500986236     2.051193463372     0.097523243478    12.000000000000
         C            0.911500986236     3.386193463372     0.517523243478    12.000000000000
         C            2.953500986236     2.091193463372    -0.494476756522    12.000000000000
         H            1.595500986236     1.403193463372     0.975523243478     1.007825032230
         H            0.881500986236     1.579193463372    -0.631476756522     1.007825032230
         H            0.726500986236     3.960193463372    -0.390476756522     1.007825032230
         H            3.634500986236     2.474193463372     0.262523243478     1.007825032230
         H            1.581250986236     3.939173463372     1.192543243478     1.007825032230
         H           -0.063319013764     3.214463463372     0.997353243478     1.007825032230
         H            3.290110986236     1.078483463372    -0.761166756522     1.007825032230
         H            2.997610986236     2.756433463372    -1.369406756522     1.007825032230
         C           -0.027499013764    -1.316806536628     0.058523243478    12.000000000000
         C            0.466500986236    -2.760806536628     0.191523243478    12.000000000000
         C           -1.531499013764    -1.240806536628    -0.098476756522    12.000000000000
         O           -2.167499013764    -2.197806536628    -0.532476756522    15.994914619570
         N           -2.113499013764    -0.105806536628     0.245523243478    14.003074004430
         H            0.290500986236    -0.731806536628     0.922523243478     1.007825032230
         H            0.413500986236    -0.861806536628    -0.829476756522     1.007825032230
         H           -0.005499013764    -3.359806536628    -0.590476756522     1.007825032230
         H           -3.115499013764    -0.044806536628     0.174523243478     1.007825032230
         H           -1.572499013764     0.635193463372     0.680523243478     1.007825032230
         H            0.174440986236    -3.174376536628     1.168083243478     1.007825032230
         H            1.546930986236    -2.833026536628    -0.002026756522     1.007825032230

  Running in c1 symmetry.

  Rotational constants: A =      0.08505  B =      0.02240  C =      0.01853 [cm^-1]
  Rotational constants: A =   2549.76797  B =    671.58447  C =    555.48212 [MHz]
  Nuclear repulsion =  370.280701123746212

  Charge       = 0
  Multiplicity = 1
  Electrons    = 66
  Nalpha       = 33
  Nbeta        = 33

  ==> Algorithm <==

  SCF Algorithm Type is PK.
  DIIS enabled.
  MOM disabled.
  Fractional occupation disabled.
  Guess Type is SAD.
  Energy threshold   = 1.00e-06
  Density threshold  = 1.00e-10
  Integral threshold = 0.00e+00

  ==> Primary Basis <==

  Basis Set: CC-PVDZ
    Blend: CC-PVDZ
    Number of shells: 93
    Number of basis function: 187
    Number of Cartesian functions: 195
    Spherical Harmonics?: true
    Max angular momentum: 2

  ==> Pre-Iterations <==

   -------------------------------------------------------
    Irrep   Nso     Nmo     Nalpha   Nbeta   Ndocc  Nsocc
   -------------------------------------------------------
     A        187     187       0       0       0       0
   -------------------------------------------------------
    Total     187     187      33      33      33       0
   -------------------------------------------------------

  ==> Integral Setup <==

  Using integral reordering PK algorithm.
  Sizing the integral batches needed.
  Building batch lookup table.
   Calculation information:
      Number of atoms:                  23
      Number of AO shells:              93
      Number of primitives:            251
      Number of atomic orbitals:       195
      Number of basis functions:       187

      Integral cutoff                 1.00e-12
      Number of threads:                 1

	Batch   1 pq = [       0,    9405] index = [             0,44231715] size =     44231715
	Batch   2 pq = [    9405,   13301] index = [      44231715,88464951] size =     44233236
	Batch   3 pq = [   13301,   16290] index = [      88464951,132690195] size =     44225244
	Batch   4 pq = [   16290,   17578] index = [     132690195,154501831] size =     21811636
  Task number: 14
  Buffer size: 11059200
  Buffer per thread: 2
  We computed 7852534 shell quartets total.
  Whereas there are 9555006 unique shell quartets.

  ==> DiskJK: Disk-Based J/K Matrices <==

    J tasked:                  Yes
    K tasked:                  Yes
    wK tasked:                  No
    Memory [MiB]:              375
    Schwarz Cutoff:          1E-12

    OpenMP threads:              1

  Minimum eigenvalue in the overlap matrix is 3.2256595351E-03.
  Using Symmetric Orthogonalization.

  SCF Guess: Superposition of Atomic Densities via on-the-fly atomic UHF.

  ==> Iterations <==

                        Total Energy        Delta E     RMS |[F,P]|

   @RHF iter SAD:  -363.93713524833845   -3.63937e+02   0.00000e+00
   @RHF iter   1:  -365.01293399726478   -1.07580e+00   3.74865e-03 DIIS
   @RHF iter   2:  -365.23538889998252   -2.22455e-01   2.03534e-03 DIIS
   @RHF iter   3:  -365.29406146406200   -5.86726e-02   4.49386e-04 DIIS
   @RHF iter   4:  -365.29830281888604   -4.24135e-03   1.88531e-04 DIIS
   @RHF iter   5:  -365.29904337447999   -7.40556e-04   2.70219e-05 DIIS
   @RHF iter   6:  -365.29907723595346   -3.38615e-05   1.08656e-05 DIIS
   @RHF iter   7:  -365.29908191808050   -4.68213e-06   4.52923e-06 DIIS
   @RHF iter   8:  -365.29908292688083   -1.00880e-06   1.67661e-06 DIIS
   @RHF iter   9:  -365.29908307424233   -1.47362e-07   3.96041e-07 DIIS
   @RHF iter  10:  -365.29908308052995   -6.28762e-09   1.35787e-07 DIIS
   @RHF iter  11:  -365.29908308120923   -6.79279e-10   3.59318e-08 DIIS
   @RHF iter  12:  -365.29908308125687   -4.76348e-11   8.42651e-09 DIIS
   @RHF iter  13:  -365.29908308125988   -3.01270e-12   2.13716e-09 DIIS
   @RHF iter  14:  -365.29908308126306   -3.18323e-12   6.89957e-10 DIIS
   @RHF iter  15:  -365.29908308126267    3.97904e-13   2.18804e-10 DIIS
   @RHF iter  16:  -365.29908308126181    8.52651e-13   6.98491e-11 DIIS
  Energy and wave function converged.

  ==> Post-Iterations <==

    Orbital Energies [Eh]
    ---------------------

    Doubly Occupied:

       1A    -20.502393     2A    -15.587704     3A    -11.341655
       4A    -11.238159     5A    -11.233419     6A    -11.232403
       7A    -11.228001     8A    -11.220091     9A     -1.367811
      10A     -1.216447    11A     -1.063023    12A     -1.043748
      13A     -0.938511    14A     -0.886095    15A     -0.806839
      16A     -0.781620    17A     -0.722457    18A     -0.664018
      19A     -0.638834    20A     -0.631138    21A     -0.605222
      22A     -0.583694    23A     -0.560461    24A     -0.552637
      25A     -0.545870    26A     -0.516623    27A     -0.501237
      28A     -0.490201    29A     -0.489072    30A     -0.477774
      31A     -0.471564    32A     -0.408025    33A     -0.402947

    Virtual:

      34A      0.143873    35A      0.173136    36A      0.192063
      37A      0.198333    38A      0.215579    39A      0.224762
      40A      0.234228    41A      0.243932    42A      0.251917
      43A      0.263078    44A      0.277704    45A      0.286548
      46A      0.292262    47A      0.302719    48A      0.316352
      49A      0.350248    50A      0.365678    51A      0.389415
      52A      0.410844    53A      0.433152    54A      0.476140
      55A      0.547166    56A      0.558552    57A      0.590789
      58A      0.598318    59A      0.606769    60A      0.611725
      61A      0.615381    62A      0.654909    63A      0.684061
      64A      0.713161    65A      0.751819    66A      0.758845
      67A      0.776550    68A      0.790618    69A      0.794433
      70A      0.834485    71A      0.846970    72A      0.867870
      73A      0.872411    74A      0.879821    75A      0.884898
      76A      0.888963    77A      0.891807    78A      0.893214
      79A      0.898925    80A      0.901841    81A      0.911665
      82A      0.923571    83A      0.931123    84A      0.946696
      85A      0.961780    86A      0.968507    87A      0.981112
      88A      0.984637    89A      1.030976    90A      1.041628
      91A      1.082812    92A      1.102804    93A      1.118370
      94A      1.142580    95A      1.150243    96A      1.203765
      97A      1.293685    98A      1.309833    99A      1.344326
     100A      1.360191   101A      1.392713   102A      1.409225
     103A      1.410526   104A      1.461459   105A      1.478992
     106A      1.493669   107A      1.506794   108A      1.516639
     109A      1.591498   110A      1.626242   111A      1.662899
     112A      1.672504   113A      1.677998   114A      1.683106
     115A      1.695930   116A      1.738880   117A      1.766003
     118A      1.813972   119A      1.836075   120A      1.857896
     121A      1.864244   122A      1.872522   123A      1.888157
     124A      1.892624   125A      1.897619   126A      1.910506
     127A      1.917984   128A      1.923677   129A      1.941797
     130A      1.950762   131A      1.955046   132A      1.964732
     133A      1.970885   134A      1.982564   135A      1.984823
     136A      1.999745   137A      2.007324   138A      2.013552
     139A      2.031324   140A      2.047817   141A      2.052969
     142A      2.105147   143A      2.126007   144A      2.163071
     145A      2.212643   146A      2.242838   147A      2.269176
     148A      2.270462   149A      2.282312   150A      2.312659
     151A      2.336434   152A      2.341297   153A      2.366758
     154A      2.415810   155A      2.471757   156A      2.489574
     157A      2.519029   158A      2.543879   159A      2.562997
     160A      2.572256   161A      2.583011   162A      2.598705
     163A      2.606146   164A      2.614439   165A      2.645282
     166A      2.732145   167A      2.744490   168A      2.745787
     169A      2.766988   170A      2.778081   171A      2.791329
     172A      2.836844   173A      2.872680   174A      2.893022
     175A      2.905893   176A      2.952389   177A      2.955257
     178A      2.972673   179A      3.002549   180A      3.062877
     181A      3.104514   182A      3.155135   183A      3.307908
     184A      3.512616   185A      3.541632   186A      3.871775
     187A      3.908102

    Final Occupation by Irrep:
              A
    DOCC [    33 ]

  @RHF Final Energy:  -365.29908308126181

   => Energetics <=

    Nuclear Repulsion Energy =            370.2807011237462120
    One-Electron Energy =               -1229.2601807814692165
    Two-Electron Energy =                 493.6803965764611917
    Total Energy =                       -365.2990830812618128

Computation Completed

Properties will be evaluated at   0.000000,   0.000000,   0.000000 [a0]

Properties computed using the SCF density matrix

  Nuclear Dipole Moment: [e a0]
     X:    11.5974      Y:     9.3972      Z:     1.6833

  Electronic Dipole Moment: [e a0]
     X:   -11.0083      Y:    -7.9822      Z:    -1.0790

  Dipole Moment: [e a0]
     X:     0.5891      Y:     1.4149      Z:     0.6043     Total:     1.6475

  Dipole Moment: [D]
     X:     1.4975      Y:     3.5964      Z:     1.5360     Total:     4.1876

*** tstop() called on ds3 at Tue Apr 28 00:11:53 2020
Module time:
	user time   =      49.15 seconds =       0.82 minutes
	system time =      20.87 seconds =       0.35 minutes
	total time  =         96 seconds =       1.60 minutes
Total time:
	user time   =      49.15 seconds =       0.82 minutes
	system time =      20.87 seconds =       0.35 minutes
	total time  =         96 seconds =       1.60 minutes
                                     G D M A

                                 by Anthony Stone

                           version 2.2.06, 22 June 2011

               Distributed Multipoles from Gaussian wavefunctions

Starting at 0:11:53 on 28 Apr 2020

Using SCF density matrix from file ./SSI/SSI-085LEU-137ASN-1-dimer.test.4898.fchk

                         Distributed Multipole Analysis

Standard DMA

Positions and radii in angstrom
Multipole moments in atomic units, ea_0^k for rank k

C          x =  1.543501  y =  2.051193  z =  0.097523 angstrom
           Maximum rank =  0   Radius =  0.650 angstrom
                   Q00  =  -0.089303

C          x =  0.911501  y =  3.386193  z =  0.517523 angstrom
           Maximum rank =  0   Radius =  0.650 angstrom
                   Q00  =  -0.236412

C          x =  2.953501  y =  2.091193  z = -0.494477 angstrom
           Maximum rank =  0   Radius =  0.650 angstrom
                   Q00  =  -0.239982

H          x =  1.595501  y =  1.403193  z =  0.975523 angstrom
           Maximum rank =  0   Radius =  0.325 angstrom
                   Q00  =   0.037413

H          x =  0.881501  y =  1.579193  z = -0.631477 angstrom
           Maximum rank =  0   Radius =  0.325 angstrom
                   Q00  =   0.037170

H          x =  0.726501  y =  3.960193  z = -0.390477 angstrom
           Maximum rank =  0   Radius =  0.325 angstrom
                   Q00  =   0.081452

H          x =  3.634501  y =  2.474193  z =  0.262523 angstrom
           Maximum rank =  0   Radius =  0.325 angstrom
                   Q00  =   0.078582

H          x =  1.581251  y =  3.939173  z =  1.192543 angstrom
           Maximum rank =  0   Radius =  0.325 angstrom
                   Q00  =   0.084359

H          x = -0.063319  y =  3.214463  z =  0.997353 angstrom
           Maximum rank =  0   Radius =  0.325 angstrom
                   Q00  =   0.076557

H          x =  3.290111  y =  1.078483  z = -0.761167 angstrom
           Maximum rank =  0   Radius =  0.325 angstrom
                   Q00  =   0.089511

H          x =  2.997611  y =  2.756433  z = -1.369407 angstrom
           Maximum rank =  0   Radius =  0.325 angstrom
                   Q00  =   0.079027

C          x = -0.027499  y = -1.316807  z =  0.058523 angstrom
           Maximum rank =  0   Radius =  0.650 angstrom
                   Q00  =  -0.178212

C          x =  0.466501  y = -2.760807  z =  0.191523 angstrom
           Maximum rank =  0   Radius =  0.650 angstrom
                   Q00  =  -0.207013

C          x = -1.531499  y = -1.240807  z = -0.098477 angstrom
           Maximum rank =  0   Radius =  0.650 angstrom
                   Q00  =   0.872253

O          x = -2.167499  y = -2.197807  z = -0.532477 angstrom
           Maximum rank =  0   Radius =  0.650 angstrom
                   Q00  =  -0.815541

N          x = -2.113499  y = -0.105807  z =  0.245523 angstrom
           Maximum rank =  0   Radius =  0.650 angstrom
                   Q00  =  -0.550336

H          x =  0.290501  y = -0.731807  z =  0.922523 angstrom
           Maximum rank =  0   Radius =  0.325 angstrom
                   Q00  =   0.060614

H          x =  0.413501  y = -0.861807  z = -0.829477 angstrom
           Maximum rank =  0   Radius =  0.325 angstrom
                   Q00  =   0.108060

H          x = -0.005499  y = -3.359807  z = -0.590477 angstrom
           Maximum rank =  0   Radius =  0.325 angstrom
                   Q00  =   0.117833

H          x = -3.115499  y = -0.044807  z =  0.174523 angstrom
           Maximum rank =  0   Radius =  0.325 angstrom
                   Q00  =   0.217997

H          x = -1.572499  y =  0.635193  z =  0.680523 angstrom
           Maximum rank =  0   Radius =  0.325 angstrom
                   Q00  =   0.210148

H          x =  0.174441  y = -3.174377  z =  1.168083 angstrom
           Maximum rank =  0   Radius =  0.325 angstrom
                   Q00  =   0.087437

H          x =  1.546931  y = -2.833027  z = -0.002027 angstrom
           Maximum rank =  0   Radius =  0.325 angstrom
                   Q00  =   0.078388

Total multipoles referred to origin at
           x =   0.000000,  y =    0.000000,  z =    0.000000 angstrom
                   Q00  =  -0.000000

Finished at 0:11:53 on 28 Apr 2020

  DMA results are available in the Python driver through the
	  variable('DMA DISTRIBUTED MULTIPOLES')
  and
	  variable('DMA TOTAL MULTIPOLES')
  commands.

    Psi4 stopped on: Tuesday, 28 April 2020 12:11AM
    Psi4 wall time for execution: 0:01:35.90

*** Psi4 exiting successfully. Buy a developer a beer!
