                               Psi4 1.3.2 release

  ==> Input File <==

--------------------------------------------------------------------------
import numpy as np
set {scf_type pk
basis cc-pvdz
d_convergence 10
gdma_switch   0
gdma_limit    0
gdma_origin   [ 0.0,  0.0,  0.0 ]
}
molecule test {
    units Angstrom
    -1 1
    --
    -1 1
    C               -1.951498250614114    -1.462184252701291    -1.215698083419551
    C               -0.568498250614114    -0.892184252701291    -1.511698083419551
    O                0.461501749385887    -1.461184252701291    -1.087698083419551
    O               -0.521498250614114     0.166815747298709    -2.176698083419550
    H               -2.521498250614114    -1.531184252701291    -2.144698083419550
    H               -2.468498250614114    -0.763184252701291    -0.555698083419551
    H               -1.934239250614114    -2.448080952701291    -0.728143083419551
    C                0.682501749385886     0.897815747298709     1.549301916580449
    C                1.701501749385887     0.422815747298709     2.582301916580449
    C                0.199501749385886     2.311815747298708     1.862301916580449
    H                1.146501749385886     0.903815747298709     0.561301916580449
    H               -0.182498250614114     0.233815747298709     1.524301916580449
    H                1.243501749385887     0.347815747298709     3.568301916580449
    H                2.514501749385886     1.148815747298709     2.636301916580449
    H                1.059501749385886     2.989815747298708     1.842301916580449
    H               -0.483498250614113     2.625815747298708     1.065301916580449
    H                2.128984749385886    -0.552943852701291     2.308162916580450
    H               -0.306759250614114     2.370201747298709     2.837130916580449

}
e, wfn = energy('scf', return_wfn=True)
gdma(wfn)
dmavals = variable('DMA DISTRIBUTED MULTIPOLES')
charges = np.array(dmavals)
print(charges)
np.save('SSI-009ASP-021LYS-1-dimer.npy', np.array(charges))--------------------------------------------------------------------------

*** tstart() called on ds3
*** at Mon Apr 27 06:49:15 2020

   => Loading Basis Set <=

    Name: CC-PVDZ
    Role: ORBITAL
    Keyword: BASIS
    atoms 1-2, 8-10  entry C          line   138 file /theoryfs2/ds/metcalf/miniconda2/envs/tf2gpu/share/psi4/basis/cc-pvdz.gbs
    atoms 3-4        entry O          line   198 file /theoryfs2/ds/metcalf/miniconda2/envs/tf2gpu/share/psi4/basis/cc-pvdz.gbs
    atoms 5-7, 11-18 entry H          line    22 file /theoryfs2/ds/metcalf/miniconda2/envs/tf2gpu/share/psi4/basis/cc-pvdz.gbs

         ---------------------------------------------------------
                                   SCF
               by Justin Turney, Rob Parrish, Andy Simmonett
                          and Daniel G. A. Smith
                              RHF Reference
                        1 Threads,    500 MiB Core
         ---------------------------------------------------------

  ==> Geometry <==

    Molecular point group: c1
    Full point group: C1

    Geometry (in Angstrom), charge = -1, multiplicity = 1:

       Center              X                  Y                   Z               Mass
    ------------   -----------------  -----------------  -----------------  -----------------
         C           -1.951498250614    -1.462184252701    -1.215698083420    12.000000000000
         C           -0.568498250614    -0.892184252701    -1.511698083420    12.000000000000
         O            0.461501749386    -1.461184252701    -1.087698083420    15.994914619570
         O           -0.521498250614     0.166815747299    -2.176698083420    15.994914619570
         H           -2.521498250614    -1.531184252701    -2.144698083420     1.007825032230
         H           -2.468498250614    -0.763184252701    -0.555698083420     1.007825032230
         H           -1.934239250614    -2.448080952701    -0.728143083420     1.007825032230
         C            0.682501749386     0.897815747299     1.549301916580    12.000000000000
         C            1.701501749386     0.422815747299     2.582301916580    12.000000000000
         C            0.199501749386     2.311815747299     1.862301916580    12.000000000000
         H            1.146501749386     0.903815747299     0.561301916580     1.007825032230
         H           -0.182498250614     0.233815747299     1.524301916580     1.007825032230
         H            1.243501749386     0.347815747299     3.568301916580     1.007825032230
         H            2.514501749386     1.148815747299     2.636301916580     1.007825032230
         H            1.059501749386     2.989815747299     1.842301916580     1.007825032230
         H           -0.483498250614     2.625815747299     1.065301916580     1.007825032230
         H            2.128984749386    -0.552943852701     2.308162916580     1.007825032230
         H           -0.306759250614     2.370201747299     2.837130916580     1.007825032230

  Running in c1 symmetry.

  Rotational constants: A =      0.11969  B =      0.03045  C =      0.02829 [cm^-1]
  Rotational constants: A =   3588.26520  B =    912.90264  C =    848.24727 [MHz]
  Nuclear repulsion =  288.261815937298820

  Charge       = -1
  Multiplicity = 1
  Electrons    = 58
  Nalpha       = 29
  Nbeta        = 29

  ==> Algorithm <==

  SCF Algorithm Type is PK.
  DIIS enabled.
  MOM disabled.
  Fractional occupation disabled.
  Guess Type is SAD.
  Energy threshold   = 1.00e-06
  Density threshold  = 1.00e-10
  Integral threshold = 0.00e+00

  ==> Primary Basis <==

  Basis Set: CC-PVDZ
    Blend: CC-PVDZ
    Number of shells: 75
    Number of basis function: 153
    Number of Cartesian functions: 160
    Spherical Harmonics?: true
    Max angular momentum: 2

  ==> Pre-Iterations <==

   -------------------------------------------------------
    Irrep   Nso     Nmo     Nalpha   Nbeta   Ndocc  Nsocc
   -------------------------------------------------------
     A        153     153       0       0       0       0
   -------------------------------------------------------
    Total     153     153      29      29      29       0
   -------------------------------------------------------

  ==> Integral Setup <==

  Using integral reordering PK algorithm.
  Sizing the integral batches needed.
  Building batch lookup table.
   Calculation information:
      Number of atoms:                  18
      Number of AO shells:              75
      Number of primitives:            209
      Number of atomic orbitals:       160
      Number of basis functions:       153

      Integral cutoff                 1.00e-12
      Number of threads:                 1

	Batch   1 pq = [       0,    9405] index = [             0,44231715] size =     44231715
	Batch   2 pq = [    9405,   11781] index = [      44231715,69401871] size =     25170156
  Task number: 7
  Buffer size: 11059200
  Buffer per thread: 2
  We computed 3336217 shell quartets total.
  Whereas there are 4062675 unique shell quartets.

  ==> DiskJK: Disk-Based J/K Matrices <==

    J tasked:                  Yes
    K tasked:                  Yes
    wK tasked:                  No
    Memory [MiB]:              375
    Schwarz Cutoff:          1E-12

    OpenMP threads:              1

  Minimum eigenvalue in the overlap matrix is 5.3498867498E-03.
  Using Symmetric Orthogonalization.

  SCF Guess: Superposition of Atomic Densities via on-the-fly atomic UHF.

  ==> Iterations <==

                        Total Energy        Delta E     RMS |[F,P]|

   @RHF iter SAD:  -343.84555167689695   -3.43846e+02   0.00000e+00
   @RHF iter   1:  -345.21350176308550   -1.36795e+00   4.98419e-03 DIIS
   @RHF iter   2:  -345.44241226229940   -2.28910e-01   2.76827e-03 DIIS
   @RHF iter   3:  -345.50977490446837   -6.73626e-02   4.27519e-04 DIIS
   @RHF iter   4:  -345.51273305413287   -2.95815e-03   1.59774e-04 DIIS
   @RHF iter   5:  -345.51314327706064   -4.10223e-04   2.40374e-05 DIIS
   @RHF iter   6:  -345.51315464311534   -1.13661e-05   6.28628e-06 DIIS
   @RHF iter   7:  -345.51315538514245   -7.42027e-07   1.78156e-06 DIIS
   @RHF iter   8:  -345.51315543837865   -5.32362e-08   6.40934e-07 DIIS
   @RHF iter   9:  -345.51315544410085   -5.72220e-09   2.20273e-07 DIIS
   @RHF iter  10:  -345.51315544505189   -9.51047e-10   5.81065e-08 DIIS
   @RHF iter  11:  -345.51315544518792   -1.36026e-10   2.02543e-08 DIIS
   @RHF iter  12:  -345.51315544520861   -2.06910e-11   7.03145e-09 DIIS
   @RHF iter  13:  -345.51315544521003   -1.42109e-12   2.36858e-09 DIIS
   @RHF iter  14:  -345.51315544520969    3.41061e-13   7.14428e-10 DIIS
   @RHF iter  15:  -345.51315544520997   -2.84217e-13   2.41501e-10 DIIS
   @RHF iter  16:  -345.51315544521032   -3.41061e-13   8.69608e-11 DIIS
  Energy and wave function converged.

  ==> Post-Iterations <==

    Orbital Energies [Eh]
    ---------------------

    Doubly Occupied:

       1A    -20.256048     2A    -20.251037     3A    -11.112431
       4A    -11.103662     5A    -11.102813     6A    -11.088796
       7A    -11.050587     8A     -1.144496     9A     -1.029271
      10A     -0.933778    11A     -0.809029    12A     -0.794766
      13A     -0.673392    14A     -0.507640    15A     -0.497671
      16A     -0.477133    17A     -0.432846    18A     -0.420046
      19A     -0.409787    20A     -0.404457    21A     -0.398780
      22A     -0.350728    23A     -0.348636    24A     -0.346267
      25A     -0.338218    26A     -0.298934    27A     -0.179952
      28A     -0.165764    29A     -0.155218

    Virtual:

      30A      0.291915    31A      0.330263    32A      0.341370
      33A      0.346787    34A      0.370202    35A      0.392155
      36A      0.403085    37A      0.407295    38A      0.409745
      39A      0.421641    40A      0.429109    41A      0.483361
      42A      0.501483    43A      0.546932    44A      0.576283
      45A      0.674546    46A      0.694268    47A      0.700732
      48A      0.724485    49A      0.731641    50A      0.747509
      51A      0.798642    52A      0.827623    53A      0.871427
      54A      0.917195    55A      0.925699    56A      0.949876
      57A      0.968697    58A      0.996304    59A      1.000889
      60A      1.007854    61A      1.010812    62A      1.020646
      63A      1.024047    64A      1.026072    65A      1.036089
      66A      1.045361    67A      1.057895    68A      1.064353
      69A      1.076003    70A      1.112221    71A      1.126101
      72A      1.141424    73A      1.225622    74A      1.248881
      75A      1.262508    76A      1.319257    77A      1.330844
      78A      1.365003    79A      1.402083    80A      1.476989
      81A      1.546404    82A      1.562010    83A      1.582607
      84A      1.588284    85A      1.597945    86A      1.602138
      87A      1.639745    88A      1.679912    89A      1.701452
      90A      1.736102    91A      1.756016    92A      1.790054
      93A      1.802638    94A      1.827957    95A      1.844827
      96A      1.867529    97A      1.986497    98A      1.990632
      99A      2.002559   100A      2.018308   101A      2.037261
     102A      2.051177   103A      2.067276   104A      2.083627
     105A      2.093199   106A      2.098997   107A      2.105561
     108A      2.108783   109A      2.115180   110A      2.124608
     111A      2.139695   112A      2.171022   113A      2.223949
     114A      2.250343   115A      2.263476   116A      2.270560
     117A      2.332693   118A      2.412200   119A      2.421077
     120A      2.435899   121A      2.441120   122A      2.459530
     123A      2.486966   124A      2.600868   125A      2.631934
     126A      2.648683   127A      2.658432   128A      2.691866
     129A      2.722478   130A      2.728023   131A      2.742647
     132A      2.789782   133A      2.860611   134A      2.879613
     135A      2.891485   136A      2.915404   137A      2.935285
     138A      2.963448   139A      2.996833   140A      3.030804
     141A      3.086838   142A      3.093577   143A      3.187491
     144A      3.248168   145A      3.283724   146A      3.300664
     147A      3.366994   148A      3.646562   149A      3.783484
     150A      3.829185   151A      4.071764   152A      4.082840
     153A      4.200017

    Final Occupation by Irrep:
              A
    DOCC [    29 ]

  @RHF Final Energy:  -345.51315544521032

   => Energetics <=

    Nuclear Repulsion Energy =            288.2618159372988202
    One-Electron Energy =               -1053.3855736539658210
    Two-Electron Energy =                 419.6106022714566848
    Total Energy =                       -345.5131554452103160

Computation Completed

Properties will be evaluated at   0.000000,   0.000000,   0.000000 [a0]

Properties computed using the SCF density matrix

  Nuclear Dipole Moment: [e a0]
     X:     0.1835      Y:     4.9855      Z:    12.0913

  Electronic Dipole Moment: [e a0]
     X:    -0.4234      Y:    -4.0994      Z:    -9.4385

  Dipole Moment: [e a0]
     X:    -0.2399      Y:     0.8861      Z:     2.6529     Total:     2.8072

  Dipole Moment: [D]
     X:    -0.6098      Y:     2.2523      Z:     6.7429     Total:     7.1352

*** tstop() called on ds3 at Mon Apr 27 06:49:49 2020
Module time:
	user time   =      23.32 seconds =       0.39 minutes
	system time =      10.71 seconds =       0.18 minutes
	total time  =         34 seconds =       0.57 minutes
Total time:
	user time   =      23.32 seconds =       0.39 minutes
	system time =      10.71 seconds =       0.18 minutes
	total time  =         34 seconds =       0.57 minutes
                                     G D M A

                                 by Anthony Stone

                           version 2.2.06, 22 June 2011

               Distributed Multipoles from Gaussian wavefunctions

Starting at 6:49:49 on 27 Apr 2020

Using SCF density matrix from file ./SSI/SSI-009ASP-021LYS-1-dimer.test.21103.fchk

                         Distributed Multipole Analysis

Standard DMA

Positions and radii in angstrom
Multipole moments in atomic units, ea_0^k for rank k

C          x = -1.951498  y = -1.462184  z = -1.215698 angstrom
           Maximum rank =  0   Radius =  0.650 angstrom
                   Q00  =  -0.278573

C          x = -0.568498  y = -0.892184  z = -1.511698 angstrom
           Maximum rank =  0   Radius =  0.650 angstrom
                   Q00  =   0.965570

O          x =  0.461502  y = -1.461184  z = -1.087698 angstrom
           Maximum rank =  0   Radius =  0.650 angstrom
                   Q00  =  -0.924217

O          x = -0.521498  y =  0.166816  z = -2.176698 angstrom
           Maximum rank =  0   Radius =  0.650 angstrom
                   Q00  =  -0.935240

H          x = -2.521498  y = -1.531184  z = -2.144698 angstrom
           Maximum rank =  0   Radius =  0.325 angstrom
                   Q00  =   0.065625

H          x = -2.468498  y = -0.763184  z = -0.555698 angstrom
           Maximum rank =  0   Radius =  0.325 angstrom
                   Q00  =   0.069248

H          x = -1.934239  y = -2.448081  z = -0.728143 angstrom
           Maximum rank =  0   Radius =  0.325 angstrom
                   Q00  =   0.044446

C          x =  0.682502  y =  0.897816  z =  1.549302 angstrom
           Maximum rank =  0   Radius =  0.650 angstrom
                   Q00  =  -0.013641

C          x =  1.701502  y =  0.422816  z =  2.582302 angstrom
           Maximum rank =  0   Radius =  0.650 angstrom
                   Q00  =  -0.248865

C          x =  0.199502  y =  2.311816  z =  1.862302 angstrom
           Maximum rank =  0   Radius =  0.650 angstrom
                   Q00  =  -0.270952

H          x =  1.146502  y =  0.903816  z =  0.561302 angstrom
           Maximum rank =  0   Radius =  0.325 angstrom
                   Q00  =   0.089281

H          x = -0.182498  y =  0.233816  z =  1.524302 angstrom
           Maximum rank =  0   Radius =  0.325 angstrom
                   Q00  =   0.054710

H          x =  1.243502  y =  0.347816  z =  3.568302 angstrom
           Maximum rank =  0   Radius =  0.325 angstrom
                   Q00  =   0.047059

H          x =  2.514502  y =  1.148816  z =  2.636302 angstrom
           Maximum rank =  0   Radius =  0.325 angstrom
                   Q00  =   0.050784

H          x =  1.059502  y =  2.989816  z =  1.842302 angstrom
           Maximum rank =  0   Radius =  0.325 angstrom
                   Q00  =   0.054987

H          x = -0.483498  y =  2.625816  z =  1.065302 angstrom
           Maximum rank =  0   Radius =  0.325 angstrom
                   Q00  =   0.090324

H          x =  2.128985  y = -0.552944  z =  2.308163 angstrom
           Maximum rank =  0   Radius =  0.325 angstrom
                   Q00  =   0.091904

H          x = -0.306759  y =  2.370202  z =  2.837131 angstrom
           Maximum rank =  0   Radius =  0.325 angstrom
                   Q00  =   0.047550

Total multipoles referred to origin at
           x =   0.000000,  y =    0.000000,  z =    0.000000 angstrom
                   Q00  =  -1.000000

Finished at 6:49:49 on 27 Apr 2020

  DMA results are available in the Python driver through the
	  variable('DMA DISTRIBUTED MULTIPOLES')
  and
	  variable('DMA TOTAL MULTIPOLES')
  commands.

    Psi4 stopped on: Monday, 27 April 2020 06:49AM
    Psi4 wall time for execution: 0:00:33.99

*** Psi4 exiting successfully. Buy a developer a beer!
