                               Psi4 1.3.2 release

  ==> Input File <==

--------------------------------------------------------------------------
import numpy as np
set {scf_type pk
basis cc-pvdz
d_convergence 10
gdma_switch   0
gdma_limit    0
gdma_origin   [ 0.0,  0.0,  0.0 ]
}
molecule test {
    units Angstrom
    0 1
    --
    0 1
    C                0.354986578922775    -1.217771405441648     2.992521350088127
    C                0.594986578922775    -1.600771405441648     1.561521350088127
    O                0.822986578922775    -0.765771405441648     0.688521350088127
    N                0.449986578922775    -2.886771405441648     1.289521350088127
    H                1.061986578922775    -1.744771405441647     3.632521350088127
    H               -0.640013421077225    -1.575771405441648     3.264521350088127
    H                0.592986578922775    -3.192771405441648     0.338521350088127
    H                0.239986578922775    -3.550771405441648     2.021521350088126
    H                0.379776578922775    -0.135561405441648     3.187961350088127
    C                0.757986578922775     1.283228594558352    -2.126478649911873
    C               -0.613013421077225     1.696228594558352    -1.639478649911873
    O               -1.240013421077225     2.541228594558352    -2.258478649911873
    N               -1.085013421077225     1.082228594558353    -0.561478649911873
    H               -1.995013421077225     1.331228594558352    -0.208478649911873
    H               -0.513013421077225     0.377228594558352    -0.103478649911873
    H                0.611986578922775     0.495228594558352    -2.864478649911873
    H                1.320986578922775     0.869228594558352    -1.290478649911873
    H                1.344796578922775     2.105908594558353    -2.561048649911873

}
e, wfn = energy('scf', return_wfn=True)
gdma(wfn)
dmavals = variable('DMA DISTRIBUTED MULTIPOLES')
charges = np.array(dmavals)
print(charges)
np.save('SSI-012GLN-034GLN-1-dimer.npy', np.array(charges))--------------------------------------------------------------------------

*** tstart() called on ds3
*** at Mon Apr 27 16:37:14 2020

   => Loading Basis Set <=

    Name: CC-PVDZ
    Role: ORBITAL
    Keyword: BASIS
    atoms 1-2, 10-11 entry C          line   138 file /theoryfs2/ds/metcalf/miniconda2/envs/tf2gpu/share/psi4/basis/cc-pvdz.gbs
    atoms 3, 12      entry O          line   198 file /theoryfs2/ds/metcalf/miniconda2/envs/tf2gpu/share/psi4/basis/cc-pvdz.gbs
    atoms 4, 13      entry N          line   168 file /theoryfs2/ds/metcalf/miniconda2/envs/tf2gpu/share/psi4/basis/cc-pvdz.gbs
    atoms 5-9, 14-18 entry H          line    22 file /theoryfs2/ds/metcalf/miniconda2/envs/tf2gpu/share/psi4/basis/cc-pvdz.gbs

         ---------------------------------------------------------
                                   SCF
               by Justin Turney, Rob Parrish, Andy Simmonett
                          and Daniel G. A. Smith
                              RHF Reference
                        1 Threads,    500 MiB Core
         ---------------------------------------------------------

  ==> Geometry <==

    Molecular point group: c1
    Full point group: C1

    Geometry (in Angstrom), charge = 0, multiplicity = 1:

       Center              X                  Y                   Z               Mass
    ------------   -----------------  -----------------  -----------------  -----------------
         C            0.354986578923    -1.217771405442     2.992521350088    12.000000000000
         C            0.594986578923    -1.600771405442     1.561521350088    12.000000000000
         O            0.822986578923    -0.765771405442     0.688521350088    15.994914619570
         N            0.449986578923    -2.886771405442     1.289521350088    14.003074004430
         H            1.061986578923    -1.744771405442     3.632521350088     1.007825032230
         H           -0.640013421077    -1.575771405442     3.264521350088     1.007825032230
         H            0.592986578923    -3.192771405442     0.338521350088     1.007825032230
         H            0.239986578923    -3.550771405442     2.021521350088     1.007825032230
         H            0.379776578923    -0.135561405442     3.187961350088     1.007825032230
         C            0.757986578923     1.283228594558    -2.126478649912    12.000000000000
         C           -0.613013421077     1.696228594558    -1.639478649912    12.000000000000
         O           -1.240013421077     2.541228594558    -2.258478649912    15.994914619570
         N           -1.085013421077     1.082228594558    -0.561478649912    14.003074004430
         H           -1.995013421077     1.331228594558    -0.208478649912     1.007825032230
         H           -0.513013421077     0.377228594558    -0.103478649912     1.007825032230
         H            0.611986578923     0.495228594558    -2.864478649912     1.007825032230
         H            1.320986578923     0.869228594558    -1.290478649912     1.007825032230
         H            1.344796578923     2.105908594558    -2.561048649912     1.007825032230

  Running in c1 symmetry.

  Rotational constants: A =      0.14908  B =      0.02153  C =      0.02036 [cm^-1]
  Rotational constants: A =   4469.43015  B =    645.42314  C =    610.33220 [MHz]
  Nuclear repulsion =  361.135786518381451

  Charge       = 0
  Multiplicity = 1
  Electrons    = 64
  Nalpha       = 32
  Nbeta        = 32

  ==> Algorithm <==

  SCF Algorithm Type is PK.
  DIIS enabled.
  MOM disabled.
  Fractional occupation disabled.
  Guess Type is SAD.
  Energy threshold   = 1.00e-06
  Density threshold  = 1.00e-10
  Integral threshold = 0.00e+00

  ==> Primary Basis <==

  Basis Set: CC-PVDZ
    Blend: CC-PVDZ
    Number of shells: 78
    Number of basis function: 162
    Number of Cartesian functions: 170
    Spherical Harmonics?: true
    Max angular momentum: 2

  ==> Pre-Iterations <==

   -------------------------------------------------------
    Irrep   Nso     Nmo     Nalpha   Nbeta   Ndocc  Nsocc
   -------------------------------------------------------
     A        162     162       0       0       0       0
   -------------------------------------------------------
    Total     162     162      32      32      32       0
   -------------------------------------------------------

  ==> Integral Setup <==

  Using integral reordering PK algorithm.
  Sizing the integral batches needed.
  Building batch lookup table.
   Calculation information:
      Number of atoms:                  18
      Number of AO shells:              78
      Number of primitives:            226
      Number of atomic orbitals:       170
      Number of basis functions:       162

      Integral cutoff                 1.00e-12
      Number of threads:                 1

	Batch   1 pq = [       0,    9405] index = [             0,44231715] size =     44231715
	Batch   2 pq = [    9405,   13203] index = [      44231715,87166206] size =     42934491
  Task number: 8
  Buffer size: 11059200
  Buffer per thread: 2
  We computed 3609599 shell quartets total.
  Whereas there are 4747821 unique shell quartets.

  ==> DiskJK: Disk-Based J/K Matrices <==

    J tasked:                  Yes
    K tasked:                  Yes
    wK tasked:                  No
    Memory [MiB]:              375
    Schwarz Cutoff:          1E-12

    OpenMP threads:              1

  Minimum eigenvalue in the overlap matrix is 4.5956691867E-03.
  Using Symmetric Orthogonalization.

  SCF Guess: Superposition of Atomic Densities via on-the-fly atomic UHF.

  ==> Iterations <==

                        Total Energy        Delta E     RMS |[F,P]|

   @RHF iter SAD:  -414.62034576926334   -4.14620e+02   0.00000e+00
   @RHF iter   1:  -415.71331522624905   -1.09297e+00   4.61038e-03 DIIS
   @RHF iter   2:  -415.92574932752871   -2.12434e-01   2.62337e-03 DIIS
   @RHF iter   3:  -415.99007612457228   -6.43268e-02   4.97455e-04 DIIS
   @RHF iter   4:  -415.99408616946471   -4.01004e-03   1.94656e-04 DIIS
   @RHF iter   5:  -415.99477800699407   -6.91838e-04   3.59748e-05 DIIS
   @RHF iter   6:  -415.99482659276464   -4.85858e-05   1.81003e-05 DIIS
   @RHF iter   7:  -415.99483534551041   -8.75275e-06   6.72590e-06 DIIS
   @RHF iter   8:  -415.99483713161794   -1.78611e-06   1.94084e-06 DIIS
   @RHF iter   9:  -415.99483728635641   -1.54738e-07   4.44169e-07 DIIS
   @RHF iter  10:  -415.99483729241092   -6.05451e-09   2.12184e-07 DIIS
   @RHF iter  11:  -415.99483729308469   -6.73765e-10   4.62475e-08 DIIS
   @RHF iter  12:  -415.99483729313965   -5.49676e-11   1.14978e-08 DIIS
   @RHF iter  13:  -415.99483729314505   -5.40012e-12   2.85675e-09 DIIS
   @RHF iter  14:  -415.99483729314636   -1.30740e-12   1.13605e-09 DIIS
   @RHF iter  15:  -415.99483729314545    9.09495e-13   3.07135e-10 DIIS
   @RHF iter  16:  -415.99483729314534    1.13687e-13   1.09579e-10 DIIS
   @RHF iter  17:  -415.99483729314773   -2.38742e-12   4.06253e-11 DIIS
  Energy and wave function converged.

  ==> Post-Iterations <==

    Orbital Energies [Eh]
    ---------------------

    Doubly Occupied:

       1A    -20.536221     2A    -20.471278     3A    -15.614019
       4A    -15.549027     5A    -11.377820     6A    -11.314499
       7A    -11.262386     8A    -11.208716     9A     -1.401415
      10A     -1.340317    11A     -1.246270    12A     -1.181574
      13A     -1.026631    14A     -0.967502    15A     -0.826772
      16A     -0.764594    17A     -0.753058    18A     -0.702587
      19A     -0.677847    20A     -0.638956    21A     -0.624509
      22A     -0.602350    23A     -0.583309    24A     -0.580158
      25A     -0.548077    26A     -0.535683    27A     -0.522837
      28A     -0.491050    29A     -0.443516    30A     -0.435588
      31A     -0.377420    32A     -0.371833

    Virtual:

      33A      0.144611    34A      0.170440    35A      0.195642
      36A      0.209321    37A      0.222075    38A      0.230693
      39A      0.242720    40A      0.247293    41A      0.256262
      42A      0.295440    43A      0.313888    44A      0.337258
      45A      0.367931    46A      0.410673    47A      0.484542
      48A      0.500590    49A      0.518556    50A      0.589934
      51A      0.610913    52A      0.621293    53A      0.658397
      54A      0.679122    55A      0.679422    56A      0.711360
      57A      0.718454    58A      0.732413    59A      0.749926
      60A      0.753434    61A      0.768973    62A      0.778968
      63A      0.825218    64A      0.837815    65A      0.867955
      66A      0.886979    67A      0.891826    68A      0.903109
      69A      0.914133    70A      0.928190    71A      0.949875
      72A      0.961637    73A      0.984254    74A      1.006485
      75A      1.033166    76A      1.042743    77A      1.050926
      78A      1.102028    79A      1.115858    80A      1.152075
      81A      1.205152    82A      1.248338    83A      1.297894
      84A      1.315256    85A      1.341834    86A      1.368751
      87A      1.380839    88A      1.387020    89A      1.403165
      90A      1.437623    91A      1.448127    92A      1.459594
      93A      1.478667    94A      1.497742    95A      1.540020
      96A      1.555972    97A      1.640222    98A      1.646682
      99A      1.671827   100A      1.680670   101A      1.699860
     102A      1.758433   103A      1.766439   104A      1.825190
     105A      1.862549   106A      1.869401   107A      1.886095
     108A      1.896978   109A      1.906453   110A      1.917335
     111A      1.920623   112A      1.935980   113A      1.963961
     114A      1.972134   115A      2.000182   116A      2.016773
     117A      2.044023   118A      2.059733   119A      2.077875
     120A      2.098527   121A      2.159083   122A      2.216152
     123A      2.244900   124A      2.256307   125A      2.260794
     126A      2.314438   127A      2.386985   128A      2.420715
     129A      2.441480   130A      2.480593   131A      2.494484
     132A      2.511074   133A      2.534494   134A      2.563614
     135A      2.572451   136A      2.603514   137A      2.631208
     138A      2.672757   139A      2.684273   140A      2.717430
     141A      2.763912   142A      2.776087   143A      2.795022
     144A      2.843670   145A      2.863643   146A      2.888908
     147A      2.968518   148A      3.002875   149A      3.076722
     150A      3.107607   151A      3.132618   152A      3.166429
     153A      3.262664   154A      3.361652   155A      3.473497
     156A      3.520405   157A      3.544542   158A      3.592178
     159A      3.843144   160A      3.904022   161A      3.928489
     162A      3.946544

    Final Occupation by Irrep:
              A
    DOCC [    32 ]

  @RHF Final Energy:  -415.99483729314773

   => Energetics <=

    Nuclear Repulsion Energy =            361.1357865183814511
    One-Electron Energy =               -1284.3056102980115156
    Two-Electron Energy =                 507.1749864864823394
    Total Energy =                       -415.9948372931477252

Computation Completed

Properties will be evaluated at   0.000000,   0.000000,   0.000000 [a0]

Properties computed using the SCF density matrix

  Nuclear Dipole Moment: [e a0]
     X:     2.2540      Y:    -4.6931      Z:     5.0687

  Electronic Dipole Moment: [e a0]
     X:    -1.8094      Y:     1.7201      Z:    -2.6887

  Dipole Moment: [e a0]
     X:     0.4445      Y:    -2.9730      Z:     2.3800     Total:     3.8342

  Dipole Moment: [D]
     X:     1.1298      Y:    -7.5567      Z:     6.0493     Total:     9.7455

*** tstop() called on ds3 at Mon Apr 27 16:38:05 2020
Module time:
	user time   =      34.57 seconds =       0.58 minutes
	system time =      18.82 seconds =       0.31 minutes
	total time  =         51 seconds =       0.85 minutes
Total time:
	user time   =      34.57 seconds =       0.58 minutes
	system time =      18.82 seconds =       0.31 minutes
	total time  =         51 seconds =       0.85 minutes
                                     G D M A

                                 by Anthony Stone

                           version 2.2.06, 22 June 2011

               Distributed Multipoles from Gaussian wavefunctions

Starting at 16:38:5 on 27 Apr 2020

Using SCF density matrix from file ./SSI/SSI-012GLN-034GLN-1-dimer.test.27437.fchk

                         Distributed Multipole Analysis

Standard DMA

Positions and radii in angstrom
Multipole moments in atomic units, ea_0^k for rank k

C          x =  0.354987  y = -1.217771  z =  2.992521 angstrom
           Maximum rank =  0   Radius =  0.650 angstrom
                   Q00  =  -0.268145

C          x =  0.594987  y = -1.600771  z =  1.561521 angstrom
           Maximum rank =  0   Radius =  0.650 angstrom
                   Q00  =   0.838022

O          x =  0.822987  y = -0.765771  z =  0.688521 angstrom
           Maximum rank =  0   Radius =  0.650 angstrom
                   Q00  =  -0.818608

N          x =  0.449987  y = -2.886771  z =  1.289521 angstrom
           Maximum rank =  0   Radius =  0.650 angstrom
                   Q00  =  -0.539859

H          x =  1.061987  y = -1.744771  z =  3.632521 angstrom
           Maximum rank =  0   Radius =  0.325 angstrom
                   Q00  =   0.115273

H          x = -0.640013  y = -1.575771  z =  3.264521 angstrom
           Maximum rank =  0   Radius =  0.325 angstrom
                   Q00  =   0.105229

H          x =  0.592987  y = -3.192771  z =  0.338521 angstrom
           Maximum rank =  0   Radius =  0.325 angstrom
                   Q00  =   0.228225

H          x =  0.239987  y = -3.550771  z =  2.021521 angstrom
           Maximum rank =  0   Radius =  0.325 angstrom
                   Q00  =   0.215750

H          x =  0.379777  y = -0.135561  z =  3.187961 angstrom
           Maximum rank =  0   Radius =  0.325 angstrom
                   Q00  =   0.136548

C          x =  0.757987  y =  1.283229  z = -2.126479 angstrom
           Maximum rank =  0   Radius =  0.650 angstrom
                   Q00  =  -0.268643

C          x = -0.613013  y =  1.696229  z = -1.639479 angstrom
           Maximum rank =  0   Radius =  0.650 angstrom
                   Q00  =   0.826468

O          x = -1.240013  y =  2.541229  z = -2.258479 angstrom
           Maximum rank =  0   Radius =  0.650 angstrom
                   Q00  =  -0.813799

N          x = -1.085013  y =  1.082229  z = -0.561479 angstrom
           Maximum rank =  0   Radius =  0.650 angstrom
                   Q00  =  -0.554743

H          x = -1.995013  y =  1.331229  z = -0.208479 angstrom
           Maximum rank =  0   Radius =  0.325 angstrom
                   Q00  =   0.201504

H          x = -0.513013  y =  0.377229  z = -0.103479 angstrom
           Maximum rank =  0   Radius =  0.325 angstrom
                   Q00  =   0.260990

H          x =  0.611987  y =  0.495229  z = -2.864479 angstrom
           Maximum rank =  0   Radius =  0.325 angstrom
                   Q00  =   0.118197

H          x =  1.320987  y =  0.869229  z = -1.290479 angstrom
           Maximum rank =  0   Radius =  0.325 angstrom
                   Q00  =   0.100052

H          x =  1.344797  y =  2.105909  z = -2.561049 angstrom
           Maximum rank =  0   Radius =  0.325 angstrom
                   Q00  =   0.117538

Total multipoles referred to origin at
           x =   0.000000,  y =    0.000000,  z =    0.000000 angstrom
                   Q00  =  -0.000000

Finished at 16:38:5 on 27 Apr 2020

  DMA results are available in the Python driver through the
	  variable('DMA DISTRIBUTED MULTIPOLES')
  and
	  variable('DMA TOTAL MULTIPOLES')
  commands.

    Psi4 stopped on: Monday, 27 April 2020 04:38PM
    Psi4 wall time for execution: 0:00:51.67

*** Psi4 exiting successfully. Buy a developer a beer!
