                               Psi4 1.3.2 release

  ==> Input File <==

--------------------------------------------------------------------------
import numpy as np
set {scf_type pk
basis cc-pvdz
d_convergence 10
gdma_switch   0
gdma_limit    0
gdma_origin   [ 0.0,  0.0,  0.0 ]
}
molecule test {
    units Angstrom
    0 1
    --
    0 1
    C               -1.322928274011291     1.775015739696612     1.482727863246357
    C               -2.560928274011292     2.678015739696612     1.616727863246357
    C               -0.060928274011291     2.320015739696612     2.106727863246357
    H               -1.514928274011291     0.824015739696612     1.953727863246357
    H               -1.148928274011291     1.564015739696612     0.426727863246357
    H               -2.354928274011291     3.584015739696612     1.044727863246357
    H               -0.219928274011291     2.423015739696611     3.168727863246358
    H                0.741071725988709     1.604015739696612     1.976727863246357
    H               -2.722448274011291     2.962355739696612     2.666997863246357
    H               -3.412468274011291     2.168385739696612     1.142217863246357
    H                0.262491725988709     3.277785739696612     1.673047863246357
    C               -0.611928274011291    -1.964984260303388    -2.752272136753643
    C                1.503071725988709     0.317015739696612    -0.556272136753643
    C                0.782071725988709    -0.172984260303388    -1.639272136753643
    C                1.582071725988708    -0.432984260303388     0.611727863246357
    C                0.123071725988709    -1.402984260303388    -1.557272136753643
    C                0.937071725988709    -1.660984260303388     0.699727863246357
    C                0.219071725988709    -2.149984260303388    -0.383272136753643
    H                2.021071725988709     1.264015739696612    -0.630272136753643
    H                0.740071725988709     0.402015739696612    -2.555272136753643
    H                2.167071725988709    -0.072984260303388     1.446727863246357
    H                1.008071725988709    -2.238984260303388     1.610727863246357
    H               -0.594928274011291    -3.053984260303388    -2.691272136753642
    H               -0.063928274011291    -1.691984260303389    -3.650272136753642
    H               -0.273928274011291    -3.109984260303388    -0.311272136753643
    H               -1.655098274011291    -1.632344260303388    -2.857882136753643

}
e, wfn = energy('scf', return_wfn=True)
gdma(wfn)
dmavals = variable('DMA DISTRIBUTED MULTIPOLES')
charges = np.array(dmavals)
print(charges)
np.save('SSI-118GLN-121PHE-1-dimer.npy', np.array(charges))--------------------------------------------------------------------------

*** tstart() called on ds3
*** at Mon Apr 27 03:30:18 2020

   => Loading Basis Set <=

    Name: CC-PVDZ
    Role: ORBITAL
    Keyword: BASIS
    atoms 1-3, 12-18  entry C          line   138 file /theoryfs2/ds/metcalf/miniconda2/envs/tf2gpu/share/psi4/basis/cc-pvdz.gbs
    atoms 4-11, 19-26 entry H          line    22 file /theoryfs2/ds/metcalf/miniconda2/envs/tf2gpu/share/psi4/basis/cc-pvdz.gbs

         ---------------------------------------------------------
                                   SCF
               by Justin Turney, Rob Parrish, Andy Simmonett
                          and Daniel G. A. Smith
                              RHF Reference
                        1 Threads,    500 MiB Core
         ---------------------------------------------------------

  ==> Geometry <==

    Molecular point group: c1
    Full point group: C1

    Geometry (in Angstrom), charge = 0, multiplicity = 1:

       Center              X                  Y                   Z               Mass
    ------------   -----------------  -----------------  -----------------  -----------------
         C           -1.322928274011     1.775015739697     1.482727863246    12.000000000000
         C           -2.560928274011     2.678015739697     1.616727863246    12.000000000000
         C           -0.060928274011     2.320015739697     2.106727863246    12.000000000000
         H           -1.514928274011     0.824015739697     1.953727863246     1.007825032230
         H           -1.148928274011     1.564015739697     0.426727863246     1.007825032230
         H           -2.354928274011     3.584015739697     1.044727863246     1.007825032230
         H           -0.219928274011     2.423015739697     3.168727863246     1.007825032230
         H            0.741071725989     1.604015739697     1.976727863246     1.007825032230
         H           -2.722448274011     2.962355739697     2.666997863246     1.007825032230
         H           -3.412468274011     2.168385739697     1.142217863246     1.007825032230
         H            0.262491725989     3.277785739697     1.673047863246     1.007825032230
         C           -0.611928274011    -1.964984260303    -2.752272136754    12.000000000000
         C            1.503071725989     0.317015739697    -0.556272136754    12.000000000000
         C            0.782071725989    -0.172984260303    -1.639272136754    12.000000000000
         C            1.582071725989    -0.432984260303     0.611727863246    12.000000000000
         C            0.123071725989    -1.402984260303    -1.557272136754    12.000000000000
         C            0.937071725989    -1.660984260303     0.699727863246    12.000000000000
         C            0.219071725989    -2.149984260303    -0.383272136754    12.000000000000
         H            2.021071725989     1.264015739697    -0.630272136754     1.007825032230
         H            0.740071725989     0.402015739697    -2.555272136754     1.007825032230
         H            2.167071725989    -0.072984260303     1.446727863246     1.007825032230
         H            1.008071725989    -2.238984260303     1.610727863246     1.007825032230
         H           -0.594928274011    -3.053984260303    -2.691272136754     1.007825032230
         H           -0.063928274011    -1.691984260303    -3.650272136754     1.007825032230
         H           -0.273928274011    -3.109984260303    -0.311272136754     1.007825032230
         H           -1.655098274011    -1.632344260303    -2.857882136754     1.007825032230

  Running in c1 symmetry.

  Rotational constants: A =      0.05921  B =      0.02076  C =      0.01848 [cm^-1]
  Rotational constants: A =   1774.98396  B =    622.50789  C =    553.91231 [MHz]
  Nuclear repulsion =  493.635064013424369

  Charge       = 0
  Multiplicity = 1
  Electrons    = 76
  Nalpha       = 38
  Nbeta        = 38

  ==> Algorithm <==

  SCF Algorithm Type is PK.
  DIIS enabled.
  MOM disabled.
  Fractional occupation disabled.
  Guess Type is SAD.
  Energy threshold   = 1.00e-06
  Density threshold  = 1.00e-10
  Integral threshold = 0.00e+00

  ==> Primary Basis <==

  Basis Set: CC-PVDZ
    Blend: CC-PVDZ
    Number of shells: 108
    Number of basis function: 220
    Number of Cartesian functions: 230
    Spherical Harmonics?: true
    Max angular momentum: 2

  ==> Pre-Iterations <==

   -------------------------------------------------------
    Irrep   Nso     Nmo     Nalpha   Nbeta   Ndocc  Nsocc
   -------------------------------------------------------
     A        220     220       0       0       0       0
   -------------------------------------------------------
    Total     220     220      38      38      38       0
   -------------------------------------------------------

  ==> Integral Setup <==

  Using integral reordering PK algorithm.
  Sizing the integral batches needed.
  Building batch lookup table.
   Calculation information:
      Number of atoms:                  26
      Number of AO shells:             108
      Number of primitives:            300
      Number of atomic orbitals:       230
      Number of basis functions:       220

      Integral cutoff                 1.00e-12
      Number of threads:                 1

	Batch   1 pq = [       0,    9405] index = [             0,44231715] size =     44231715
	Batch   2 pq = [    9405,   13301] index = [      44231715,88464951] size =     44233236
	Batch   3 pq = [   13301,   16290] index = [      88464951,132690195] size =     44225244
	Batch   4 pq = [   16290,   18810] index = [     132690195,176917455] size =     44227260
	Batch   5 pq = [   18810,   21030] index = [     176917455,221140965] size =     44223510
	Batch   6 pq = [   21030,   23037] index = [     221140965,265363203] size =     44222238
	Batch   7 pq = [   23037,   24310] index = [     265363203,295500205] size =     30137002
  Task number: 27
  Buffer size: 11059200
  Buffer per thread: 2
  We computed 16046192 shell quartets total.
  Whereas there are 17325441 unique shell quartets.

  ==> DiskJK: Disk-Based J/K Matrices <==

    J tasked:                  Yes
    K tasked:                  Yes
    wK tasked:                  No
    Memory [MiB]:              375
    Schwarz Cutoff:          1E-12

    OpenMP threads:              1

  Minimum eigenvalue in the overlap matrix is 3.1297172118E-04.
  Using Symmetric Orthogonalization.

  SCF Guess: Superposition of Atomic Densities via on-the-fly atomic UHF.

  ==> Iterations <==

                        Total Energy        Delta E     RMS |[F,P]|

   @RHF iter SAD:  -386.92578390741147   -3.86926e+02   0.00000e+00
   @RHF iter   1:  -387.76719479160897   -8.41411e-01   2.76331e-03 DIIS
   @RHF iter   2:  -387.98722337241048   -2.20029e-01   1.16157e-03 DIIS
   @RHF iter   3:  -388.02268573862284   -3.54624e-02   2.50382e-04 DIIS
   @RHF iter   4:  -388.02557550474677   -2.88977e-03   5.08383e-05 DIIS
   @RHF iter   5:  -388.02566222750363   -8.67228e-05   1.51757e-05 DIIS
   @RHF iter   6:  -388.02566972007656   -7.49257e-06   4.60477e-06 DIIS
   @RHF iter   7:  -388.02567046951890   -7.49442e-07   1.30503e-06 DIIS
   @RHF iter   8:  -388.02567054988236   -8.03635e-08   3.78282e-07 DIIS
   @RHF iter   9:  -388.02567056602112   -1.61388e-08   1.87623e-07 DIIS
   @RHF iter  10:  -388.02567057049794   -4.47682e-09   8.43648e-08 DIIS
   @RHF iter  11:  -388.02567057163645   -1.13852e-09   2.81567e-08 DIIS
   @RHF iter  12:  -388.02567057172882   -9.23706e-11   9.02247e-09 DIIS
   @RHF iter  13:  -388.02567057173525   -6.42331e-12   3.36073e-09 DIIS
   @RHF iter  14:  -388.02567057173383    1.42109e-12   1.00373e-09 DIIS
   @RHF iter  15:  -388.02567057173724   -3.41061e-12   4.81115e-10 DIIS
   @RHF iter  16:  -388.02567057173866   -1.42109e-12   2.31079e-10 DIIS
   @RHF iter  17:  -388.02567057173621    2.44427e-12   8.84925e-11 DIIS
  Energy and wave function converged.

  ==> Post-Iterations <==

    Orbital Energies [Eh]
    ---------------------

    Doubly Occupied:

       1A    -11.242542     2A    -11.236383     3A    -11.235794
       4A    -11.232391     5A    -11.231705     6A    -11.231515
       7A    -11.229958     8A    -11.212121     9A    -11.206712
      10A    -11.204121    11A     -1.154064    12A     -1.047560
      13A     -1.043749    14A     -1.013916    15A     -0.932165
      16A     -0.920111    17A     -0.825735    18A     -0.797209
      19A     -0.787638    20A     -0.692890    21A     -0.632472
      22A     -0.630925    23A     -0.618384    24A     -0.590497
      25A     -0.584745    26A     -0.576450    27A     -0.562358
      28A     -0.545333    29A     -0.535245    30A     -0.526820
      31A     -0.487974    32A     -0.485640    33A     -0.483113
      34A     -0.467071    35A     -0.458039    36A     -0.456678
      37A     -0.334145    38A     -0.322097

    Virtual:

      39A      0.135119    40A      0.137957    41A      0.176242
      42A      0.194023    43A      0.204572    44A      0.213689
      45A      0.236084    46A      0.239754    47A      0.245067
      48A      0.252900    49A      0.258478    50A      0.265159
      51A      0.280455    52A      0.286456    53A      0.291066
      54A      0.303052    55A      0.309835    56A      0.349399
      57A      0.370122    58A      0.376482    59A      0.381857
      60A      0.434093    61A      0.455235    62A      0.460451
      63A      0.479161    64A      0.491352    65A      0.562303
      66A      0.582583    67A      0.601134    68A      0.604427
      69A      0.614781    70A      0.620732    71A      0.630071
      72A      0.638132    73A      0.679612    74A      0.688487
      75A      0.707635    76A      0.738259    77A      0.741189
      78A      0.743374    79A      0.752822    80A      0.756353
      81A      0.774588    82A      0.782546    83A      0.795449
      84A      0.800750    85A      0.823584    86A      0.843822
      87A      0.848575    88A      0.861527    89A      0.864476
      90A      0.875549    91A      0.889104    92A      0.893206
      93A      0.897393    94A      0.903224    95A      0.907941
      96A      0.910875    97A      0.923181    98A      0.925544
      99A      0.940350   100A      0.942929   101A      0.954181
     102A      0.959324   103A      0.967841   104A      0.983002
     105A      0.998301   106A      1.011852   107A      1.032091
     108A      1.070992   109A      1.125102   110A      1.126965
     111A      1.136560   112A      1.151067   113A      1.154147
     114A      1.174821   115A      1.185301   116A      1.229218
     117A      1.238860   118A      1.254060   119A      1.264546
     120A      1.267273   121A      1.298883   122A      1.317605
     123A      1.326147   124A      1.332423   125A      1.393612
     126A      1.418000   127A      1.477058   128A      1.496284
     129A      1.509829   130A      1.516535   131A      1.545327
     132A      1.555577   133A      1.596646   134A      1.640870
     135A      1.676994   136A      1.680095   137A      1.692219
     138A      1.695217   139A      1.702056   140A      1.746939
     141A      1.752129   142A      1.767602   143A      1.788421
     144A      1.813799   145A      1.863682   146A      1.864390
     147A      1.883638   148A      1.884867   149A      1.893839
     150A      1.902099   151A      1.906412   152A      1.913949
     153A      1.918956   154A      1.925396   155A      1.942008
     156A      1.946723   157A      1.953220   158A      1.960146
     159A      1.973772   160A      1.977949   161A      1.984913
     162A      1.992476   163A      2.006761   164A      2.009537
     165A      2.023684   166A      2.035043   167A      2.053571
     168A      2.057611   169A      2.070931   170A      2.082052
     171A      2.111065   172A      2.141128   173A      2.154011
     174A      2.161672   175A      2.168060   176A      2.173195
     177A      2.182763   178A      2.198371   179A      2.249578
     180A      2.273484   181A      2.288698   182A      2.296870
     183A      2.299509   184A      2.312320   185A      2.313718
     186A      2.359701   187A      2.363014   188A      2.371855
     189A      2.463192   190A      2.474687   191A      2.498617
     192A      2.509069   193A      2.539917   194A      2.546897
     195A      2.605832   196A      2.617026   197A      2.628559
     198A      2.642208   199A      2.738300   200A      2.755598
     201A      2.756800   202A      2.767368   203A      2.775807
     204A      2.788548   205A      2.803220   206A      2.811779
     207A      2.857807   208A      2.859657   209A      2.871562
     210A      2.941061   211A      2.977809   212A      2.993796
     213A      3.006087   214A      3.020891   215A      3.023739
     216A      3.088891   217A      3.155853   218A      3.198005
     219A      3.297480   220A      3.967645

    Final Occupation by Irrep:
              A
    DOCC [    38 ]

  @RHF Final Energy:  -388.02567057173621

   => Energetics <=

    Nuclear Repulsion Energy =            493.6350640134243690
    One-Electron Energy =               -1501.7689379759883650
    Two-Electron Energy =                 620.1082033908277253
    Total Energy =                       -388.0256705717362138

Computation Completed

Properties will be evaluated at   0.000000,   0.000000,   0.000000 [a0]

Properties computed using the SCF density matrix

  Nuclear Dipole Moment: [e a0]
     X:    -6.5826      Y:     7.7560      Z:     4.1381

  Electronic Dipole Moment: [e a0]
     X:     6.6041      Y:    -7.9412      Z:    -4.3205

  Dipole Moment: [e a0]
     X:     0.0215      Y:    -0.1851      Z:    -0.1824     Total:     0.2608

  Dipole Moment: [D]
     X:     0.0548      Y:    -0.4706      Z:    -0.4636     Total:     0.6629

*** tstop() called on ds3 at Mon Apr 27 03:37:33 2020
Module time:
	user time   =     110.07 seconds =       1.83 minutes
	system time =      39.28 seconds =       0.65 minutes
	total time  =        435 seconds =       7.25 minutes
Total time:
	user time   =     110.07 seconds =       1.83 minutes
	system time =      39.28 seconds =       0.65 minutes
	total time  =        435 seconds =       7.25 minutes
                                     G D M A

                                 by Anthony Stone

                           version 2.2.06, 22 June 2011

               Distributed Multipoles from Gaussian wavefunctions

Starting at 3:37:33 on 27 Apr 2020

Using SCF density matrix from file ./SSI/SSI-118GLN-121PHE-1-dimer.test.18615.fchk

                         Distributed Multipole Analysis

Standard DMA

Positions and radii in angstrom
Multipole moments in atomic units, ea_0^k for rank k

C          x = -1.322928  y =  1.775016  z =  1.482728 angstrom
           Maximum rank =  0   Radius =  0.650 angstrom
                   Q00  =  -0.071995

C          x = -2.560928  y =  2.678016  z =  1.616728 angstrom
           Maximum rank =  0   Radius =  0.650 angstrom
                   Q00  =  -0.219172

C          x = -0.060928  y =  2.320016  z =  2.106728 angstrom
           Maximum rank =  0   Radius =  0.650 angstrom
                   Q00  =  -0.240804

H          x = -1.514928  y =  0.824016  z =  1.953728 angstrom
           Maximum rank =  0   Radius =  0.325 angstrom
                   Q00  =   0.044591

H          x = -1.148928  y =  1.564016  z =  0.426728 angstrom
           Maximum rank =  0   Radius =  0.325 angstrom
                   Q00  =   0.052610

H          x = -2.354928  y =  3.584016  z =  1.044728 angstrom
           Maximum rank =  0   Radius =  0.325 angstrom
                   Q00  =   0.072189

H          x = -0.219928  y =  2.423016  z =  3.168728 angstrom
           Maximum rank =  0   Radius =  0.325 angstrom
                   Q00  =   0.070793

H          x =  0.741072  y =  1.604016  z =  1.976728 angstrom
           Maximum rank =  0   Radius =  0.325 angstrom
                   Q00  =   0.085576

H          x = -2.722448  y =  2.962356  z =  2.666998 angstrom
           Maximum rank =  0   Radius =  0.325 angstrom
                   Q00  =   0.064561

H          x = -3.412468  y =  2.168386  z =  1.142218 angstrom
           Maximum rank =  0   Radius =  0.325 angstrom
                   Q00  =   0.071674

H          x =  0.262492  y =  3.277786  z =  1.673048 angstrom
           Maximum rank =  0   Radius =  0.325 angstrom
                   Q00  =   0.068789

C          x = -0.611928  y = -1.964984  z = -2.752272 angstrom
           Maximum rank =  0   Radius =  0.650 angstrom
                   Q00  =  -0.199590

C          x =  1.503072  y =  0.317016  z = -0.556272 angstrom
           Maximum rank =  0   Radius =  0.650 angstrom
                   Q00  =  -0.066590

C          x =  0.782072  y = -0.172984  z = -1.639272 angstrom
           Maximum rank =  0   Radius =  0.650 angstrom
                   Q00  =  -0.053714

C          x =  1.582072  y = -0.432984  z =  0.611728 angstrom
           Maximum rank =  0   Radius =  0.650 angstrom
                   Q00  =  -0.023964

C          x =  0.123072  y = -1.402984  z = -1.557272 angstrom
           Maximum rank =  0   Radius =  0.650 angstrom
                   Q00  =  -0.102123

C          x =  0.937072  y = -1.660984  z =  0.699728 angstrom
           Maximum rank =  0   Radius =  0.650 angstrom
                   Q00  =  -0.077760

C          x =  0.219072  y = -2.149984  z = -0.383272 angstrom
           Maximum rank =  0   Radius =  0.650 angstrom
                   Q00  =  -0.085232

H          x =  2.021072  y =  1.264016  z = -0.630272 angstrom
           Maximum rank =  0   Radius =  0.325 angstrom
                   Q00  =   0.066482

H          x =  0.740072  y =  0.402016  z = -2.555272 angstrom
           Maximum rank =  0   Radius =  0.325 angstrom
                   Q00  =   0.057428

H          x =  2.167072  y = -0.072984  z =  1.446728 angstrom
           Maximum rank =  0   Radius =  0.325 angstrom
                   Q00  =   0.062297

H          x =  1.008072  y = -2.238984  z =  1.610728 angstrom
           Maximum rank =  0   Radius =  0.325 angstrom
                   Q00  =   0.064810

H          x = -0.594928  y = -3.053984  z = -2.691272 angstrom
           Maximum rank =  0   Radius =  0.325 angstrom
                   Q00  =   0.096804

H          x = -0.063928  y = -1.691984  z = -3.650272 angstrom
           Maximum rank =  0   Radius =  0.325 angstrom
                   Q00  =   0.098502

H          x = -0.273928  y = -3.109984  z = -0.311272 angstrom
           Maximum rank =  0   Radius =  0.325 angstrom
                   Q00  =   0.058552

H          x = -1.655098  y = -1.632344  z = -2.857882 angstrom
           Maximum rank =  0   Radius =  0.325 angstrom
                   Q00  =   0.105287

Total multipoles referred to origin at
           x =   0.000000,  y =    0.000000,  z =    0.000000 angstrom
                   Q00  =  -0.000000

Finished at 3:37:33 on 27 Apr 2020

  DMA results are available in the Python driver through the
	  variable('DMA DISTRIBUTED MULTIPOLES')
  and
	  variable('DMA TOTAL MULTIPOLES')
  commands.

    Psi4 stopped on: Monday, 27 April 2020 03:37AM
    Psi4 wall time for execution: 0:07:15.70

*** Psi4 exiting successfully. Buy a developer a beer!
