                               Psi4 1.3.2 release

  ==> Input File <==

--------------------------------------------------------------------------
import numpy as np
set {scf_type pk
basis cc-pvdz
d_convergence 10
gdma_switch   0
gdma_limit    0
gdma_origin   [ 0.0,  0.0,  0.0 ]
}
molecule test {
    units Angstrom
    0 1
    --
    0 1
    C               -0.465064637212437     0.651049982620685    -1.367091468147190
    C               -1.012064637212437     0.953049982620685    -2.729091468147190
    H               -0.200064637212437     1.564049982620685    -0.831091468147190
    H               -1.225064637212437     0.116049982620685    -0.796091468147190
    H                0.416935362787563     0.012049982620685    -1.439091468147190
    H               -1.376064637212437     0.034049982620685    -3.185091468147190
    H               -0.192174637212437     1.386810082620684    -3.320382468147190
    H               -1.826934637212436     1.686352182620684    -2.638205468147190
    C                0.535935362787563    -0.088950017379315     1.899908531852810
    C                0.945935362787563    -1.522950017379315     2.195908531852810
    H                0.656935362787563     0.513049982620685     2.797908531852810
    H                1.161935362787563     0.310049982620685     1.106908531852810
    H               -0.500064637212436    -0.038950017379315     1.554908531852810
    H                0.961935362787563    -2.102950017379315     1.274908531852810
    H                0.116755362787563    -1.864037017379315     2.833182531852810
    H                1.949415362787563    -1.523651017379315     2.646493531852810

}
e, wfn = energy('scf', return_wfn=True)
gdma(wfn)
dmavals = variable('DMA DISTRIBUTED MULTIPOLES')
charges = np.array(dmavals)
print(charges)
np.save('SSI-043THR-059LEU-1-dimer.npy', np.array(charges))--------------------------------------------------------------------------

*** tstart() called on ds3
*** at Sun Apr 26 22:44:22 2020

   => Loading Basis Set <=

    Name: CC-PVDZ
    Role: ORBITAL
    Keyword: BASIS
    atoms 1-2, 9-10  entry C          line   138 file /theoryfs2/ds/metcalf/miniconda2/envs/tf2gpu/share/psi4/basis/cc-pvdz.gbs
    atoms 3-8, 11-16 entry H          line    22 file /theoryfs2/ds/metcalf/miniconda2/envs/tf2gpu/share/psi4/basis/cc-pvdz.gbs

         ---------------------------------------------------------
                                   SCF
               by Justin Turney, Rob Parrish, Andy Simmonett
                          and Daniel G. A. Smith
                              RHF Reference
                        1 Threads,    500 MiB Core
         ---------------------------------------------------------

  ==> Geometry <==

    Molecular point group: c1
    Full point group: C1

    Geometry (in Angstrom), charge = 0, multiplicity = 1:

       Center              X                  Y                   Z               Mass
    ------------   -----------------  -----------------  -----------------  -----------------
         C           -0.465064637212     0.651049982621    -1.367091468147    12.000000000000
         C           -1.012064637212     0.953049982621    -2.729091468147    12.000000000000
         H           -0.200064637212     1.564049982621    -0.831091468147     1.007825032230
         H           -1.225064637212     0.116049982621    -0.796091468147     1.007825032230
         H            0.416935362788     0.012049982621    -1.439091468147     1.007825032230
         H           -1.376064637212     0.034049982621    -3.185091468147     1.007825032230
         H           -0.192174637212     1.386810082621    -3.320382468147     1.007825032230
         H           -1.826934637212     1.686352182621    -2.638205468147     1.007825032230
         C            0.535935362788    -0.088950017379     1.899908531853    12.000000000000
         C            0.945935362788    -1.522950017379     2.195908531853    12.000000000000
         H            0.656935362788     0.513049982621     2.797908531853     1.007825032230
         H            1.161935362788     0.310049982621     1.106908531853     1.007825032230
         H           -0.500064637212    -0.038950017379     1.554908531853     1.007825032230
         H            0.961935362788    -2.102950017379     1.274908531853     1.007825032230
         H            0.116755362788    -1.864037017379     2.833182531853     1.007825032230
         H            1.949415362788    -1.523651017379     2.646493531853     1.007825032230

  Running in c1 symmetry.

  Rotational constants: A =      0.66919  B =      0.04692  C =      0.04540 [cm^-1]
  Rotational constants: A =  20061.81253  B =   1406.59273  C =   1361.08688 [MHz]
  Nuclear repulsion =  123.162227656599129

  Charge       = 0
  Multiplicity = 1
  Electrons    = 36
  Nalpha       = 18
  Nbeta        = 18

  ==> Algorithm <==

  SCF Algorithm Type is PK.
  DIIS enabled.
  MOM disabled.
  Fractional occupation disabled.
  Guess Type is SAD.
  Energy threshold   = 1.00e-06
  Density threshold  = 1.00e-10
  Integral threshold = 0.00e+00

  ==> Primary Basis <==

  Basis Set: CC-PVDZ
    Blend: CC-PVDZ
    Number of shells: 60
    Number of basis function: 116
    Number of Cartesian functions: 120
    Spherical Harmonics?: true
    Max angular momentum: 2

  ==> Pre-Iterations <==

   -------------------------------------------------------
    Irrep   Nso     Nmo     Nalpha   Nbeta   Ndocc  Nsocc
   -------------------------------------------------------
     A        116     116       0       0       0       0
   -------------------------------------------------------
    Total     116     116      18      18      18       0
   -------------------------------------------------------

  ==> Integral Setup <==

  Using integral reordering PK algorithm.
  Sizing the integral batches needed.
  Building batch lookup table.
   Calculation information:
      Number of atoms:                  16
      Number of AO shells:              60
      Number of primitives:            148
      Number of atomic orbitals:       120
      Number of basis functions:       116

      Integral cutoff                 1.00e-12
      Number of threads:                 1

	Batch   1 pq = [       0,    6786] index = [             0,23028291] size =     23028291
  Task number: 3
  Buffer size: 11059200
  Buffer per thread: 2
  We computed 1431147 shell quartets total.
  Whereas there are 1675365 unique shell quartets.

  ==> DiskJK: Disk-Based J/K Matrices <==

    J tasked:                  Yes
    K tasked:                  Yes
    wK tasked:                  No
    Memory [MiB]:              375
    Schwarz Cutoff:          1E-12

    OpenMP threads:              1

  Minimum eigenvalue in the overlap matrix is 5.9274072533E-03.
  Using Symmetric Orthogonalization.

  SCF Guess: Superposition of Atomic Densities via on-the-fly atomic UHF.

  ==> Iterations <==

                        Total Energy        Delta E     RMS |[F,P]|

   @RHF iter SAD:  -157.43826035924948   -1.57438e+02   0.00000e+00
   @RHF iter   1:  -158.29606014129547   -8.57800e-01   4.28906e-03 DIIS
   @RHF iter   2:  -158.43342259509745   -1.37362e-01   1.83248e-03 DIIS
   @RHF iter   3:  -158.45772720345474   -2.43046e-02   3.54537e-04 DIIS
   @RHF iter   4:  -158.45960373166679   -1.87653e-03   3.95590e-05 DIIS
   @RHF iter   5:  -158.45962853413945   -2.48025e-05   7.03101e-06 DIIS
   @RHF iter   6:  -158.45962927001625   -7.35877e-07   1.28247e-06 DIIS
   @RHF iter   7:  -158.45962928682493   -1.68087e-08   3.69923e-07 DIIS
   @RHF iter   8:  -158.45962928825526   -1.43032e-09   5.86067e-08 DIIS
   @RHF iter   9:  -158.45962928831901   -6.37499e-11   1.33162e-08 DIIS
   @RHF iter  10:  -158.45962928832196   -2.95586e-12   3.09718e-09 DIIS
   @RHF iter  11:  -158.45962928832256   -5.96856e-13   8.93932e-10 DIIS
   @RHF iter  12:  -158.45962928832265   -8.52651e-14   2.06501e-10 DIIS
   @RHF iter  13:  -158.45962928832236    2.84217e-13   3.22168e-11 DIIS
  Energy and wave function converged.

  ==> Post-Iterations <==

    Orbital Energies [Eh]
    ---------------------

    Doubly Occupied:

       1A    -11.217453     2A    -11.216731     3A    -11.213858
       4A    -11.211744     5A     -1.026905     6A     -1.020771
       7A     -0.835745     8A     -0.826911     9A     -0.607028
      10A     -0.603755    11A     -0.600218    12A     -0.599295
      13A     -0.507079    14A     -0.498321    15A     -0.487736
      16A     -0.484649    17A     -0.476621    18A     -0.473022

    Virtual:

      19A      0.174046    20A      0.194690    21A      0.230367
      22A      0.231147    23A      0.240329    24A      0.258583
      25A      0.262682    26A      0.277107    27A      0.282742
      28A      0.296202    29A      0.309387    30A      0.334877
      31A      0.396938    32A      0.403356    33A      0.566287
      34A      0.590239    35A      0.606000    36A      0.609859
      37A      0.621225    38A      0.627508    39A      0.670653
      40A      0.689438    41A      0.697565    42A      0.781724
      43A      0.847937    44A      0.871963    45A      0.886958
      46A      0.890427    47A      0.895655    48A      0.896753
      49A      0.902563    50A      0.914612    51A      0.915852
      52A      0.927281    53A      0.934453    54A      0.953318
      55A      0.972904    56A      1.000773    57A      1.116821
      58A      1.132530    59A      1.137971    60A      1.160853
      61A      1.225426    62A      1.273478    63A      1.478855
      64A      1.488175    65A      1.500485    66A      1.507193
      67A      1.575439    68A      1.586928    69A      1.657949
      70A      1.673289    71A      1.693058    72A      1.696751
      73A      1.833709    74A      1.849340    75A      1.866992
      76A      1.880856    77A      1.906606    78A      1.936575
      79A      1.941041    80A      1.947002    81A      1.949561
      82A      1.954554    83A      1.963668    84A      1.968959
      85A      1.975651    86A      1.989566    87A      2.021436
      88A      2.053380    89A      2.095494    90A      2.108389
      91A      2.135360    92A      2.168270    93A      2.261503
      94A      2.295840    95A      2.321196    96A      2.359623
      97A      2.452516    98A      2.456929    99A      2.468718
     100A      2.479882   101A      2.566696   102A      2.579769
     103A      2.587162   104A      2.604296   105A      2.764279
     106A      2.775233   107A      2.788817   108A      2.803704
     109A      2.811496   110A      2.833890   111A      2.848896
     112A      2.861268   113A      2.951140   114A      2.957684
     115A      2.962308   116A      2.981216

    Final Occupation by Irrep:
              A
    DOCC [    18 ]

  @RHF Final Energy:  -158.45962928832236

   => Energetics <=

    Nuclear Repulsion Energy =            123.1622276565991285
    One-Electron Energy =                -455.4280316410001888
    Two-Electron Energy =                 173.8061746960786706
    Total Energy =                       -158.4596292883223612

Computation Completed

Properties will be evaluated at   0.000000,   0.000000,   0.000000 [a0]

Properties computed using the SCF density matrix

  Nuclear Dipole Moment: [e a0]
     X:    -0.0529      Y:     0.0871      Z:     0.0041

  Electronic Dipole Moment: [e a0]
     X:     0.0465      Y:    -0.0732      Z:    -0.0188

  Dipole Moment: [e a0]
     X:    -0.0064      Y:     0.0138      Z:    -0.0147     Total:     0.0212

  Dipole Moment: [D]
     X:    -0.0164      Y:     0.0352      Z:    -0.0374     Total:     0.0539

*** tstop() called on ds3 at Sun Apr 26 22:44:35 2020
Module time:
	user time   =       8.04 seconds =       0.13 minutes
	system time =       2.98 seconds =       0.05 minutes
	total time  =         13 seconds =       0.22 minutes
Total time:
	user time   =       8.04 seconds =       0.13 minutes
	system time =       2.98 seconds =       0.05 minutes
	total time  =         13 seconds =       0.22 minutes
                                     G D M A

                                 by Anthony Stone

                           version 2.2.06, 22 June 2011

               Distributed Multipoles from Gaussian wavefunctions

Starting at 22:44:35 on 26 Apr 2020

Using SCF density matrix from file ./SSI/SSI-043THR-059LEU-1-dimer.test.18543.fchk

                         Distributed Multipole Analysis

Standard DMA

Positions and radii in angstrom
Multipole moments in atomic units, ea_0^k for rank k

C          x = -0.465065  y =  0.651050  z = -1.367091 angstrom
           Maximum rank =  0   Radius =  0.650 angstrom
                   Q00  =  -0.243600

C          x = -1.012065  y =  0.953050  z = -2.729091 angstrom
           Maximum rank =  0   Radius =  0.650 angstrom
                   Q00  =  -0.208796

H          x = -0.200065  y =  1.564050  z = -0.831091 angstrom
           Maximum rank =  0   Radius =  0.325 angstrom
                   Q00  =   0.077621

H          x = -1.225065  y =  0.116050  z = -0.796091 angstrom
           Maximum rank =  0   Radius =  0.325 angstrom
                   Q00  =   0.071139

H          x =  0.416935  y =  0.012050  z = -1.439091 angstrom
           Maximum rank =  0   Radius =  0.325 angstrom
                   Q00  =   0.073875

H          x = -1.376065  y =  0.034050  z = -3.185091 angstrom
           Maximum rank =  0   Radius =  0.325 angstrom
                   Q00  =   0.079983

H          x = -0.192175  y =  1.386810  z = -3.320382 angstrom
           Maximum rank =  0   Radius =  0.325 angstrom
                   Q00  =   0.073236

H          x = -1.826935  y =  1.686352  z = -2.638205 angstrom
           Maximum rank =  0   Radius =  0.325 angstrom
                   Q00  =   0.076719

C          x =  0.535935  y = -0.088950  z =  1.899909 angstrom
           Maximum rank =  0   Radius =  0.650 angstrom
                   Q00  =  -0.223785

C          x =  0.945935  y = -1.522950  z =  2.195909 angstrom
           Maximum rank =  0   Radius =  0.650 angstrom
                   Q00  =  -0.214301

H          x =  0.656935  y =  0.513050  z =  2.797909 angstrom
           Maximum rank =  0   Radius =  0.325 angstrom
                   Q00  =   0.075853

H          x =  1.161935  y =  0.310050  z =  1.106909 angstrom
           Maximum rank =  0   Radius =  0.325 angstrom
                   Q00  =   0.073879

H          x = -0.500065  y = -0.038950  z =  1.554909 angstrom
           Maximum rank =  0   Radius =  0.325 angstrom
                   Q00  =   0.076387

H          x =  0.961935  y = -2.102950  z =  1.274909 angstrom
           Maximum rank =  0   Radius =  0.325 angstrom
                   Q00  =   0.078759

H          x =  0.116755  y = -1.864037  z =  2.833183 angstrom
           Maximum rank =  0   Radius =  0.325 angstrom
                   Q00  =   0.063203

H          x =  1.949415  y = -1.523651  z =  2.646494 angstrom
           Maximum rank =  0   Radius =  0.325 angstrom
                   Q00  =   0.069828

Total multipoles referred to origin at
           x =   0.000000,  y =    0.000000,  z =    0.000000 angstrom
                   Q00  =  -0.000000

Finished at 22:44:35 on 26 Apr 2020

  DMA results are available in the Python driver through the
	  variable('DMA DISTRIBUTED MULTIPOLES')
  and
	  variable('DMA TOTAL MULTIPOLES')
  commands.

    Psi4 stopped on: Sunday, 26 April 2020 10:44PM
    Psi4 wall time for execution: 0:00:12.20

*** Psi4 exiting successfully. Buy a developer a beer!
