                               Psi4 1.3.2 release

  ==> Input File <==

--------------------------------------------------------------------------
import numpy as np
set {scf_type pk
basis cc-pvdz
d_convergence 10
gdma_switch   0
gdma_limit    0
gdma_origin   [ 0.0,  0.0,  0.0 ]
}
molecule test {
    units Angstrom
    -1 1
    --
    -1 1
    C               -0.096909106627914    -1.077620196710034    -1.950473978158193
    C                0.020090893372086    -2.608620196710034    -1.988473978158194
    C               -1.532909106627914    -0.626620196710034    -1.793473978158193
    H                0.538090893372086    -0.664620196710034    -1.178473978158193
    H                0.294090893372086    -0.684620196710034    -2.889473978158194
    H                1.069090893372086    -2.894620196710033    -2.094473978158193
    H               -2.243909106627914    -1.363620196710034    -2.157473978158194
    H               -1.729909106627914    -0.489620196710034    -0.737473978158194
    H               -0.568299106627914    -3.005875196710034    -2.828705978158194
    H               -0.386379106627914    -3.068363196710034    -1.075556978158194
    H               -1.710959106627914     0.307232803289966    -2.346840978158193
    C                1.353090893372086     1.606379803289966     2.334526021841806
    C                0.367090893372086     1.041379803289966     1.363526021841806
    O                0.433090893372086    -0.166620196710034     1.112526021841806
    O               -0.511909106627914     1.830379803289966     0.879526021841806
    H                0.876090893372086     1.549379803289966     3.315526021841806
    H                1.494090893372086     2.673379803289967     2.164526021841807
    H                2.303740893372086     1.062346803289966     2.436004021841807

}
e, wfn = energy('scf', return_wfn=True)
gdma(wfn)
dmavals = variable('DMA DISTRIBUTED MULTIPOLES')
charges = np.array(dmavals)
print(charges)
np.save('SSI-051GLN-089GLU-1-dimer.npy', np.array(charges))--------------------------------------------------------------------------

*** tstart() called on ds3
*** at Mon Apr 27 19:25:44 2020

   => Loading Basis Set <=

    Name: CC-PVDZ
    Role: ORBITAL
    Keyword: BASIS
    atoms 1-3, 12-13  entry C          line   138 file /theoryfs2/ds/metcalf/miniconda2/envs/tf2gpu/share/psi4/basis/cc-pvdz.gbs
    atoms 4-11, 16-18 entry H          line    22 file /theoryfs2/ds/metcalf/miniconda2/envs/tf2gpu/share/psi4/basis/cc-pvdz.gbs
    atoms 14-15       entry O          line   198 file /theoryfs2/ds/metcalf/miniconda2/envs/tf2gpu/share/psi4/basis/cc-pvdz.gbs

         ---------------------------------------------------------
                                   SCF
               by Justin Turney, Rob Parrish, Andy Simmonett
                          and Daniel G. A. Smith
                              RHF Reference
                        1 Threads,    500 MiB Core
         ---------------------------------------------------------

  ==> Geometry <==

    Molecular point group: c1
    Full point group: C1

    Geometry (in Angstrom), charge = -1, multiplicity = 1:

       Center              X                  Y                   Z               Mass
    ------------   -----------------  -----------------  -----------------  -----------------
         C           -0.096909106628    -1.077620196710    -1.950473978158    12.000000000000
         C            0.020090893372    -2.608620196710    -1.988473978158    12.000000000000
         C           -1.532909106628    -0.626620196710    -1.793473978158    12.000000000000
         H            0.538090893372    -0.664620196710    -1.178473978158     1.007825032230
         H            0.294090893372    -0.684620196710    -2.889473978158     1.007825032230
         H            1.069090893372    -2.894620196710    -2.094473978158     1.007825032230
         H           -2.243909106628    -1.363620196710    -2.157473978158     1.007825032230
         H           -1.729909106628    -0.489620196710    -0.737473978158     1.007825032230
         H           -0.568299106628    -3.005875196710    -2.828705978158     1.007825032230
         H           -0.386379106628    -3.068363196710    -1.075556978158     1.007825032230
         H           -1.710959106628     0.307232803290    -2.346840978158     1.007825032230
         C            1.353090893372     1.606379803290     2.334526021842    12.000000000000
         C            0.367090893372     1.041379803290     1.363526021842    12.000000000000
         O            0.433090893372    -0.166620196710     1.112526021842    15.994914619570
         O           -0.511909106628     1.830379803290     0.879526021842    15.994914619570
         H            0.876090893372     1.549379803290     3.315526021842     1.007825032230
         H            1.494090893372     2.673379803290     2.164526021842     1.007825032230
         H            2.303740893372     1.062346803290     2.436004021842     1.007825032230

  Running in c1 symmetry.

  Rotational constants: A =      0.15927  B =      0.03131  C =      0.02761 [cm^-1]
  Rotational constants: A =   4774.88288  B =    938.67316  C =    827.79932 [MHz]
  Nuclear repulsion =  292.621419726117551

  Charge       = -1
  Multiplicity = 1
  Electrons    = 58
  Nalpha       = 29
  Nbeta        = 29

  ==> Algorithm <==

  SCF Algorithm Type is PK.
  DIIS enabled.
  MOM disabled.
  Fractional occupation disabled.
  Guess Type is SAD.
  Energy threshold   = 1.00e-06
  Density threshold  = 1.00e-10
  Integral threshold = 0.00e+00

  ==> Primary Basis <==

  Basis Set: CC-PVDZ
    Blend: CC-PVDZ
    Number of shells: 75
    Number of basis function: 153
    Number of Cartesian functions: 160
    Spherical Harmonics?: true
    Max angular momentum: 2

  ==> Pre-Iterations <==

   -------------------------------------------------------
    Irrep   Nso     Nmo     Nalpha   Nbeta   Ndocc  Nsocc
   -------------------------------------------------------
     A        153     153       0       0       0       0
   -------------------------------------------------------
    Total     153     153      29      29      29       0
   -------------------------------------------------------

  ==> Integral Setup <==

  Using integral reordering PK algorithm.
  Sizing the integral batches needed.
  Building batch lookup table.
   Calculation information:
      Number of atoms:                  18
      Number of AO shells:              75
      Number of primitives:            209
      Number of atomic orbitals:       160
      Number of basis functions:       153

      Integral cutoff                 1.00e-12
      Number of threads:                 1

	Batch   1 pq = [       0,    9405] index = [             0,44231715] size =     44231715
	Batch   2 pq = [    9405,   11781] index = [      44231715,69401871] size =     25170156
  Task number: 7
  Buffer size: 11059200
  Buffer per thread: 2
  We computed 3348989 shell quartets total.
  Whereas there are 4062675 unique shell quartets.

  ==> DiskJK: Disk-Based J/K Matrices <==

    J tasked:                  Yes
    K tasked:                  Yes
    wK tasked:                  No
    Memory [MiB]:              375
    Schwarz Cutoff:          1E-12

    OpenMP threads:              1

  Minimum eigenvalue in the overlap matrix is 4.8805065887E-03.
  Using Symmetric Orthogonalization.

  SCF Guess: Superposition of Atomic Densities via on-the-fly atomic UHF.

  ==> Iterations <==

                        Total Energy        Delta E     RMS |[F,P]|

   @RHF iter SAD:  -343.90761113558102   -3.43908e+02   0.00000e+00
   @RHF iter   1:  -345.20932707800119   -1.30172e+00   4.98631e-03 DIIS
   @RHF iter   2:  -345.44091901052519   -2.31592e-01   2.77452e-03 DIIS
   @RHF iter   3:  -345.50929117233187   -6.83722e-02   4.30419e-04 DIIS
   @RHF iter   4:  -345.51229324361157   -3.00207e-03   1.63656e-04 DIIS
   @RHF iter   5:  -345.51272153786459   -4.28294e-04   2.64901e-05 DIIS
   @RHF iter   6:  -345.51273412690080   -1.25890e-05   9.24645e-06 DIIS
   @RHF iter   7:  -345.51273533776191   -1.21086e-06   3.13510e-06 DIIS
   @RHF iter   8:  -345.51273545977938   -1.22017e-07   7.76902e-07 DIIS
   @RHF iter   9:  -345.51273547227783   -1.24984e-08   2.70663e-07 DIIS
   @RHF iter  10:  -345.51273547410710   -1.82928e-09   8.66656e-08 DIIS
   @RHF iter  11:  -345.51273547440843   -3.01327e-10   3.00927e-08 DIIS
   @RHF iter  12:  -345.51273547444487   -3.64366e-11   8.66975e-09 DIIS
   @RHF iter  13:  -345.51273547445123   -6.36646e-12   2.27274e-09 DIIS
   @RHF iter  14:  -345.51273547444998    1.25056e-12   6.30394e-10 DIIS
   @RHF iter  15:  -345.51273547444993    5.68434e-14   1.65196e-10 DIIS
   @RHF iter  16:  -345.51273547444941    5.11591e-13   5.76723e-11 DIIS
  Energy and wave function converged.

  ==> Post-Iterations <==

    Orbital Energies [Eh]
    ---------------------

    Doubly Occupied:

       1A    -20.270251     2A    -20.257672     3A    -11.119505
       4A    -11.094056     5A    -11.070309     6A    -11.066453
       7A    -11.051669     8A     -1.153073     9A     -1.036760
      10A     -0.914072    11A     -0.803998    12A     -0.787939
      13A     -0.659637    14A     -0.510500    15A     -0.479442
      16A     -0.462006    17A     -0.416820    18A     -0.414985
      19A     -0.408679    20A     -0.407621    21A     -0.394342
      22A     -0.348616    23A     -0.340776    24A     -0.327942
      25A     -0.317516    26A     -0.298019    27A     -0.187229
      28A     -0.175853    29A     -0.164871

    Virtual:

      30A      0.311662    31A      0.351244    32A      0.354671
      33A      0.357364    34A      0.381212    35A      0.392237
      36A      0.395404    37A      0.411973    38A      0.423151
      39A      0.448729    40A      0.471528    41A      0.485928
      42A      0.531561    43A      0.560683    44A      0.576689
      45A      0.686022    46A      0.709166    47A      0.726426
      48A      0.744521    49A      0.763257    50A      0.771422
      51A      0.795015    52A      0.825291    53A      0.901828
      54A      0.919527    55A      0.948021    56A      0.962382
      57A      0.978909    58A      0.997859    59A      1.008605
      60A      1.014308    61A      1.022866    62A      1.028380
      63A      1.029239    64A      1.036020    65A      1.041426
      66A      1.054593    67A      1.062958    68A      1.066721
      69A      1.090389    70A      1.131475    71A      1.142270
      72A      1.158439    73A      1.223827    74A      1.244387
      75A      1.250135    76A      1.329529    77A      1.347393
      78A      1.363495    79A      1.422639    80A      1.513570
      81A      1.542422    82A      1.550746    83A      1.580062
      84A      1.585853    85A      1.627138    86A      1.634800
      87A      1.648620    88A      1.662822    89A      1.731027
      90A      1.757688    91A      1.800677    92A      1.806257
      93A      1.825060    94A      1.841942    95A      1.858832
      96A      1.864733    97A      1.986858    98A      2.004612
      99A      2.018645   100A      2.048145   101A      2.052939
     102A      2.075480   103A      2.079170   104A      2.093186
     105A      2.112131   106A      2.115498   107A      2.127417
     108A      2.139715   109A      2.140791   110A      2.148834
     111A      2.157697   112A      2.188673   113A      2.197998
     114A      2.266494   115A      2.290748   116A      2.331374
     117A      2.372827   118A      2.400772   119A      2.445588
     120A      2.451859   121A      2.455215   122A      2.481270
     123A      2.522754   124A      2.563550   125A      2.609563
     126A      2.652725   127A      2.683679   128A      2.704179
     129A      2.711548   130A      2.756201   131A      2.765105
     132A      2.791902   133A      2.879528   134A      2.908064
     135A      2.912100   136A      2.936121   137A      2.976205
     138A      2.984399   139A      3.002019   140A      3.067589
     141A      3.073494   142A      3.110819   143A      3.212789
     144A      3.241348   145A      3.274277   146A      3.299364
     147A      3.359724   148A      3.619296   149A      3.796910
     150A      3.851625   151A      4.045494   152A      4.104066
     153A      4.200277

    Final Occupation by Irrep:
              A
    DOCC [    29 ]

  @RHF Final Energy:  -345.51273547444941

   => Energetics <=

    Nuclear Repulsion Energy =            292.6214197261175514
    One-Electron Energy =               -1062.3870907377365711
    Two-Electron Energy =                 424.2529355371696056
    Total Energy =                       -345.5127354744494141

Computation Completed

Properties will be evaluated at   0.000000,   0.000000,   0.000000 [a0]

Properties computed using the SCF density matrix

  Nuclear Dipole Moment: [e a0]
     X:    -0.0606      Y:    -6.1596      Z:    -6.9206

  Electronic Dipole Moment: [e a0]
     X:     0.4832      Y:     5.0438      Z:     5.8645

  Dipole Moment: [e a0]
     X:     0.4226      Y:    -1.1158      Z:    -1.0561     Total:     1.5934

  Dipole Moment: [D]
     X:     1.0740      Y:    -2.8362      Z:    -2.6844     Total:     4.0501

*** tstop() called on ds3 at Mon Apr 27 19:26:29 2020
Module time:
	user time   =      23.60 seconds =       0.39 minutes
	system time =       8.66 seconds =       0.14 minutes
	total time  =         45 seconds =       0.75 minutes
Total time:
	user time   =      23.60 seconds =       0.39 minutes
	system time =       8.66 seconds =       0.14 minutes
	total time  =         45 seconds =       0.75 minutes
                                     G D M A

                                 by Anthony Stone

                           version 2.2.06, 22 June 2011

               Distributed Multipoles from Gaussian wavefunctions

Starting at 19:26:29 on 27 Apr 2020

Using SCF density matrix from file ./SSI/SSI-051GLN-089GLU-1-dimer.test.6247.fchk

                         Distributed Multipole Analysis

Standard DMA

Positions and radii in angstrom
Multipole moments in atomic units, ea_0^k for rank k

C          x = -0.096909  y = -1.077620  z = -1.950474 angstrom
           Maximum rank =  0   Radius =  0.650 angstrom
                   Q00  =  -0.064515

C          x =  0.020091  y = -2.608620  z = -1.988474 angstrom
           Maximum rank =  0   Radius =  0.650 angstrom
                   Q00  =  -0.235506

C          x = -1.532909  y = -0.626620  z = -1.793474 angstrom
           Maximum rank =  0   Radius =  0.650 angstrom
                   Q00  =  -0.211435

H          x =  0.538091  y = -0.664620  z = -1.178474 angstrom
           Maximum rank =  0   Radius =  0.325 angstrom
                   Q00  =   0.118427

H          x =  0.294091  y = -0.684620  z = -2.889474 angstrom
           Maximum rank =  0   Radius =  0.325 angstrom
                   Q00  =  -0.012056

H          x =  1.069091  y = -2.894620  z = -2.094474 angstrom
           Maximum rank =  0   Radius =  0.325 angstrom
                   Q00  =   0.061031

H          x = -2.243909  y = -1.363620  z = -2.157474 angstrom
           Maximum rank =  0   Radius =  0.325 angstrom
                   Q00  =   0.014050

H          x = -1.729909  y = -0.489620  z = -0.737474 angstrom
           Maximum rank =  0   Radius =  0.325 angstrom
                   Q00  =   0.124418

H          x = -0.568299  y = -3.005875  z = -2.828706 angstrom
           Maximum rank =  0   Radius =  0.325 angstrom
                   Q00  =   0.036110

H          x = -0.386379  y = -3.068363  z = -1.075557 angstrom
           Maximum rank =  0   Radius =  0.325 angstrom
                   Q00  =   0.079497

H          x = -1.710959  y =  0.307233  z = -2.346841 angstrom
           Maximum rank =  0   Radius =  0.325 angstrom
                   Q00  =   0.067391

C          x =  1.353091  y =  1.606380  z =  2.334526 angstrom
           Maximum rank =  0   Radius =  0.650 angstrom
                   Q00  =  -0.255066

C          x =  0.367091  y =  1.041380  z =  1.363526 angstrom
           Maximum rank =  0   Radius =  0.650 angstrom
                   Q00  =   0.930125

O          x =  0.433091  y = -0.166620  z =  1.112526 angstrom
           Maximum rank =  0   Radius =  0.650 angstrom
                   Q00  =  -0.891681

O          x = -0.511909  y =  1.830380  z =  0.879526 angstrom
           Maximum rank =  0   Radius =  0.650 angstrom
                   Q00  =  -0.943826

H          x =  0.876091  y =  1.549380  z =  3.315526 angstrom
           Maximum rank =  0   Radius =  0.325 angstrom
                   Q00  =   0.077089

H          x =  1.494091  y =  2.673380  z =  2.164526 angstrom
           Maximum rank =  0   Radius =  0.325 angstrom
                   Q00  =   0.055146

H          x =  2.303741  y =  1.062347  z =  2.436004 angstrom
           Maximum rank =  0   Radius =  0.325 angstrom
                   Q00  =   0.050801

Total multipoles referred to origin at
           x =   0.000000,  y =    0.000000,  z =    0.000000 angstrom
                   Q00  =  -1.000000

Finished at 19:26:29 on 27 Apr 2020

  DMA results are available in the Python driver through the
	  variable('DMA DISTRIBUTED MULTIPOLES')
  and
	  variable('DMA TOTAL MULTIPOLES')
  commands.

    Psi4 stopped on: Monday, 27 April 2020 07:26PM
    Psi4 wall time for execution: 0:00:44.68

*** Psi4 exiting successfully. Buy a developer a beer!
