                               Psi4 1.3.2 release

  ==> Input File <==

--------------------------------------------------------------------------
import numpy as np
set {scf_type pk
basis cc-pvdz
d_convergence 10
gdma_switch   0
gdma_limit    0
gdma_origin   [ 0.0,  0.0,  0.0 ]
}
molecule test {
    units Angstrom
    0 1
    --
    0 1
    C                0.552760401089939     1.897598833728236     2.085350319512928
    C                0.567760401089939     1.414598833728236     0.638350319512928
    O               -0.467239598910061     0.952598833728236     0.099350319512928
    O                1.651760401089939     1.479598833728236     0.022350319512928
    H                0.802760401089939     2.956598833728236     2.139350319512928
    H                1.349760401089939     1.366598833728236     2.608350319512928
    H               -0.379939598910061     1.677418833728236     2.625340319512928
    C               -1.332239598910061    -2.011401166271764    -0.883649680487072
    C               -0.292239598910061    -2.580401166271764     0.053350319512928
    N               -0.656239598910061    -1.044401166271764    -1.795649680487072
    H               -1.796239598910061    -2.822401166271764    -1.455649680487072
    H               -2.112239598910061    -1.503401166271764    -0.302649680487072
    H                0.244760401089939    -1.759401166271764     0.536350319512928
    H                0.428760401089939    -3.181401166271764    -0.504649680487072
    H                0.168760401089939    -1.438401166271764    -2.234649680487072
    H               -1.271239598910061    -0.732401166271764    -2.540649680487072
    H               -0.367239598910061    -0.226401166271764    -1.244649680487072
    H               -0.748539598910061    -3.190241166271764     0.847010319512928

}
e, wfn = energy('scf', return_wfn=True)
gdma(wfn)
dmavals = variable('DMA DISTRIBUTED MULTIPOLES')
charges = np.array(dmavals)
print(charges)
np.save('SSI-030GLU-061LYS-1-dimer.npy', np.array(charges))--------------------------------------------------------------------------

*** tstart() called on ds3
*** at Mon Apr 27 21:35:29 2020

   => Loading Basis Set <=

    Name: CC-PVDZ
    Role: ORBITAL
    Keyword: BASIS
    atoms 1-2, 8-9   entry C          line   138 file /theoryfs2/ds/metcalf/miniconda2/envs/tf2gpu/share/psi4/basis/cc-pvdz.gbs
    atoms 3-4        entry O          line   198 file /theoryfs2/ds/metcalf/miniconda2/envs/tf2gpu/share/psi4/basis/cc-pvdz.gbs
    atoms 5-7, 11-18 entry H          line    22 file /theoryfs2/ds/metcalf/miniconda2/envs/tf2gpu/share/psi4/basis/cc-pvdz.gbs
    atoms 10         entry N          line   168 file /theoryfs2/ds/metcalf/miniconda2/envs/tf2gpu/share/psi4/basis/cc-pvdz.gbs

         ---------------------------------------------------------
                                   SCF
               by Justin Turney, Rob Parrish, Andy Simmonett
                          and Daniel G. A. Smith
                              RHF Reference
                        1 Threads,    500 MiB Core
         ---------------------------------------------------------

  ==> Geometry <==

    Molecular point group: c1
    Full point group: C1

    Geometry (in Angstrom), charge = 0, multiplicity = 1:

       Center              X                  Y                   Z               Mass
    ------------   -----------------  -----------------  -----------------  -----------------
         C            0.552760401090     1.897598833728     2.085350319513    12.000000000000
         C            0.567760401090     1.414598833728     0.638350319513    12.000000000000
         O           -0.467239598910     0.952598833728     0.099350319513    15.994914619570
         O            1.651760401090     1.479598833728     0.022350319513    15.994914619570
         H            0.802760401090     2.956598833728     2.139350319513     1.007825032230
         H            1.349760401090     1.366598833728     2.608350319513     1.007825032230
         H           -0.379939598910     1.677418833728     2.625340319513     1.007825032230
         C           -1.332239598910    -2.011401166272    -0.883649680487    12.000000000000
         C           -0.292239598910    -2.580401166272     0.053350319513    12.000000000000
         N           -0.656239598910    -1.044401166272    -1.795649680487    14.003074004430
         H           -1.796239598910    -2.822401166272    -1.455649680487     1.007825032230
         H           -2.112239598910    -1.503401166272    -0.302649680487     1.007825032230
         H            0.244760401090    -1.759401166272     0.536350319513     1.007825032230
         H            0.428760401090    -3.181401166272    -0.504649680487     1.007825032230
         H            0.168760401090    -1.438401166272    -2.234649680487     1.007825032230
         H           -1.271239598910    -0.732401166272    -2.540649680487     1.007825032230
         H           -0.367239598910    -0.226401166272    -1.244649680487     1.007825032230
         H           -0.748539598910    -3.190241166272     0.847010319513     1.007825032230

  Running in c1 symmetry.

  Rotational constants: A =      0.13987  B =      0.03539  C =      0.03306 [cm^-1]
  Rotational constants: A =   4193.17355  B =   1060.85520  C =    991.24333 [MHz]
  Nuclear repulsion =  312.902665499771729

  Charge       = 0
  Multiplicity = 1
  Electrons    = 58
  Nalpha       = 29
  Nbeta        = 29

  ==> Algorithm <==

  SCF Algorithm Type is PK.
  DIIS enabled.
  MOM disabled.
  Fractional occupation disabled.
  Guess Type is SAD.
  Energy threshold   = 1.00e-06
  Density threshold  = 1.00e-10
  Integral threshold = 0.00e+00

  ==> Primary Basis <==

  Basis Set: CC-PVDZ
    Blend: CC-PVDZ
    Number of shells: 75
    Number of basis function: 153
    Number of Cartesian functions: 160
    Spherical Harmonics?: true
    Max angular momentum: 2

  ==> Pre-Iterations <==

   -------------------------------------------------------
    Irrep   Nso     Nmo     Nalpha   Nbeta   Ndocc  Nsocc
   -------------------------------------------------------
     A        153     153       0       0       0       0
   -------------------------------------------------------
    Total     153     153      29      29      29       0
   -------------------------------------------------------

  ==> Integral Setup <==

  Using integral reordering PK algorithm.
  Sizing the integral batches needed.
  Building batch lookup table.
   Calculation information:
      Number of atoms:                  18
      Number of AO shells:              75
      Number of primitives:            209
      Number of atomic orbitals:       160
      Number of basis functions:       153

      Integral cutoff                 1.00e-12
      Number of threads:                 1

	Batch   1 pq = [       0,    9405] index = [             0,44231715] size =     44231715
	Batch   2 pq = [    9405,   11781] index = [      44231715,69401871] size =     25170156
  Task number: 7
  Buffer size: 11059200
  Buffer per thread: 2
  We computed 3623767 shell quartets total.
  Whereas there are 4062675 unique shell quartets.

  ==> DiskJK: Disk-Based J/K Matrices <==

    J tasked:                  Yes
    K tasked:                  Yes
    wK tasked:                  No
    Memory [MiB]:              375
    Schwarz Cutoff:          1E-12

    OpenMP threads:              1

  Minimum eigenvalue in the overlap matrix is 5.1410853906E-03.
  Using Symmetric Orthogonalization.

  SCF Guess: Superposition of Atomic Densities via on-the-fly atomic UHF.

  ==> Iterations <==

                        Total Energy        Delta E     RMS |[F,P]|

   @RHF iter SAD:  -360.76027573481343   -3.60760e+02   0.00000e+00
   @RHF iter   1:  -361.79683495577740   -1.03656e+00   4.64633e-03 DIIS
   @RHF iter   2:  -361.99596262235718   -1.99128e-01   2.52357e-03 DIIS
   @RHF iter   3:  -362.05012131975786   -5.41587e-02   4.36381e-04 DIIS
   @RHF iter   4:  -362.05310395971827   -2.98264e-03   1.52659e-04 DIIS
   @RHF iter   5:  -362.05345710601102   -3.53146e-04   2.99036e-05 DIIS
   @RHF iter   6:  -362.05347426096654   -1.71550e-05   1.59956e-05 DIIS
   @RHF iter   7:  -362.05347748016231   -3.21920e-06   3.55485e-06 DIIS
   @RHF iter   8:  -362.05347799705584   -5.16894e-07   1.69324e-06 DIIS
   @RHF iter   9:  -362.05347810024415   -1.03188e-07   5.47591e-07 DIIS
   @RHF iter  10:  -362.05347811154434   -1.13002e-08   1.57921e-07 DIIS
   @RHF iter  11:  -362.05347811232934   -7.85008e-10   3.54829e-08 DIIS
   @RHF iter  12:  -362.05347811236550   -3.61524e-11   8.54537e-09 DIIS
   @RHF iter  13:  -362.05347811236675   -1.25056e-12   2.57099e-09 DIIS
   @RHF iter  14:  -362.05347811236675    0.00000e+00   1.01207e-09 DIIS
   @RHF iter  15:  -362.05347811236572    1.02318e-12   3.85495e-10 DIIS
   @RHF iter  16:  -362.05347811236692   -1.19371e-12   1.83515e-10 DIIS
   @RHF iter  17:  -362.05347811236675    1.70530e-13   7.78840e-11 DIIS
  Energy and wave function converged.

  ==> Post-Iterations <==

    Orbital Energies [Eh]
    ---------------------

    Doubly Occupied:

       1A    -20.434481     2A    -20.406530     3A    -15.718283
       4A    -11.334851     5A    -11.269182     6A    -11.266567
       7A    -11.174567     8A     -1.347030     9A     -1.310888
      10A     -1.193033    11A     -1.074124    12A     -0.923824
      13A     -0.906652    14A     -0.803189    15A     -0.795485
      16A     -0.702761    17A     -0.654948    18A     -0.641885
      19A     -0.580879    20A     -0.565044    21A     -0.559227
      22A     -0.548169    23A     -0.544454    24A     -0.535768
      25A     -0.482098    26A     -0.452854    27A     -0.349279
      28A     -0.322874    29A     -0.322000

    Virtual:

      30A      0.109738    31A      0.162508    32A      0.166063
      33A      0.199224    34A      0.221562    35A      0.232319
      36A      0.245976    37A      0.273872    38A      0.277029
      39A      0.303497    40A      0.308324    41A      0.334026
      42A      0.349811    43A      0.374579    44A      0.450382
      45A      0.521657    46A      0.544940    47A      0.548517
      48A      0.570848    49A      0.581811    50A      0.604815
      51A      0.625800    52A      0.692737    53A      0.745566
      54A      0.758453    55A      0.770661    56A      0.790118
      57A      0.802791    58A      0.819990    59A      0.834360
      60A      0.839596    61A      0.849557    62A      0.854664
      63A      0.883719    64A      0.894460    65A      0.908477
      66A      0.913408    67A      0.936351    68A      0.965942
      69A      0.970044    70A      0.996141    71A      1.004531
      72A      1.025285    73A      1.077926    74A      1.098776
      75A      1.125107    76A      1.193796    77A      1.208642
      78A      1.254312    79A      1.301607    80A      1.354115
      81A      1.383416    82A      1.416442    83A      1.428544
      84A      1.454874    85A      1.469876    86A      1.473281
      87A      1.517724    88A      1.567981    89A      1.575862
      90A      1.602688    91A      1.617923    92A      1.653822
      93A      1.682542    94A      1.721546    95A      1.730323
      96A      1.790674    97A      1.802504    98A      1.850522
      99A      1.865323   100A      1.870035   101A      1.897719
     102A      1.906424   103A      1.920496   104A      1.931394
     105A      1.950464   106A      1.965800   107A      1.983954
     108A      2.006109   109A      2.046736   110A      2.057410
     111A      2.082381   112A      2.105773   113A      2.135269
     114A      2.149524   115A      2.170603   116A      2.193548
     117A      2.222084   118A      2.265512   119A      2.306254
     120A      2.310687   121A      2.319902   122A      2.355814
     123A      2.449804   124A      2.461414   125A      2.511824
     126A      2.519651   127A      2.528984   128A      2.569095
     129A      2.626299   130A      2.650511   131A      2.688675
     132A      2.715084   133A      2.734632   134A      2.788874
     135A      2.800073   136A      2.828259   137A      2.853668
     138A      2.869172   139A      2.909190   140A      2.957284
     141A      3.005252   142A      3.086594   143A      3.126534
     144A      3.138883   145A      3.201240   146A      3.299845
     147A      3.377736   148A      3.486016   149A      3.625458
     150A      3.665219   151A      3.920299   152A      3.931707
     153A      4.056092

    Final Occupation by Irrep:
              A
    DOCC [    29 ]

  @RHF Final Energy:  -362.05347811236675

   => Energetics <=

    Nuclear Repulsion Energy =            312.9026654997717287
    One-Electron Energy =               -1115.4704393832296319
    Two-Electron Energy =                 440.5142957710911560
    Total Energy =                       -362.0534781123667472

Computation Completed

Properties will be evaluated at   0.000000,   0.000000,   0.000000 [a0]

Properties computed using the SCF density matrix

  Nuclear Dipole Moment: [e a0]
     X:    -3.4429      Y:    -8.2851      Z:     0.4497

  Electronic Dipole Moment: [e a0]
     X:     1.4936      Y:     4.8057      Z:    -2.4504

  Dipole Moment: [e a0]
     X:    -1.9493      Y:    -3.4794      Z:    -2.0007     Total:     4.4619

  Dipole Moment: [D]
     X:    -4.9547      Y:    -8.8437      Z:    -5.0852     Total:    11.3411

*** tstop() called on ds3 at Mon Apr 27 21:36:04 2020
Module time:
	user time   =      23.49 seconds =       0.39 minutes
	system time =      11.32 seconds =       0.19 minutes
	total time  =         35 seconds =       0.58 minutes
Total time:
	user time   =      23.49 seconds =       0.39 minutes
	system time =      11.32 seconds =       0.19 minutes
	total time  =         35 seconds =       0.58 minutes
                                     G D M A

                                 by Anthony Stone

                           version 2.2.06, 22 June 2011

               Distributed Multipoles from Gaussian wavefunctions

Starting at 21:36:4 on 27 Apr 2020

Using SCF density matrix from file ./SSI/SSI-030GLU-061LYS-1-dimer.test.28880.fchk

                         Distributed Multipole Analysis

Standard DMA

Positions and radii in angstrom
Multipole moments in atomic units, ea_0^k for rank k

C          x =  0.552760  y =  1.897599  z =  2.085350 angstrom
           Maximum rank =  0   Radius =  0.650 angstrom
                   Q00  =  -0.269032

C          x =  0.567760  y =  1.414599  z =  0.638350 angstrom
           Maximum rank =  0   Radius =  0.650 angstrom
                   Q00  =   0.887454

O          x = -0.467240  y =  0.952599  z =  0.099350 angstrom
           Maximum rank =  0   Radius =  0.650 angstrom
                   Q00  =  -0.944186

O          x =  1.651760  y =  1.479599  z =  0.022350 angstrom
           Maximum rank =  0   Radius =  0.650 angstrom
                   Q00  =  -0.878234

H          x =  0.802760  y =  2.956599  z =  2.139350 angstrom
           Maximum rank =  0   Radius =  0.325 angstrom
                   Q00  =   0.110204

H          x =  1.349760  y =  1.366599  z =  2.608350 angstrom
           Maximum rank =  0   Radius =  0.325 angstrom
                   Q00  =   0.091491

H          x = -0.379940  y =  1.677419  z =  2.625340 angstrom
           Maximum rank =  0   Radius =  0.325 angstrom
                   Q00  =   0.066464

C          x = -1.332240  y = -2.011401  z = -0.883650 angstrom
           Maximum rank =  0   Radius =  0.650 angstrom
                   Q00  =   0.003586

C          x = -0.292240  y = -2.580401  z =  0.053350 angstrom
           Maximum rank =  0   Radius =  0.650 angstrom
                   Q00  =  -0.230618

N          x = -0.656240  y = -1.044401  z = -1.795650 angstrom
           Maximum rank =  0   Radius =  0.650 angstrom
                   Q00  =  -0.120520

H          x = -1.796240  y = -2.822401  z = -1.455650 angstrom
           Maximum rank =  0   Radius =  0.325 angstrom
                   Q00  =   0.081637

H          x = -2.112240  y = -1.503401  z = -0.302650 angstrom
           Maximum rank =  0   Radius =  0.325 angstrom
                   Q00  =   0.140360

H          x =  0.244760  y = -1.759401  z =  0.536350 angstrom
           Maximum rank =  0   Radius =  0.325 angstrom
                   Q00  =   0.128807

H          x =  0.428760  y = -3.181401  z = -0.504650 angstrom
           Maximum rank =  0   Radius =  0.325 angstrom
                   Q00  =   0.077921

H          x =  0.168760  y = -1.438401  z = -2.234650 angstrom
           Maximum rank =  0   Radius =  0.325 angstrom
                   Q00  =   0.221272

H          x = -1.271240  y = -0.732401  z = -2.540650 angstrom
           Maximum rank =  0   Radius =  0.325 angstrom
                   Q00  =   0.219894

H          x = -0.367240  y = -0.226401  z = -1.244650 angstrom
           Maximum rank =  0   Radius =  0.325 angstrom
                   Q00  =   0.294198

H          x = -0.748540  y = -3.190241  z =  0.847010 angstrom
           Maximum rank =  0   Radius =  0.325 angstrom
                   Q00  =   0.119303

Total multipoles referred to origin at
           x =   0.000000,  y =    0.000000,  z =    0.000000 angstrom
                   Q00  =  -0.000000

Finished at 21:36:4 on 27 Apr 2020

  DMA results are available in the Python driver through the
	  variable('DMA DISTRIBUTED MULTIPOLES')
  and
	  variable('DMA TOTAL MULTIPOLES')
  commands.

    Psi4 stopped on: Monday, 27 April 2020 09:36PM
    Psi4 wall time for execution: 0:00:34.55

*** Psi4 exiting successfully. Buy a developer a beer!
