                               Psi4 1.3.2 release

  ==> Input File <==

--------------------------------------------------------------------------
import numpy as np
set {scf_type pk
basis cc-pvdz
d_convergence 10
gdma_switch   0
gdma_limit    0
gdma_origin   [ 0.0,  0.0,  0.0 ]
}
molecule test {
    units Angstrom
    0 1
    --
    0 1
    C                0.951239430468437    -0.711800546621481    -2.024756852038683
    C                1.631239430468437     0.473199453378519     0.066243147961318
    C                1.969239430468437     0.064199453378519    -1.193756852038682
    C                2.520239430468437     1.203199453378520     0.826243147961318
    C                3.287239430468437     0.325199453378519    -1.621756852038682
    C                3.792239430468437     1.459199453378520     0.412243147961318
    C                4.201239430468437     0.997199453378519    -0.820756852038682
    H                0.673239430468437     0.211199453378519     0.478243147961318
    H                2.195239430468436     1.555199453378519     1.784243147961318
    H               -0.040760569531563    -0.288800546621481    -1.861756852038682
    H                0.938239430468437    -1.737800546621481    -1.666756852038683
    H                3.623239430468437     0.009199453378519    -2.594756852038682
    H                4.472239430468436     2.013199453378519     1.046243147961318
    H                5.208239430468436     1.182199453378519    -1.169756852038682
    H                1.166689430468437    -0.717560546621480    -3.103436852038683
    C               -2.043760569531563     1.236199453378519     0.484243147961318
    C               -2.584760569531563     2.013199453378519     1.682243147961317
    C               -2.305760569531563    -0.248800546621481     0.522243147961318
    C               -1.953760569531563    -1.231800546621481     1.398243147961318
    C               -3.070760569531563    -2.153800546621480    -0.272756852038682
    N               -2.972760569531563    -0.845800546621481    -0.528756852038682
    N               -2.464760569531563    -2.421800546621481     0.886243147961318
    H               -2.527760569531563     1.633199453378519    -0.406756852038682
    H               -0.982760569531563     1.434199453378519     0.375243147961318
    H               -3.648760569531563     1.820199453378520     1.818243147961318
    H               -1.375760569531563    -1.108800546621481     2.298243147961317
    H               -3.527760569531563    -2.888800546621481    -0.924756852038682
    H               -2.356760569531564    -3.358800546621481     1.276243147961318
    H               -2.377120569531563     3.084519453378519     1.543813147961318
    H               -2.019610569531563     1.773069453378519     2.594903147961317

}
e, wfn = energy('scf', return_wfn=True)
gdma(wfn)
dmavals = variable('DMA DISTRIBUTED MULTIPOLES')
charges = np.array(dmavals)
print(charges)
np.save('SSI-008PHE-099HIE-1-dimer.npy', np.array(charges))--------------------------------------------------------------------------

*** tstart() called on ds3
*** at Tue Apr 28 13:54:03 2020

   => Loading Basis Set <=

    Name: CC-PVDZ
    Role: ORBITAL
    Keyword: BASIS
    atoms 1-7, 16-20  entry C          line   138 file /theoryfs2/ds/metcalf/miniconda2/envs/tf2gpu/share/psi4/basis/cc-pvdz.gbs
    atoms 8-15, 23-30 entry H          line    22 file /theoryfs2/ds/metcalf/miniconda2/envs/tf2gpu/share/psi4/basis/cc-pvdz.gbs
    atoms 21-22       entry N          line   168 file /theoryfs2/ds/metcalf/miniconda2/envs/tf2gpu/share/psi4/basis/cc-pvdz.gbs

         ---------------------------------------------------------
                                   SCF
               by Justin Turney, Rob Parrish, Andy Simmonett
                          and Daniel G. A. Smith
                              RHF Reference
                        1 Threads,    500 MiB Core
         ---------------------------------------------------------

  ==> Geometry <==

    Molecular point group: c1
    Full point group: C1

    Geometry (in Angstrom), charge = 0, multiplicity = 1:

       Center              X                  Y                   Z               Mass
    ------------   -----------------  -----------------  -----------------  -----------------
         C            0.951239430468    -0.711800546621    -2.024756852039    12.000000000000
         C            1.631239430468     0.473199453379     0.066243147961    12.000000000000
         C            1.969239430468     0.064199453379    -1.193756852039    12.000000000000
         C            2.520239430468     1.203199453379     0.826243147961    12.000000000000
         C            3.287239430468     0.325199453379    -1.621756852039    12.000000000000
         C            3.792239430468     1.459199453379     0.412243147961    12.000000000000
         C            4.201239430468     0.997199453379    -0.820756852039    12.000000000000
         H            0.673239430468     0.211199453379     0.478243147961     1.007825032230
         H            2.195239430468     1.555199453379     1.784243147961     1.007825032230
         H           -0.040760569532    -0.288800546621    -1.861756852039     1.007825032230
         H            0.938239430468    -1.737800546621    -1.666756852039     1.007825032230
         H            3.623239430468     0.009199453379    -2.594756852039     1.007825032230
         H            4.472239430468     2.013199453379     1.046243147961     1.007825032230
         H            5.208239430468     1.182199453379    -1.169756852039     1.007825032230
         H            1.166689430468    -0.717560546621    -3.103436852039     1.007825032230
         C           -2.043760569532     1.236199453379     0.484243147961    12.000000000000
         C           -2.584760569532     2.013199453379     1.682243147961    12.000000000000
         C           -2.305760569532    -0.248800546621     0.522243147961    12.000000000000
         C           -1.953760569532    -1.231800546621     1.398243147961    12.000000000000
         C           -3.070760569532    -2.153800546621    -0.272756852039    12.000000000000
         N           -2.972760569532    -0.845800546621    -0.528756852039    14.003074004430
         N           -2.464760569532    -2.421800546621     0.886243147961    14.003074004430
         H           -2.527760569532     1.633199453379    -0.406756852039     1.007825032230
         H           -0.982760569532     1.434199453379     0.375243147961     1.007825032230
         H           -3.648760569532     1.820199453379     1.818243147961     1.007825032230
         H           -1.375760569532    -1.108800546621     2.298243147961     1.007825032230
         H           -3.527760569532    -2.888800546621    -0.924756852039     1.007825032230
         H           -2.356760569532    -3.358800546621     1.276243147961     1.007825032230
         H           -2.377120569532     3.084519453379     1.543813147961     1.007825032230
         H           -2.019610569532     1.773069453379     2.594903147961     1.007825032230

  Running in c1 symmetry.

  Rotational constants: A =      0.03658  B =      0.01047  C =      0.00914 [cm^-1]
  Rotational constants: A =   1096.78881  B =    313.74237  C =    274.14538 [MHz]
  Nuclear repulsion =  809.613689656951919

  Charge       = 0
  Multiplicity = 1
  Electrons    = 102
  Nalpha       = 51
  Nbeta        = 51

  ==> Algorithm <==

  SCF Algorithm Type is PK.
  DIIS enabled.
  MOM disabled.
  Fractional occupation disabled.
  Guess Type is SAD.
  Energy threshold   = 1.00e-06
  Density threshold  = 1.00e-10
  Integral threshold = 0.00e+00

  ==> Primary Basis <==

  Basis Set: CC-PVDZ
    Blend: CC-PVDZ
    Number of shells: 132
    Number of basis function: 276
    Number of Cartesian functions: 290
    Spherical Harmonics?: true
    Max angular momentum: 2

  ==> Pre-Iterations <==

   -------------------------------------------------------
    Irrep   Nso     Nmo     Nalpha   Nbeta   Ndocc  Nsocc
   -------------------------------------------------------
     A        276     276       0       0       0       0
   -------------------------------------------------------
    Total     276     276      51      51      51       0
   -------------------------------------------------------

  ==> Integral Setup <==

  Using integral reordering PK algorithm.
  Sizing the integral batches needed.
  Building batch lookup table.
   Calculation information:
      Number of atoms:                  30
      Number of AO shells:             132
      Number of primitives:            388
      Number of atomic orbitals:       290
      Number of basis functions:       276

      Integral cutoff                 1.00e-12
      Number of threads:                 1

	Batch   1 pq = [       0,    9405] index = [             0,44231715] size =     44231715
	Batch   2 pq = [    9405,   13301] index = [      44231715,88464951] size =     44233236
	Batch   3 pq = [   13301,   16290] index = [      88464951,132690195] size =     44225244
	Batch   4 pq = [   16290,   18810] index = [     132690195,176917455] size =     44227260
	Batch   5 pq = [   18810,   21030] index = [     176917455,221140965] size =     44223510
	Batch   6 pq = [   21030,   23037] index = [     221140965,265363203] size =     44222238
	Batch   7 pq = [   23037,   24883] index = [     265363203,309594286] size =     44231083
	Batch   8 pq = [   24883,   26601] index = [     309594286,353819901] size =     44225615
	Batch   9 pq = [   26601,   28214] index = [     353819901,398029005] size =     44209104
	Batch  10 pq = [   28214,   29740] index = [     398029005,442248670] size =     44219665
	Batch  11 pq = [   29740,   31191] index = [     442248670,486454836] size =     44206166
	Batch  12 pq = [   31191,   32578] index = [     486454836,530679331] size =     44224495
	Batch  13 pq = [   32578,   33908] index = [     530679331,574893186] size =     44213855
	Batch  14 pq = [   33908,   35188] index = [     574893186,619115266] size =     44222080
	Batch  15 pq = [   35188,   36423] index = [     619115266,663335676] size =     44220410
	Batch  16 pq = [   36423,   37617] index = [     663335676,707538153] size =     44202477
	Batch  17 pq = [   37617,   38226] index = [     707538153,730632651] size =     23094498
  Task number: 67
  Buffer size: 11059200
  Buffer per thread: 2
  We computed 37385441 shell quartets total.
  Whereas there are 38531031 unique shell quartets.

  ==> DiskJK: Disk-Based J/K Matrices <==

    J tasked:                  Yes
    K tasked:                  Yes
    wK tasked:                  No
    Memory [MiB]:              375
    Schwarz Cutoff:          1E-12

    OpenMP threads:              1

  Minimum eigenvalue in the overlap matrix is 2.7144171820E-04.
  Using Symmetric Orthogonalization.

  SCF Guess: Superposition of Atomic Densities via on-the-fly atomic UHF.

  ==> Iterations <==

                        Total Energy        Delta E     RMS |[F,P]|

   @RHF iter SAD:  -571.76415116348232   -5.71764e+02   0.00000e+00
   @RHF iter   1:  -572.34977302940979   -5.85622e-01   2.45292e-03 DIIS
   @RHF iter   2:  -572.60460682570010   -2.54834e-01   1.18473e-03 DIIS
   @RHF iter   3:  -572.65651291960592   -5.19061e-02   3.21349e-04 DIIS
   @RHF iter   4:  -572.66133533002517   -4.82241e-03   1.36980e-04 DIIS
   @RHF iter   5:  -572.66211074953355   -7.75420e-04   1.86021e-05 DIIS
   @RHF iter   6:  -572.66213643565527   -2.56861e-05   7.69145e-06 DIIS
   @RHF iter   7:  -572.66214018865071   -3.75300e-06   2.50852e-06 DIIS
   @RHF iter   8:  -572.66214088094398   -6.92293e-07   1.04539e-06 DIIS
   @RHF iter   9:  -572.66214102693561   -1.45992e-07   4.08016e-07 DIIS
   @RHF iter  10:  -572.66214104879805   -2.18624e-08   1.33768e-07 DIIS
   @RHF iter  11:  -572.66214105176221   -2.96416e-09   5.47814e-08 DIIS
   @RHF iter  12:  -572.66214105212975   -3.67550e-10   2.49024e-08 DIIS
   @RHF iter  13:  -572.66214105220160   -7.18501e-11   7.80618e-09 DIIS
   @RHF iter  14:  -572.66214105221206   -1.04592e-11   3.18343e-09 DIIS
   @RHF iter  15:  -572.66214105221320   -1.13687e-12   1.36596e-09 DIIS
   @RHF iter  16:  -572.66214105221218    1.02318e-12   5.35405e-10 DIIS
   @RHF iter  17:  -572.66214105220922    2.95586e-12   2.28046e-10 DIIS
   @RHF iter  18:  -572.66214105221457   -5.34328e-12   7.95383e-11 DIIS
  Energy and wave function converged.

  ==> Post-Iterations <==

    Orbital Energies [Eh]
    ---------------------

    Doubly Occupied:

       1A    -15.627165     2A    -15.533745     3A    -11.298272
       4A    -11.256769     5A    -11.244671     6A    -11.235660
       7A    -11.228842     8A    -11.225797     9A    -11.223392
      10A    -11.222568    11A    -11.222066    12A    -11.221513
      13A    -11.218906    14A    -11.217770    15A     -1.338554
      16A     -1.156056    17A     -1.154376    18A     -1.050727
      19A     -1.040657    20A     -1.008734    21A     -0.986420
      22A     -0.927055    23A     -0.864471    24A     -0.821144
      25A     -0.816370    26A     -0.793712    27A     -0.759188
      28A     -0.738605    29A     -0.690592    30A     -0.630292
      31A     -0.627631    32A     -0.619014    33A     -0.602007
      34A     -0.600462    35A     -0.582809    36A     -0.578646
      37A     -0.574902    38A     -0.567340    39A     -0.558553
      40A     -0.531003    41A     -0.509192    42A     -0.493639
      43A     -0.488395    44A     -0.479587    45A     -0.474515
      46A     -0.472623    47A     -0.416528    48A     -0.381785
      49A     -0.328774    50A     -0.320036    51A     -0.312320

    Virtual:

      52A      0.141646    53A      0.149082    54A      0.164969
      55A      0.172028    56A      0.182987    57A      0.198491
      58A      0.208560    59A      0.219298    60A      0.223441
      61A      0.232340    62A      0.243681    63A      0.253964
      64A      0.254570    65A      0.265165    66A      0.271465
      67A      0.284453    68A      0.293254    69A      0.297445
      70A      0.313389    71A      0.329325    72A      0.376632
      73A      0.379932    74A      0.382998    75A      0.402543
      76A      0.409303    77A      0.422096    78A      0.461518
      79A      0.469912    80A      0.485129    81A      0.488847
      82A      0.501692    83A      0.503095    84A      0.558474
      85A      0.585028    86A      0.603634    87A      0.617784
      88A      0.637662    89A      0.641573    90A      0.652168
      91A      0.665321    92A      0.687886    93A      0.691909
      94A      0.694868    95A      0.705529    96A      0.713148
      97A      0.722142    98A      0.736307    99A      0.739866
     100A      0.750995   101A      0.758434   102A      0.762368
     103A      0.766474   104A      0.768766   105A      0.784090
     106A      0.797196   107A      0.801898   108A      0.816058
     109A      0.829328   110A      0.845055   111A      0.857358
     112A      0.860978   113A      0.866114   114A      0.874510
     115A      0.884306   116A      0.889403   117A      0.894440
     118A      0.902283   119A      0.905154   120A      0.914398
     121A      0.925448   122A      0.932398   123A      0.940368
     124A      0.944984   125A      0.953080   126A      0.968858
     127A      0.980696   128A      0.987676   129A      0.997347
     130A      1.012816   131A      1.026420   132A      1.033759
     133A      1.050863   134A      1.074247   135A      1.097945
     136A      1.112157   137A      1.122783   138A      1.128485
     139A      1.136659   140A      1.148370   141A      1.155664
     142A      1.164909   143A      1.191144   144A      1.203584
     145A      1.219947   146A      1.240423   147A      1.241704
     148A      1.247588   149A      1.252488   150A      1.271840
     151A      1.282816   152A      1.298610   153A      1.304230
     154A      1.315813   155A      1.323924   156A      1.331837
     157A      1.341574   158A      1.363592   159A      1.370512
     160A      1.421818   161A      1.438093   162A      1.447675
     163A      1.467174   164A      1.495651   165A      1.532183
     166A      1.535055   167A      1.539902   168A      1.557827
     169A      1.579095   170A      1.586360   171A      1.614146
     172A      1.663854   173A      1.682559   174A      1.696342
     175A      1.702405   176A      1.740308   177A      1.747714
     178A      1.752918   179A      1.762377   180A      1.772204
     181A      1.776334   182A      1.794196   183A      1.807853
     184A      1.825401   185A      1.841731   186A      1.865938
     187A      1.889883   188A      1.893593   189A      1.895301
     190A      1.901931   191A      1.904496   192A      1.917864
     193A      1.923364   194A      1.928551   195A      1.933060
     196A      1.936639   197A      1.950214   198A      1.963298
     199A      1.968405   200A      1.980013   201A      1.983084
     202A      1.990401   203A      1.997565   204A      2.005103
     205A      2.008543   206A      2.018473   207A      2.024651
     208A      2.057357   209A      2.069412   210A      2.077759
     211A      2.081881   212A      2.092308   213A      2.099717
     214A      2.121171   215A      2.143456   216A      2.159102
     217A      2.175555   218A      2.181232   219A      2.187965
     220A      2.195582   221A      2.208562   222A      2.218813
     223A      2.265795   224A      2.274123   225A      2.278597
     226A      2.286668   227A      2.304427   228A      2.325539
     229A      2.332400   230A      2.334509   231A      2.349328
     232A      2.357870   233A      2.388362   234A      2.433365
     235A      2.446060   236A      2.467197   237A      2.476495
     238A      2.478049   239A      2.520350   240A      2.538929
     241A      2.545228   242A      2.571444   243A      2.598254
     244A      2.604513   245A      2.654758   246A      2.682081
     247A      2.739983   248A      2.747539   249A      2.758366
     250A      2.763308   251A      2.771315   252A      2.793554
     253A      2.796084   254A      2.806072   255A      2.818226
     256A      2.849018   257A      2.856373   258A      2.877582
     259A      2.883543   260A      2.888261   261A      2.929759
     262A      2.938703   263A      2.953818   264A      3.001043
     265A      3.012924   266A      3.045442   267A      3.060655
     268A      3.080216   269A      3.145091   270A      3.183445
     271A      3.235966   272A      3.243227   273A      3.338947
     274A      3.450022   275A      3.772911   276A      4.004085

    Final Occupation by Irrep:
              A
    DOCC [    51 ]

  @RHF Final Energy:  -572.66214105221457

   => Energetics <=

    Nuclear Repulsion Energy =            809.6136896569519195
    One-Electron Energy =               -2382.0039582109925504
    Two-Electron Energy =                 999.7281275018260658
    Total Energy =                       -572.6621410522145652

Computation Completed

Properties will be evaluated at   0.000000,   0.000000,   0.000000 [a0]

Properties computed using the SCF density matrix

  Nuclear Dipole Moment: [e a0]
     X:    -0.5279      Y:     4.3365      Z:     1.3934

  Electronic Dipole Moment: [e a0]
     X:     0.6364      Y:    -5.5012      Z:    -0.6686

  Dipole Moment: [e a0]
     X:     0.1085      Y:    -1.1647      Z:     0.7248     Total:     1.3760

  Dipole Moment: [D]
     X:     0.2757      Y:    -2.9603      Z:     1.8422     Total:     3.4976

*** tstop() called on ds3 at Tue Apr 28 14:02:42 2020
Module time:
	user time   =     311.62 seconds =       5.19 minutes
	system time =     126.44 seconds =       2.11 minutes
	total time  =        519 seconds =       8.65 minutes
Total time:
	user time   =     311.62 seconds =       5.19 minutes
	system time =     126.44 seconds =       2.11 minutes
	total time  =        519 seconds =       8.65 minutes
                                     G D M A

                                 by Anthony Stone

                           version 2.2.06, 22 June 2011

               Distributed Multipoles from Gaussian wavefunctions

Starting at 14:2:42 on 28 Apr 2020

Using SCF density matrix from file ./SSI/SSI-008PHE-099HIE-1-dimer.test.28038.fchk

                         Distributed Multipole Analysis

Standard DMA

Positions and radii in angstrom
Multipole moments in atomic units, ea_0^k for rank k

C          x =  0.951239  y = -0.711801  z = -2.024757 angstrom
           Maximum rank =  0   Radius =  0.650 angstrom
                   Q00  =  -0.211407

C          x =  1.631239  y =  0.473199  z =  0.066243 angstrom
           Maximum rank =  0   Radius =  0.650 angstrom
                   Q00  =  -0.077623

C          x =  1.969239  y =  0.064199  z = -1.193757 angstrom
           Maximum rank =  0   Radius =  0.650 angstrom
                   Q00  =  -0.094882

C          x =  2.520239  y =  1.203199  z =  0.826243 angstrom
           Maximum rank =  0   Radius =  0.650 angstrom
                   Q00  =   0.036169

C          x =  3.287239  y =  0.325199  z = -1.621757 angstrom
           Maximum rank =  0   Radius =  0.650 angstrom
                   Q00  =  -0.067386

C          x =  3.792239  y =  1.459199  z =  0.412243 angstrom
           Maximum rank =  0   Radius =  0.650 angstrom
                   Q00  =  -0.085952

C          x =  4.201239  y =  0.997199  z = -0.820757 angstrom
           Maximum rank =  0   Radius =  0.650 angstrom
                   Q00  =  -0.085902

H          x =  0.673239  y =  0.211199  z =  0.478243 angstrom
           Maximum rank =  0   Radius =  0.325 angstrom
                   Q00  =   0.053305

H          x =  2.195239  y =  1.555199  z =  1.784243 angstrom
           Maximum rank =  0   Radius =  0.325 angstrom
                   Q00  =   0.049097

H          x = -0.040761  y = -0.288801  z = -1.861757 angstrom
           Maximum rank =  0   Radius =  0.325 angstrom
                   Q00  =   0.112435

H          x =  0.938239  y = -1.737801  z = -1.666757 angstrom
           Maximum rank =  0   Radius =  0.325 angstrom
                   Q00  =   0.102161

H          x =  3.623239  y =  0.009199  z = -2.594757 angstrom
           Maximum rank =  0   Radius =  0.325 angstrom
                   Q00  =   0.052207

H          x =  4.472239  y =  2.013199  z =  1.046243 angstrom
           Maximum rank =  0   Radius =  0.325 angstrom
                   Q00  =   0.055113

H          x =  5.208239  y =  1.182199  z = -1.169757 angstrom
           Maximum rank =  0   Radius =  0.325 angstrom
                   Q00  =   0.062609

H          x =  1.166689  y = -0.717561  z = -3.103437 angstrom
           Maximum rank =  0   Radius =  0.325 angstrom
                   Q00  =   0.100483

C          x = -2.043761  y =  1.236199  z =  0.484243 angstrom
           Maximum rank =  0   Radius =  0.650 angstrom
                   Q00  =  -0.030182

C          x = -2.584761  y =  2.013199  z =  1.682243 angstrom
           Maximum rank =  0   Radius =  0.650 angstrom
                   Q00  =  -0.237982

C          x = -2.305761  y = -0.248801  z =  0.522243 angstrom
           Maximum rank =  0   Radius =  0.650 angstrom
                   Q00  =   0.226647

C          x = -1.953761  y = -1.231801  z =  1.398243 angstrom
           Maximum rank =  0   Radius =  0.650 angstrom
                   Q00  =  -0.011055

C          x = -3.070761  y = -2.153801  z = -0.272757 angstrom
           Maximum rank =  0   Radius =  0.650 angstrom
                   Q00  =   0.459725

N          x = -2.972761  y = -0.845801  z = -0.528757 angstrom
           Maximum rank =  0   Radius =  0.650 angstrom
                   Q00  =  -0.781257

N          x = -2.464761  y = -2.421801  z =  0.886243 angstrom
           Maximum rank =  0   Radius =  0.650 angstrom
                   Q00  =  -0.484285

H          x = -2.527761  y =  1.633199  z = -0.406757 angstrom
           Maximum rank =  0   Radius =  0.325 angstrom
                   Q00  =   0.093436

H          x = -0.982761  y =  1.434199  z =  0.375243 angstrom
           Maximum rank =  0   Radius =  0.325 angstrom
                   Q00  =   0.065846

H          x = -3.648761  y =  1.820199  z =  1.818243 angstrom
           Maximum rank =  0   Radius =  0.325 angstrom
                   Q00  =   0.090633

H          x = -1.375761  y = -1.108801  z =  2.298243 angstrom
           Maximum rank =  0   Radius =  0.325 angstrom
                   Q00  =   0.105381

H          x = -3.527761  y = -2.888801  z = -0.924757 angstrom
           Maximum rank =  0   Radius =  0.325 angstrom
                   Q00  =   0.125389

H          x = -2.356761  y = -3.358801  z =  1.276243 angstrom
           Maximum rank =  0   Radius =  0.325 angstrom
                   Q00  =   0.225351

H          x = -2.377121  y =  3.084519  z =  1.543813 angstrom
           Maximum rank =  0   Radius =  0.325 angstrom
                   Q00  =   0.082752

H          x = -2.019611  y =  1.773069  z =  2.594903 angstrom
           Maximum rank =  0   Radius =  0.325 angstrom
                   Q00  =   0.069172

Total multipoles referred to origin at
           x =   0.000000,  y =    0.000000,  z =    0.000000 angstrom
                   Q00  =  -0.000000

Finished at 14:2:43 on 28 Apr 2020

  DMA results are available in the Python driver through the
	  variable('DMA DISTRIBUTED MULTIPOLES')
  and
	  variable('DMA TOTAL MULTIPOLES')
  commands.

    Psi4 stopped on: Tuesday, 28 April 2020 02:02PM
    Psi4 wall time for execution: 0:08:39.95

*** Psi4 exiting successfully. Buy a developer a beer!
