                               Psi4 1.3.2 release

  ==> Input File <==

--------------------------------------------------------------------------
import numpy as np
set {scf_type pk
basis cc-pvdz
d_convergence 10
gdma_switch   0
gdma_limit    0
gdma_origin   [ 0.0,  0.0,  0.0 ]
}
molecule test {
    units Angstrom
    0 1
    --
    0 1
    C               -0.007640434400785    -0.119026527433825    -0.899642603355818
    C               -0.380640434400785    -0.401026527433825    -2.350642603355817
    C                1.079359565599215    -0.998026527433825    -0.343642603355818
    C                2.416359565599215    -1.038026527433825    -0.603642603355817
    C                1.973359565599215    -2.573026527433825     0.913357396644182
    N                0.833359565599215    -1.955026527433825     0.620357396644183
    N                2.955359565599215    -2.019026527433825     0.211357396644182
    H                0.315359565599215     0.910973472566175    -0.806642603355818
    H               -0.898640434400785    -0.247026527433825    -0.281642603355818
    H               -0.694640434400785    -1.443026527433825    -2.443642603355817
    H                2.950359565599215    -0.396026527433825    -1.290642603355818
    H                2.094359565599215    -3.360026527433825     1.649357396644182
    H                3.933359565599215    -2.272026527433824     0.282357396644182
    H                0.500289565599215    -0.195446527433825    -2.976505603355817
    H               -1.212020434400785     0.263203472566175    -2.629215603355817
    C               -2.573640434400785     2.273973472566175     0.658357396644182
    C               -2.585640434400785     2.700973472566175     2.135357396644182
    C               -3.070640434400785     3.431973472566175    -0.325642603355818
    H               -1.568640434400785     1.967973472566175     0.372357396644182
    H               -3.236640434400785     1.421973472566175     0.514357396644182
    H               -3.463640434400785     3.321973472566175     2.317357396644183
    H               -2.411640434400785     4.297973472566175    -0.262642603355818
    H               -3.060640434400785     3.066973472566175    -1.348642603355818
    H               -4.086640434400786     3.728973472566175    -0.070642603355818
    H               -2.623780434400785     1.826012472566175     2.800927396644183
    H               -1.682520434400785     3.296376472566175     2.335017396644183

}
e, wfn = energy('scf', return_wfn=True)
gdma(wfn)
dmavals = variable('DMA DISTRIBUTED MULTIPOLES')
charges = np.array(dmavals)
print(charges)
np.save('SSI-069HIE-075ILE-1-dimer.npy', np.array(charges))--------------------------------------------------------------------------

*** tstart() called on ds3
*** at Mon Apr 27 20:37:14 2020

   => Loading Basis Set <=

    Name: CC-PVDZ
    Role: ORBITAL
    Keyword: BASIS
    atoms 1-5, 16-18  entry C          line   138 file /theoryfs2/ds/metcalf/miniconda2/envs/tf2gpu/share/psi4/basis/cc-pvdz.gbs
    atoms 6-7         entry N          line   168 file /theoryfs2/ds/metcalf/miniconda2/envs/tf2gpu/share/psi4/basis/cc-pvdz.gbs
    atoms 8-15, 19-26 entry H          line    22 file /theoryfs2/ds/metcalf/miniconda2/envs/tf2gpu/share/psi4/basis/cc-pvdz.gbs

         ---------------------------------------------------------
                                   SCF
               by Justin Turney, Rob Parrish, Andy Simmonett
                          and Daniel G. A. Smith
                              RHF Reference
                        1 Threads,    500 MiB Core
         ---------------------------------------------------------

  ==> Geometry <==

    Molecular point group: c1
    Full point group: C1

    Geometry (in Angstrom), charge = 0, multiplicity = 1:

       Center              X                  Y                   Z               Mass
    ------------   -----------------  -----------------  -----------------  -----------------
         C           -0.007640434401    -0.119026527434    -0.899642603356    12.000000000000
         C           -0.380640434401    -0.401026527434    -2.350642603356    12.000000000000
         C            1.079359565599    -0.998026527434    -0.343642603356    12.000000000000
         C            2.416359565599    -1.038026527434    -0.603642603356    12.000000000000
         C            1.973359565599    -2.573026527434     0.913357396644    12.000000000000
         N            0.833359565599    -1.955026527434     0.620357396644    14.003074004430
         N            2.955359565599    -2.019026527434     0.211357396644    14.003074004430
         H            0.315359565599     0.910973472566    -0.806642603356     1.007825032230
         H           -0.898640434401    -0.247026527434    -0.281642603356     1.007825032230
         H           -0.694640434401    -1.443026527434    -2.443642603356     1.007825032230
         H            2.950359565599    -0.396026527434    -1.290642603356     1.007825032230
         H            2.094359565599    -3.360026527434     1.649357396644     1.007825032230
         H            3.933359565599    -2.272026527434     0.282357396644     1.007825032230
         H            0.500289565599    -0.195446527434    -2.976505603356     1.007825032230
         H           -1.212020434401     0.263203472566    -2.629215603356     1.007825032230
         C           -2.573640434401     2.273973472566     0.658357396644    12.000000000000
         C           -2.585640434401     2.700973472566     2.135357396644    12.000000000000
         C           -3.070640434401     3.431973472566    -0.325642603356    12.000000000000
         H           -1.568640434401     1.967973472566     0.372357396644     1.007825032230
         H           -3.236640434401     1.421973472566     0.514357396644     1.007825032230
         H           -3.463640434401     3.321973472566     2.317357396644     1.007825032230
         H           -2.411640434401     4.297973472566    -0.262642603356     1.007825032230
         H           -3.060640434401     3.066973472566    -1.348642603356     1.007825032230
         H           -4.086640434401     3.728973472566    -0.070642603356     1.007825032230
         H           -2.623780434401     1.826012472566     2.800927396644     1.007825032230
         H           -1.682520434401     3.296376472566     2.335017396644     1.007825032230

  Running in c1 symmetry.

  Rotational constants: A =      0.06790  B =      0.01354  C =      0.01207 [cm^-1]
  Rotational constants: A =   2035.44904  B =    405.90715  C =    361.86481 [MHz]
  Nuclear repulsion =  493.659142683018047

  Charge       = 0
  Multiplicity = 1
  Electrons    = 78
  Nalpha       = 39
  Nbeta        = 39

  ==> Algorithm <==

  SCF Algorithm Type is PK.
  DIIS enabled.
  MOM disabled.
  Fractional occupation disabled.
  Guess Type is SAD.
  Energy threshold   = 1.00e-06
  Density threshold  = 1.00e-10
  Integral threshold = 0.00e+00

  ==> Primary Basis <==

  Basis Set: CC-PVDZ
    Blend: CC-PVDZ
    Number of shells: 108
    Number of basis function: 220
    Number of Cartesian functions: 230
    Spherical Harmonics?: true
    Max angular momentum: 2

  ==> Pre-Iterations <==

   -------------------------------------------------------
    Irrep   Nso     Nmo     Nalpha   Nbeta   Ndocc  Nsocc
   -------------------------------------------------------
     A        220     220       0       0       0       0
   -------------------------------------------------------
    Total     220     220      39      39      39       0
   -------------------------------------------------------

  ==> Integral Setup <==

  Using integral reordering PK algorithm.
  Sizing the integral batches needed.
  Building batch lookup table.
   Calculation information:
      Number of atoms:                  26
      Number of AO shells:             108
      Number of primitives:            300
      Number of atomic orbitals:       230
      Number of basis functions:       220

      Integral cutoff                 1.00e-12
      Number of threads:                 1

	Batch   1 pq = [       0,    9405] index = [             0,44231715] size =     44231715
	Batch   2 pq = [    9405,   13301] index = [      44231715,88464951] size =     44233236
	Batch   3 pq = [   13301,   16290] index = [      88464951,132690195] size =     44225244
	Batch   4 pq = [   16290,   18810] index = [     132690195,176917455] size =     44227260
	Batch   5 pq = [   18810,   21030] index = [     176917455,221140965] size =     44223510
	Batch   6 pq = [   21030,   23037] index = [     221140965,265363203] size =     44222238
	Batch   7 pq = [   23037,   24310] index = [     265363203,295500205] size =     30137002
  Task number: 27
  Buffer size: 11059200
  Buffer per thread: 2
  We computed 12665793 shell quartets total.
  Whereas there are 17325441 unique shell quartets.

  ==> DiskJK: Disk-Based J/K Matrices <==

    J tasked:                  Yes
    K tasked:                  Yes
    wK tasked:                  No
    Memory [MiB]:              375
    Schwarz Cutoff:          1E-12

    OpenMP threads:              1

  Minimum eigenvalue in the overlap matrix is 1.1652563375E-03.
  Using Symmetric Orthogonalization.

  SCF Guess: Superposition of Atomic Densities via on-the-fly atomic UHF.

  ==> Iterations <==

                        Total Energy        Delta E     RMS |[F,P]|

   @RHF iter SAD:  -420.06801775082721   -4.20068e+02   0.00000e+00
   @RHF iter   1:  -420.90200000823785   -8.33982e-01   2.90379e-03 DIIS
   @RHF iter   2:  -421.11939563216379   -2.17396e-01   1.44413e-03 DIIS
   @RHF iter   3:  -421.16817434755637   -4.87787e-02   3.75898e-04 DIIS
   @RHF iter   4:  -421.17248243669911   -4.30809e-03   1.62585e-04 DIIS
   @RHF iter   5:  -421.17319322601679   -7.10789e-04   2.17788e-05 DIIS
   @RHF iter   6:  -421.17321629675104   -2.30707e-05   8.75607e-06 DIIS
   @RHF iter   7:  -421.17321930190298   -3.00515e-06   3.01715e-06 DIIS
   @RHF iter   8:  -421.17321987354381   -5.71641e-07   1.21043e-06 DIIS
   @RHF iter   9:  -421.17322000318256   -1.29639e-07   4.34939e-07 DIIS
   @RHF iter  10:  -421.17322001837289   -1.51903e-08   1.46842e-07 DIIS
   @RHF iter  11:  -421.17322002050889   -2.13601e-09   6.02236e-08 DIIS
   @RHF iter  12:  -421.17322002077299   -2.64095e-10   2.51561e-08 DIIS
   @RHF iter  13:  -421.17322002081806   -4.50768e-11   7.78037e-09 DIIS
   @RHF iter  14:  -421.17322002082261   -4.54747e-12   2.60775e-09 DIIS
   @RHF iter  15:  -421.17322002082324   -6.25278e-13   9.73999e-10 DIIS
   @RHF iter  16:  -421.17322002082290    3.41061e-13   3.78106e-10 DIIS
   @RHF iter  17:  -421.17322002082312   -2.27374e-13   1.39786e-10 DIIS
   @RHF iter  18:  -421.17322002082471   -1.59162e-12   3.80052e-11 DIIS
  Energy and wave function converged.

  ==> Post-Iterations <==

    Orbital Energies [Eh]
    ---------------------

    Doubly Occupied:

       1A    -15.621540     2A    -15.527870     3A    -11.291910
       4A    -11.250708     5A    -11.239253     6A    -11.220824
       7A    -11.219075     8A    -11.217721     9A    -11.215844
      10A    -11.213074    11A     -1.338956    12A     -1.152807
      13A     -1.050738    14A     -1.035695    15A     -0.984175
      16A     -0.917215    17A     -0.859707    18A     -0.815157
      19A     -0.795064    20A     -0.756886    21A     -0.735558
      22A     -0.623345    23A     -0.615453    24A     -0.600315
      25A     -0.597512    26A     -0.585841    27A     -0.581261
      28A     -0.571130    29A     -0.540025    30A     -0.530329
      31A     -0.510166    32A     -0.491826    33A     -0.479142
      34A     -0.468646    35A     -0.465829    36A     -0.452742
      37A     -0.409073    38A     -0.377408    39A     -0.307889

    Virtual:

      40A      0.167758    41A      0.175388    42A      0.186037
      43A      0.197644    44A      0.213006    45A      0.222137
      46A      0.227240    47A      0.232250    48A      0.244426
      49A      0.253641    50A      0.261805    51A      0.267402
      52A      0.282715    53A      0.288380    54A      0.295067
      55A      0.313029    56A      0.324305    57A      0.339483
      58A      0.381098    59A      0.389732    60A      0.391102
      61A      0.407641    62A      0.412601    63A      0.445104
      64A      0.481063    65A      0.499753    66A      0.576211
      67A      0.596976    68A      0.605555    69A      0.614340
      70A      0.623387    71A      0.630622    72A      0.633297
      73A      0.649883    74A      0.655655    75A      0.679514
      76A      0.692963    77A      0.703584    78A      0.756913
      79A      0.771232    80A      0.773915    81A      0.797385
      82A      0.808850    83A      0.814751    84A      0.836090
      85A      0.841492    86A      0.851641    87A      0.865956
      88A      0.887131    89A      0.894361    90A      0.896113
      91A      0.898342    92A      0.901771    93A      0.906783
      94A      0.913225    95A      0.917681    96A      0.919403
      97A      0.930975    98A      0.931768    99A      0.948682
     100A      0.955562   101A      0.961889   102A      0.981232
     103A      0.995435   104A      1.000253   105A      1.018916
     106A      1.049839   107A      1.062128   108A      1.100504
     109A      1.111267   110A      1.120039   111A      1.137432
     112A      1.145746   113A      1.150971   114A      1.172750
     115A      1.227975   116A      1.243434   117A      1.266504
     118A      1.296389   119A      1.318014   120A      1.328543
     121A      1.365532   122A      1.390722   123A      1.411154
     124A      1.439981   125A      1.462923   126A      1.466621
     127A      1.482969   128A      1.511788   129A      1.517713
     130A      1.562998   131A      1.563388   132A      1.599841
     133A      1.639135   134A      1.671124   135A      1.676149
     136A      1.685708   137A      1.695622   138A      1.717369
     139A      1.755870   140A      1.768953   141A      1.774539
     142A      1.818677   143A      1.825737   144A      1.847079
     145A      1.864235   146A      1.877024   147A      1.884543
     148A      1.888361   149A      1.903117   150A      1.911976
     151A      1.920231   152A      1.930485   153A      1.937762
     154A      1.946615   155A      1.951687   156A      1.962439
     157A      1.968301   158A      1.976466   159A      1.982987
     160A      1.986162   161A      1.996722   162A      2.006269
     163A      2.011923   164A      2.025713   165A      2.036589
     166A      2.060786   167A      2.064330   168A      2.079493
     169A      2.099197   170A      2.123290   171A      2.152600
     172A      2.175643   173A      2.199094   174A      2.212398
     175A      2.259561   176A      2.268636   177A      2.277462
     178A      2.299947   179A      2.317019   180A      2.326240
     181A      2.339746   182A      2.350952   183A      2.382280
     184A      2.432898   185A      2.448262   186A      2.469672
     187A      2.504410   188A      2.517720   189A      2.533717
     190A      2.558506   191A      2.567366   192A      2.605340
     193A      2.609851   194A      2.619461   195A      2.640470
     196A      2.674960   197A      2.752741   198A      2.754217
     199A      2.758429   200A      2.772536   201A      2.780071
     202A      2.790407   203A      2.798419   204A      2.821014
     205A      2.829643   206A      2.849571   207A      2.886896
     208A      2.904031   209A      2.920022   210A      2.929941
     211A      2.936882   212A      2.945056   213A      2.958598
     214A      3.014761   215A      3.070666   216A      3.093754
     217A      3.157747   218A      3.250710   219A      3.465100
     220A      3.788603

    Final Occupation by Irrep:
              A
    DOCC [    39 ]

  @RHF Final Energy:  -421.17322002082471

   => Energetics <=

    Nuclear Repulsion Energy =            493.6591426830180467
    One-Electron Energy =               -1548.3293041761810400
    Two-Electron Energy =                 633.4969414723383352
    Total Energy =                       -421.1732200208247150

Computation Completed

Properties will be evaluated at   0.000000,   0.000000,   0.000000 [a0]

Properties computed using the SCF density matrix

  Nuclear Dipole Moment: [e a0]
     X:   -14.2097      Y:    15.1881      Z:    -1.7259

  Electronic Dipole Moment: [e a0]
     X:    15.5552      Y:   -15.3149      Z:     1.5431

  Dipole Moment: [e a0]
     X:     1.3455      Y:    -0.1269      Z:    -0.1828     Total:     1.3638

  Dipole Moment: [D]
     X:     3.4200      Y:    -0.3224      Z:    -0.4647     Total:     3.4665

*** tstop() called on ds3 at Mon Apr 27 20:40:27 2020
Module time:
	user time   =      86.46 seconds =       1.44 minutes
	system time =      43.65 seconds =       0.73 minutes
	total time  =        193 seconds =       3.22 minutes
Total time:
	user time   =      86.46 seconds =       1.44 minutes
	system time =      43.65 seconds =       0.73 minutes
	total time  =        193 seconds =       3.22 minutes
                                     G D M A

                                 by Anthony Stone

                           version 2.2.06, 22 June 2011

               Distributed Multipoles from Gaussian wavefunctions

Starting at 20:40:27 on 27 Apr 2020

Using SCF density matrix from file ./SSI/SSI-069HIE-075ILE-1-dimer.test.15822.fchk

                         Distributed Multipole Analysis

Standard DMA

Positions and radii in angstrom
Multipole moments in atomic units, ea_0^k for rank k

C          x = -0.007640  y = -0.119027  z = -0.899643 angstrom
           Maximum rank =  0   Radius =  0.650 angstrom
                   Q00  =  -0.028099

C          x = -0.380640  y = -0.401027  z = -2.350643 angstrom
           Maximum rank =  0   Radius =  0.650 angstrom
                   Q00  =  -0.234428

C          x =  1.079360  y = -0.998027  z = -0.343643 angstrom
           Maximum rank =  0   Radius =  0.650 angstrom
                   Q00  =   0.233671

C          x =  2.416360  y = -1.038027  z = -0.603643 angstrom
           Maximum rank =  0   Radius =  0.650 angstrom
                   Q00  =  -0.012018

C          x =  1.973360  y = -2.573027  z =  0.913357 angstrom
           Maximum rank =  0   Radius =  0.650 angstrom
                   Q00  =   0.460840

N          x =  0.833360  y = -1.955027  z =  0.620357 angstrom
           Maximum rank =  0   Radius =  0.650 angstrom
                   Q00  =  -0.779243

N          x =  2.955360  y = -2.019027  z =  0.211357 angstrom
           Maximum rank =  0   Radius =  0.650 angstrom
                   Q00  =  -0.476874

H          x =  0.315360  y =  0.910973  z = -0.806643 angstrom
           Maximum rank =  0   Radius =  0.325 angstrom
                   Q00  =   0.059769

H          x = -0.898640  y = -0.247027  z = -0.281643 angstrom
           Maximum rank =  0   Radius =  0.325 angstrom
                   Q00  =   0.090431

H          x = -0.694640  y = -1.443027  z = -2.443643 angstrom
           Maximum rank =  0   Radius =  0.325 angstrom
                   Q00  =   0.090005

H          x =  2.950360  y = -0.396027  z = -1.290643 angstrom
           Maximum rank =  0   Radius =  0.325 angstrom
                   Q00  =   0.100978

H          x =  2.094360  y = -3.360027  z =  1.649357 angstrom
           Maximum rank =  0   Radius =  0.325 angstrom
                   Q00  =   0.123279

H          x =  3.933360  y = -2.272027  z =  0.282357 angstrom
           Maximum rank =  0   Radius =  0.325 angstrom
                   Q00  =   0.219596

H          x =  0.500290  y = -0.195447  z = -2.976506 angstrom
           Maximum rank =  0   Radius =  0.325 angstrom
                   Q00  =   0.072318

H          x = -1.212020  y =  0.263203  z = -2.629216 angstrom
           Maximum rank =  0   Radius =  0.325 angstrom
                   Q00  =   0.081167

C          x = -2.573640  y =  2.273973  z =  0.658357 angstrom
           Maximum rank =  0   Radius =  0.650 angstrom
                   Q00  =  -0.101823

C          x = -2.585640  y =  2.700973  z =  2.135357 angstrom
           Maximum rank =  0   Radius =  0.650 angstrom
                   Q00  =  -0.232757

C          x = -3.070640  y =  3.431973  z = -0.325643 angstrom
           Maximum rank =  0   Radius =  0.650 angstrom
                   Q00  =  -0.268001

H          x = -1.568640  y =  1.967973  z =  0.372357 angstrom
           Maximum rank =  0   Radius =  0.325 angstrom
                   Q00  =   0.058738

H          x = -3.236640  y =  1.421973  z =  0.514357 angstrom
           Maximum rank =  0   Radius =  0.325 angstrom
                   Q00  =   0.051772

H          x = -3.463640  y =  3.321973  z =  2.317357 angstrom
           Maximum rank =  0   Radius =  0.325 angstrom
                   Q00  =   0.073929

H          x = -2.411640  y =  4.297973  z = -0.262643 angstrom
           Maximum rank =  0   Radius =  0.325 angstrom
                   Q00  =   0.080379

H          x = -3.060640  y =  3.066973  z = -1.348643 angstrom
           Maximum rank =  0   Radius =  0.325 angstrom
                   Q00  =   0.087014

H          x = -4.086640  y =  3.728973  z = -0.070643 angstrom
           Maximum rank =  0   Radius =  0.325 angstrom
                   Q00  =   0.084126

H          x = -2.623780  y =  1.826012  z =  2.800927 angstrom
           Maximum rank =  0   Radius =  0.325 angstrom
                   Q00  =   0.088229

H          x = -1.682520  y =  3.296376  z =  2.335017 angstrom
           Maximum rank =  0   Radius =  0.325 angstrom
                   Q00  =   0.077004

Total multipoles referred to origin at
           x =   0.000000,  y =    0.000000,  z =    0.000000 angstrom
                   Q00  =  -0.000000

Finished at 20:40:27 on 27 Apr 2020

  DMA results are available in the Python driver through the
	  variable('DMA DISTRIBUTED MULTIPOLES')
  and
	  variable('DMA TOTAL MULTIPOLES')
  commands.

    Psi4 stopped on: Monday, 27 April 2020 08:40PM
    Psi4 wall time for execution: 0:03:12.57

*** Psi4 exiting successfully. Buy a developer a beer!
