                               Psi4 1.3.2 release

  ==> Input File <==

--------------------------------------------------------------------------
import numpy as np
set {scf_type pk
basis cc-pvdz
d_convergence 10
gdma_switch   0
gdma_limit    0
gdma_origin   [ 0.0,  0.0,  0.0 ]
}
molecule test {
    units Angstrom
    0 1
    --
    0 1
    C               -0.535485282746318    -0.985542624328063    -3.205378905904277
    C                0.508514717253682    -1.350542624328064     0.248621094095723
    C               -0.296485282746318    -1.437542624328064    -1.796378905904277
    C               -0.727485282746318    -2.541542624328063    -1.130378905904277
    N                0.474514717253682    -0.711542624328063    -0.913378905904277
    N               -0.219485282746318    -2.458542624328064     0.147621094095723
    H                0.985514717253682    -0.983542624328063     1.149621094095723
    H               -0.627485282746318    -2.929542624328063     0.955621094095723
    H               -1.419485282746318    -3.288542624328064    -1.503378905904277
    H                0.432514717253682    -0.781542624328063    -3.662378905904277
    H               -1.087485282746318    -0.049542624328064    -3.157378905904277
    H               -1.104786282746318    -1.684392624328064    -3.835858905904277
    C               -0.655485282746318     3.342457375671937     1.263621094095723
    C                0.272514717253682     2.168457375671937     1.522621094095723
    O                1.360514717253682     2.076457375671936     0.954621094095723
    N               -0.144485282746318     1.264457375671936     2.393621094095722
    H               -1.051485282746318     3.683457375671937     2.220621094095723
    H               -1.500485282746318     3.027457375671937     0.659621094095723
    H                0.502514717253682     0.545457375671937     2.660621094095722
    H               -1.038485282746318     1.374457375671936     2.849621094095722
    H               -0.145800282746318     4.184987375671936     0.773341094095723

}
e, wfn = energy('scf', return_wfn=True)
gdma(wfn)
dmavals = variable('DMA DISTRIBUTED MULTIPOLES')
charges = np.array(dmavals)
print(charges)
np.save('SSI-011HIE-015ASN-1-dimer.npy', np.array(charges))--------------------------------------------------------------------------

*** tstart() called on ds3
*** at Tue Apr 28 13:33:23 2020

   => Loading Basis Set <=

    Name: CC-PVDZ
    Role: ORBITAL
    Keyword: BASIS
    atoms 1-4, 13-14  entry C          line   138 file /theoryfs2/ds/metcalf/miniconda2/envs/tf2gpu/share/psi4/basis/cc-pvdz.gbs
    atoms 5-6, 16     entry N          line   168 file /theoryfs2/ds/metcalf/miniconda2/envs/tf2gpu/share/psi4/basis/cc-pvdz.gbs
    atoms 7-12, 17-21 entry H          line    22 file /theoryfs2/ds/metcalf/miniconda2/envs/tf2gpu/share/psi4/basis/cc-pvdz.gbs
    atoms 15          entry O          line   198 file /theoryfs2/ds/metcalf/miniconda2/envs/tf2gpu/share/psi4/basis/cc-pvdz.gbs

         ---------------------------------------------------------
                                   SCF
               by Justin Turney, Rob Parrish, Andy Simmonett
                          and Daniel G. A. Smith
                              RHF Reference
                        1 Threads,    500 MiB Core
         ---------------------------------------------------------

  ==> Geometry <==

    Molecular point group: c1
    Full point group: C1

    Geometry (in Angstrom), charge = 0, multiplicity = 1:

       Center              X                  Y                   Z               Mass
    ------------   -----------------  -----------------  -----------------  -----------------
         C           -0.535485282746    -0.985542624328    -3.205378905904    12.000000000000
         C            0.508514717254    -1.350542624328     0.248621094096    12.000000000000
         C           -0.296485282746    -1.437542624328    -1.796378905904    12.000000000000
         C           -0.727485282746    -2.541542624328    -1.130378905904    12.000000000000
         N            0.474514717254    -0.711542624328    -0.913378905904    14.003074004430
         N           -0.219485282746    -2.458542624328     0.147621094096    14.003074004430
         H            0.985514717254    -0.983542624328     1.149621094096     1.007825032230
         H           -0.627485282746    -2.929542624328     0.955621094096     1.007825032230
         H           -1.419485282746    -3.288542624328    -1.503378905904     1.007825032230
         H            0.432514717254    -0.781542624328    -3.662378905904     1.007825032230
         H           -1.087485282746    -0.049542624328    -3.157378905904     1.007825032230
         H           -1.104786282746    -1.684392624328    -3.835858905904     1.007825032230
         C           -0.655485282746     3.342457375672     1.263621094096    12.000000000000
         C            0.272514717254     2.168457375672     1.522621094096    12.000000000000
         O            1.360514717254     2.076457375672     0.954621094096    15.994914619570
         N           -0.144485282746     1.264457375672     2.393621094096    14.003074004430
         H           -1.051485282746     3.683457375672     2.220621094096     1.007825032230
         H           -1.500485282746     3.027457375672     0.659621094096     1.007825032230
         H            0.502514717254     0.545457375672     2.660621094096     1.007825032230
         H           -1.038485282746     1.374457375672     2.849621094096     1.007825032230
         H           -0.145800282746     4.184987375672     0.773341094096     1.007825032230

  Running in c1 symmetry.

  Rotational constants: A =      0.07204  B =      0.01959  C =      0.01722 [cm^-1]
  Rotational constants: A =   2159.57054  B =    587.21450  C =    516.24651 [MHz]
  Nuclear repulsion =  500.800986929201599

  Charge       = 0
  Multiplicity = 1
  Electrons    = 76
  Nalpha       = 38
  Nbeta        = 38

  ==> Algorithm <==

  SCF Algorithm Type is PK.
  DIIS enabled.
  MOM disabled.
  Fractional occupation disabled.
  Guess Type is SAD.
  Energy threshold   = 1.00e-06
  Density threshold  = 1.00e-10
  Integral threshold = 0.00e+00

  ==> Primary Basis <==

  Basis Set: CC-PVDZ
    Blend: CC-PVDZ
    Number of shells: 93
    Number of basis function: 195
    Number of Cartesian functions: 205
    Spherical Harmonics?: true
    Max angular momentum: 2

  ==> Pre-Iterations <==

   -------------------------------------------------------
    Irrep   Nso     Nmo     Nalpha   Nbeta   Ndocc  Nsocc
   -------------------------------------------------------
     A        195     195       0       0       0       0
   -------------------------------------------------------
    Total     195     195      38      38      38       0
   -------------------------------------------------------

  ==> Integral Setup <==

  Using integral reordering PK algorithm.
  Sizing the integral batches needed.
  Building batch lookup table.
   Calculation information:
      Number of atoms:                  21
      Number of AO shells:              93
      Number of primitives:            275
      Number of atomic orbitals:       205
      Number of basis functions:       195

      Integral cutoff                 1.00e-12
      Number of threads:                 1

	Batch   1 pq = [       0,    9405] index = [             0,44231715] size =     44231715
	Batch   2 pq = [    9405,   13301] index = [      44231715,88464951] size =     44233236
	Batch   3 pq = [   13301,   16290] index = [      88464951,132690195] size =     44225244
	Batch   4 pq = [   16290,   18810] index = [     132690195,176917455] size =     44227260
	Batch   5 pq = [   18810,   19110] index = [     176917455,182605605] size =      5688150
  Task number: 17
  Buffer size: 11059200
  Buffer per thread: 2
  We computed 7399868 shell quartets total.
  Whereas there are 9555006 unique shell quartets.

  ==> DiskJK: Disk-Based J/K Matrices <==

    J tasked:                  Yes
    K tasked:                  Yes
    wK tasked:                  No
    Memory [MiB]:              375
    Schwarz Cutoff:          1E-12

    OpenMP threads:              1

  Minimum eigenvalue in the overlap matrix is 1.2003349922E-03.
  Using Symmetric Orthogonalization.

  SCF Guess: Superposition of Atomic Densities via on-the-fly atomic UHF.

  ==> Iterations <==

                        Total Energy        Delta E     RMS |[F,P]|

   @RHF iter SAD:  -470.80225750294687   -4.70802e+02   0.00000e+00
   @RHF iter   1:  -471.55865328300644   -7.56396e-01   3.70946e-03 DIIS
   @RHF iter   2:  -471.77543027967437   -2.16777e-01   2.22265e-03 DIIS
   @RHF iter   3:  -471.84988176054588   -7.44515e-02   4.68428e-04 DIIS
   @RHF iter   4:  -471.85484207569471   -4.96032e-03   1.73239e-04 DIIS
   @RHF iter   5:  -471.85559912445945   -7.57049e-04   3.25469e-05 DIIS
   @RHF iter   6:  -471.85564860628619   -4.94818e-05   1.62047e-05 DIIS
   @RHF iter   7:  -471.85565922555787   -1.06193e-05   6.19601e-06 DIIS
   @RHF iter   8:  -471.85566131062694   -2.08507e-06   2.21190e-06 DIIS
   @RHF iter   9:  -471.85566159121038   -2.80583e-07   1.02372e-06 DIIS
   @RHF iter  10:  -471.85566162791008   -3.66997e-08   2.54318e-07 DIIS
   @RHF iter  11:  -471.85566163170688   -3.79680e-09   9.40291e-08 DIIS
   @RHF iter  12:  -471.85566163210632   -3.99439e-10   4.25284e-08 DIIS
   @RHF iter  13:  -471.85566163218704   -8.07177e-11   1.39209e-08 DIIS
   @RHF iter  14:  -471.85566163220221   -1.51772e-11   6.19543e-09 DIIS
   @RHF iter  15:  -471.85566163220523   -3.01270e-12   2.55881e-09 DIIS
   @RHF iter  16:  -471.85566163220301    2.21689e-12   7.52816e-10 DIIS
   @RHF iter  17:  -471.85566163220830   -5.28644e-12   2.89437e-10 DIIS
   @RHF iter  18:  -471.85566163220665    1.64846e-12   7.99142e-11 DIIS
  Energy and wave function converged.

  ==> Post-Iterations <==

    Orbital Energies [Eh]
    ---------------------

    Doubly Occupied:

       1A    -20.496611     2A    -15.613249     3A    -15.586751
       4A    -15.521062     5A    -11.340861     6A    -11.286868
       7A    -11.244363     8A    -11.237506     9A    -11.236539
      10A    -11.219184    11A     -1.359759    12A     -1.335795
      13A     -1.215849    14A     -1.147162    15A     -1.024649
      16A     -0.994528    17A     -0.936535    18A     -0.808950
      19A     -0.796488    20A     -0.755411    21A     -0.737042
      22A     -0.727849    23A     -0.647189    24A     -0.611560
      25A     -0.607620    26A     -0.594363    27A     -0.586761
      28A     -0.563428    29A     -0.552073    30A     -0.547233
      31A     -0.533489    32A     -0.519682    33A     -0.515730
      34A     -0.405104    35A     -0.401350    36A     -0.394593
      37A     -0.371935    38A     -0.304377

    Virtual:

      39A      0.158110    40A      0.176379    41A      0.191789
      42A      0.202217    43A      0.206735    44A      0.211371
      45A      0.229765    46A      0.237361    47A      0.241589
      48A      0.262524    49A      0.276978    50A      0.284215
      51A      0.308833    52A      0.325103    53A      0.379148
      54A      0.387647    55A      0.396163    56A      0.416482
      57A      0.478194    58A      0.480462    59A      0.499332
      60A      0.552165    61A      0.609491    62A      0.620992
      63A      0.635125    64A      0.640816    65A      0.647425
      66A      0.669545    67A      0.684549    68A      0.704728
      69A      0.712867    70A      0.733641    71A      0.744162
      72A      0.750401    73A      0.771424    74A      0.796996
      75A      0.802973    76A      0.834432    77A      0.842157
      78A      0.850087    79A      0.862412    80A      0.873489
      81A      0.889946    82A      0.890727    83A      0.903210
      84A      0.907197    85A      0.924665    86A      0.947441
      87A      0.964019    88A      0.971154    89A      0.994845
      90A      1.003752    91A      1.019366    92A      1.032199
      93A      1.061785    94A      1.086934    95A      1.089587
      96A      1.108373    97A      1.128121    98A      1.148316
      99A      1.153672   100A      1.165657   101A      1.206015
     102A      1.239860   103A      1.253899   104A      1.313470
     105A      1.324928   106A      1.325853   107A      1.345930
     108A      1.365367   109A      1.385477   110A      1.396102
     111A      1.428888   112A      1.447945   113A      1.463381
     114A      1.481311   115A      1.490442   116A      1.506018
     117A      1.527182   118A      1.590643   119A      1.608811
     120A      1.651075   121A      1.652129   122A      1.669179
     123A      1.693566   124A      1.695073   125A      1.739681
     126A      1.791420   127A      1.803310   128A      1.812582
     129A      1.821263   130A      1.856112   131A      1.867185
     132A      1.883713   133A      1.909287   134A      1.915910
     135A      1.918280   136A      1.932760   137A      1.944242
     138A      1.964508   139A      1.970591   140A      1.981859
     141A      1.988864   142A      2.020777   143A      2.044005
     144A      2.048564   145A      2.082668   146A      2.090825
     147A      2.125112   148A      2.139262   149A      2.142981
     150A      2.157424   151A      2.201746   152A      2.226400
     153A      2.228423   154A      2.276038   155A      2.284919
     156A      2.371747   157A      2.415982   158A      2.423688
     159A      2.436654   160A      2.454202   161A      2.489477
     162A      2.496895   163A      2.506049   164A      2.532089
     165A      2.567567   166A      2.576049   167A      2.613840
     168A      2.623381   169A      2.699152   170A      2.716984
     171A      2.731848   172A      2.741404   173A      2.749329
     174A      2.776943   175A      2.801121   176A      2.807864
     177A      2.827832   178A      2.878031   179A      2.882270
     180A      2.906551   181A      2.943561   182A      2.988008
     183A      3.001916   184A      3.069106   185A      3.098752
     186A      3.149903   187A      3.171436   188A      3.260215
     189A      3.305634   190A      3.469050   191A      3.503928
     192A      3.548689   193A      3.739258   194A      3.867934
     195A      3.910690

    Final Occupation by Irrep:
              A
    DOCC [    38 ]

  @RHF Final Energy:  -471.85566163220665

   => Energetics <=

    Nuclear Repulsion Energy =            500.8009869292015992
    One-Electron Energy =               -1635.7543018399526318
    Two-Electron Energy =                 663.0976532785443851
    Total Energy =                       -471.8556616322066475

Computation Completed

Properties will be evaluated at   0.000000,   0.000000,   0.000000 [a0]

Properties computed using the SCF density matrix

  Nuclear Dipole Moment: [e a0]
     X:    -5.6701      Y:     2.9205      Z:    -0.8344

  Electronic Dipole Moment: [e a0]
     X:     3.7419      Y:    -3.8100      Z:     2.4526

  Dipole Moment: [e a0]
     X:    -1.9283      Y:    -0.8895      Z:     1.6181     Total:     2.6698

  Dipole Moment: [D]
     X:    -4.9012      Y:    -2.2609      Z:     4.1129     Total:     6.7860

*** tstop() called on ds3 at Tue Apr 28 13:36:03 2020
Module time:
	user time   =      57.78 seconds =       0.96 minutes
	system time =      28.57 seconds =       0.48 minutes
	total time  =        160 seconds =       2.67 minutes
Total time:
	user time   =      57.78 seconds =       0.96 minutes
	system time =      28.57 seconds =       0.48 minutes
	total time  =        160 seconds =       2.67 minutes
                                     G D M A

                                 by Anthony Stone

                           version 2.2.06, 22 June 2011

               Distributed Multipoles from Gaussian wavefunctions

Starting at 13:36:4 on 28 Apr 2020

Using SCF density matrix from file ./SSI/SSI-011HIE-015ASN-1-dimer.test.16368.fchk

                         Distributed Multipole Analysis

Standard DMA

Positions and radii in angstrom
Multipole moments in atomic units, ea_0^k for rank k

C          x = -0.535485  y = -0.985543  z = -3.205379 angstrom
           Maximum rank =  0   Radius =  0.650 angstrom
                   Q00  =  -0.197359

C          x =  0.508515  y = -1.350543  z =  0.248621 angstrom
           Maximum rank =  0   Radius =  0.650 angstrom
                   Q00  =   0.466688

C          x = -0.296485  y = -1.437543  z = -1.796379 angstrom
           Maximum rank =  0   Radius =  0.650 angstrom
                   Q00  =   0.230266

C          x = -0.727485  y = -2.541543  z = -1.130379 angstrom
           Maximum rank =  0   Radius =  0.650 angstrom
                   Q00  =  -0.008795

N          x =  0.474515  y = -0.711543  z = -0.913379 angstrom
           Maximum rank =  0   Radius =  0.650 angstrom
                   Q00  =  -0.759714

N          x = -0.219485  y = -2.458543  z =  0.147621 angstrom
           Maximum rank =  0   Radius =  0.650 angstrom
                   Q00  =  -0.470986

H          x =  0.985515  y = -0.983543  z =  1.149621 angstrom
           Maximum rank =  0   Radius =  0.325 angstrom
                   Q00  =   0.114771

H          x = -0.627485  y = -2.929543  z =  0.955621 angstrom
           Maximum rank =  0   Radius =  0.325 angstrom
                   Q00  =   0.207822

H          x = -1.419485  y = -3.288543  z = -1.503379 angstrom
           Maximum rank =  0   Radius =  0.325 angstrom
                   Q00  =   0.099645

H          x =  0.432515  y = -0.781543  z = -3.662379 angstrom
           Maximum rank =  0   Radius =  0.325 angstrom
                   Q00  =   0.118847

H          x = -1.087485  y = -0.049543  z = -3.157379 angstrom
           Maximum rank =  0   Radius =  0.325 angstrom
                   Q00  =   0.107770

H          x = -1.104786  y = -1.684393  z = -3.835859 angstrom
           Maximum rank =  0   Radius =  0.325 angstrom
                   Q00  =   0.089822

C          x = -0.655485  y =  3.342457  z =  1.263621 angstrom
           Maximum rank =  0   Radius =  0.650 angstrom
                   Q00  =  -0.258268

C          x =  0.272515  y =  2.168457  z =  1.522621 angstrom
           Maximum rank =  0   Radius =  0.650 angstrom
                   Q00  =   0.807204

O          x =  1.360515  y =  2.076457  z =  0.954621 angstrom
           Maximum rank =  0   Radius =  0.650 angstrom
                   Q00  =  -0.772978

N          x = -0.144485  y =  1.264457  z =  2.393621 angstrom
           Maximum rank =  0   Radius =  0.650 angstrom
                   Q00  =  -0.526240

H          x = -1.051485  y =  3.683457  z =  2.220621 angstrom
           Maximum rank =  0   Radius =  0.325 angstrom
                   Q00  =   0.082567

H          x = -1.500485  y =  3.027457  z =  0.659621 angstrom
           Maximum rank =  0   Radius =  0.325 angstrom
                   Q00  =   0.119133

H          x =  0.502515  y =  0.545457  z =  2.660621 angstrom
           Maximum rank =  0   Radius =  0.325 angstrom
                   Q00  =   0.212848

H          x = -1.038485  y =  1.374457  z =  2.849621 angstrom
           Maximum rank =  0   Radius =  0.325 angstrom
                   Q00  =   0.203776

H          x = -0.145800  y =  4.184987  z =  0.773341 angstrom
           Maximum rank =  0   Radius =  0.325 angstrom
                   Q00  =   0.133181

Total multipoles referred to origin at
           x =   0.000000,  y =    0.000000,  z =    0.000000 angstrom
                   Q00  =  -0.000000

Finished at 13:36:4 on 28 Apr 2020

  DMA results are available in the Python driver through the
	  variable('DMA DISTRIBUTED MULTIPOLES')
  and
	  variable('DMA TOTAL MULTIPOLES')
  commands.

    Psi4 stopped on: Tuesday, 28 April 2020 01:36PM
    Psi4 wall time for execution: 0:02:40.91

*** Psi4 exiting successfully. Buy a developer a beer!
