                               Psi4 1.3.2 release

  ==> Input File <==

--------------------------------------------------------------------------
import numpy as np
set {scf_type pk
basis cc-pvdz
d_convergence 10
gdma_switch   0
gdma_limit    0
gdma_origin   [ 0.0,  0.0,  0.0 ]
}
molecule test {
    units Angstrom
    -1 1
    --
    -1 1
    C               -1.218944595005493    -1.210984877544431    -0.216287911878356
    C               -2.286944595005493    -1.453984877544430    -1.246287911878357
    C               -0.007944595005493    -2.108984877544431    -0.417287911878356
    O               -0.033944595005493    -3.066984877544430    -1.191287911878357
    N                1.045055404994507    -1.826984877544430     0.324712088121644
    H               -0.898944595005493    -0.174984877544430    -0.294287911878356
    H               -1.615944595005493    -1.379984877544431     0.784712088121644
    H               -2.632944595005493    -2.484984877544430    -1.187287911878356
    H               -1.851944595005493    -1.293984877544430    -2.235287911878356
    H                1.844055404994507    -2.443984877544430     0.331712088121644
    H                1.038055404994507    -1.001984877544430     0.927712088121644
    H               -3.154014595005493    -0.785514877544430    -1.139793211878356
    C               -0.408944595005493     2.358015122455570     0.926712088121644
    C               -0.855944595005493     3.116015122455570    -0.322287911878356
    C                0.896055404994507     1.610015122455569     0.763712088121644
    O                1.597055404994507     1.816015122455570    -0.263287911878356
    O                1.164055404994507     0.800015122455570     1.671712088121643
    H               -0.317944595005493     3.069015122455570     1.750712088121643
    H               -1.193944595005493     1.648015122455570     1.190712088121644
    H               -0.717944595005493     2.440015122455570    -1.164287911878356
    H               -0.178944595005493     3.960015122455570    -0.468287911878356
    H               -1.891754595005493     3.484254122455570    -0.361049911878356

}
e, wfn = energy('scf', return_wfn=True)
gdma(wfn)
dmavals = variable('DMA DISTRIBUTED MULTIPOLES')
charges = np.array(dmavals)
print(charges)
np.save('SSI-078GLN-088GLU-1-dimer.npy', np.array(charges))--------------------------------------------------------------------------

*** tstart() called on ds3
*** at Sun Apr 26 17:16:33 2020

   => Loading Basis Set <=

    Name: CC-PVDZ
    Role: ORBITAL
    Keyword: BASIS
    atoms 1-3, 13-15  entry C          line   138 file /theoryfs2/ds/metcalf/miniconda2/envs/tf2gpu/share/psi4/basis/cc-pvdz.gbs
    atoms 4, 16-17    entry O          line   198 file /theoryfs2/ds/metcalf/miniconda2/envs/tf2gpu/share/psi4/basis/cc-pvdz.gbs
    atoms 5           entry N          line   168 file /theoryfs2/ds/metcalf/miniconda2/envs/tf2gpu/share/psi4/basis/cc-pvdz.gbs
    atoms 6-12, 18-22 entry H          line    22 file /theoryfs2/ds/metcalf/miniconda2/envs/tf2gpu/share/psi4/basis/cc-pvdz.gbs

         ---------------------------------------------------------
                                   SCF
               by Justin Turney, Rob Parrish, Andy Simmonett
                          and Daniel G. A. Smith
                              RHF Reference
                        1 Threads,    500 MiB Core
         ---------------------------------------------------------

  ==> Geometry <==

    Molecular point group: c1
    Full point group: C1

    Geometry (in Angstrom), charge = -1, multiplicity = 1:

       Center              X                  Y                   Z               Mass
    ------------   -----------------  -----------------  -----------------  -----------------
         C           -1.218944595005    -1.210984877544    -0.216287911878    12.000000000000
         C           -2.286944595005    -1.453984877544    -1.246287911878    12.000000000000
         C           -0.007944595005    -2.108984877544    -0.417287911878    12.000000000000
         O           -0.033944595005    -3.066984877544    -1.191287911878    15.994914619570
         N            1.045055404995    -1.826984877544     0.324712088122    14.003074004430
         H           -0.898944595005    -0.174984877544    -0.294287911878     1.007825032230
         H           -1.615944595005    -1.379984877544     0.784712088122     1.007825032230
         H           -2.632944595005    -2.484984877544    -1.187287911878     1.007825032230
         H           -1.851944595005    -1.293984877544    -2.235287911878     1.007825032230
         H            1.844055404995    -2.443984877544     0.331712088122     1.007825032230
         H            1.038055404995    -1.001984877544     0.927712088122     1.007825032230
         H           -3.154014595005    -0.785514877544    -1.139793211878     1.007825032230
         C           -0.408944595005     2.358015122456     0.926712088122    12.000000000000
         C           -0.855944595005     3.116015122456    -0.322287911878    12.000000000000
         C            0.896055404995     1.610015122456     0.763712088122    12.000000000000
         O            1.597055404995     1.816015122456    -0.263287911878    15.994914619570
         O            1.164055404995     0.800015122456     1.671712088122    15.994914619570
         H           -0.317944595005     3.069015122456     1.750712088122     1.007825032230
         H           -1.193944595005     1.648015122456     1.190712088122     1.007825032230
         H           -0.717944595005     2.440015122456    -1.164287911878     1.007825032230
         H           -0.178944595005     3.960015122456    -0.468287911878     1.007825032230
         H           -1.891754595005     3.484254122456    -0.361049911878     1.007825032230

  Running in c1 symmetry.

  Rotational constants: A =      0.05798  B =      0.02270  C =      0.01847 [cm^-1]
  Rotational constants: A =   1738.28175  B =    680.47988  C =    553.67273 [MHz]
  Nuclear repulsion =  536.409988282478594

  Charge       = -1
  Multiplicity = 1
  Electrons    = 80
  Nalpha       = 40
  Nbeta        = 40

  ==> Algorithm <==

  SCF Algorithm Type is PK.
  DIIS enabled.
  MOM disabled.
  Fractional occupation disabled.
  Guess Type is SAD.
  Energy threshold   = 1.00e-06
  Density threshold  = 1.00e-10
  Integral threshold = 0.00e+00

  ==> Primary Basis <==

  Basis Set: CC-PVDZ
    Blend: CC-PVDZ
    Number of shells: 96
    Number of basis function: 200
    Number of Cartesian functions: 210
    Spherical Harmonics?: true
    Max angular momentum: 2

  ==> Pre-Iterations <==

   -------------------------------------------------------
    Irrep   Nso     Nmo     Nalpha   Nbeta   Ndocc  Nsocc
   -------------------------------------------------------
     A        200     200       0       0       0       0
   -------------------------------------------------------
    Total     200     200      40      40      40       0
   -------------------------------------------------------

  ==> Integral Setup <==

  Using integral reordering PK algorithm.
  Sizing the integral batches needed.
  Building batch lookup table.
   Calculation information:
      Number of atoms:                  22
      Number of AO shells:              96
      Number of primitives:            280
      Number of atomic orbitals:       210
      Number of basis functions:       200

      Integral cutoff                 1.00e-12
      Number of threads:                 1

	Batch   1 pq = [       0,    9405] index = [             0,44231715] size =     44231715
	Batch   2 pq = [    9405,   13301] index = [      44231715,88464951] size =     44233236
	Batch   3 pq = [   13301,   16290] index = [      88464951,132690195] size =     44225244
	Batch   4 pq = [   16290,   18810] index = [     132690195,176917455] size =     44227260
	Batch   5 pq = [   18810,   20100] index = [     176917455,202015050] size =     25097595
  Task number: 19
  Buffer size: 11059200
  Buffer per thread: 2
  We computed 10129465 shell quartets total.
  Whereas there are 10841496 unique shell quartets.

  ==> DiskJK: Disk-Based J/K Matrices <==

    J tasked:                  Yes
    K tasked:                  Yes
    wK tasked:                  No
    Memory [MiB]:              375
    Schwarz Cutoff:          1E-12

    OpenMP threads:              1

  Minimum eigenvalue in the overlap matrix is 2.9057128630E-03.
  Using Symmetric Orthogonalization.

  SCF Guess: Superposition of Atomic Densities via on-the-fly atomic UHF.

  ==> Iterations <==

                        Total Energy        Delta E     RMS |[F,P]|

   @RHF iter SAD:  -511.58170888513297   -5.11582e+02   0.00000e+00
   @RHF iter   1:  -512.96879595187852   -1.38709e+00   4.32335e-03 DIIS
   @RHF iter   2:  -513.24498341228559   -2.76187e-01   2.46454e-03 DIIS
   @RHF iter   3:  -513.33343411185740   -8.84507e-02   4.17056e-04 DIIS
   @RHF iter   4:  -513.33771112647457   -4.27701e-03   1.73673e-04 DIIS
   @RHF iter   5:  -513.33846920504800   -7.58079e-04   3.02780e-05 DIIS
   @RHF iter   6:  -513.33850149686623   -3.22918e-05   1.54462e-05 DIIS
   @RHF iter   7:  -513.33850797763637   -6.48077e-06   4.18575e-06 DIIS
   @RHF iter   8:  -513.33850901319943   -1.03556e-06   1.82083e-06 DIIS
   @RHF iter   9:  -513.33850919717440   -1.83975e-07   7.55339e-07 DIIS
   @RHF iter  10:  -513.33850922334500   -2.61706e-08   2.19487e-07 DIIS
   @RHF iter  11:  -513.33850922521049   -1.86549e-09   8.41743e-08 DIIS
   @RHF iter  12:  -513.33850922541535   -2.04864e-10   2.17454e-08 DIIS
   @RHF iter  13:  -513.33850922543741   -2.20552e-11   7.12999e-09 DIIS
   @RHF iter  14:  -513.33850922543957   -2.16005e-12   2.26405e-09 DIIS
   @RHF iter  15:  -513.33850922543661    2.95586e-12   9.33289e-10 DIIS
   @RHF iter  16:  -513.33850922543957   -2.95586e-12   4.03431e-10 DIIS
   @RHF iter  17:  -513.33850922543718    2.38742e-12   1.62345e-10 DIIS
   @RHF iter  18:  -513.33850922543775   -5.68434e-13   5.80792e-11 DIIS
  Energy and wave function converged.

  ==> Post-Iterations <==

    Orbital Energies [Eh]
    ---------------------

    Doubly Occupied:

       1A    -20.372726     2A    -20.298036     3A    -20.294503
       4A    -15.431061     5A    -11.209915     6A    -11.147028
       7A    -11.110501     8A    -11.109128     9A    -11.081562
      10A    -11.071830    11A     -1.234883    12A     -1.183946
      13A     -1.074941    14A     -1.067000    15A     -0.929698
      16A     -0.887102    17A     -0.763946    18A     -0.720865
      19A     -0.641706    20A     -0.573153    21A     -0.536115
      22A     -0.531820    23A     -0.515545    24A     -0.476985
      25A     -0.462342    26A     -0.455635    27A     -0.423255
      28A     -0.419340    29A     -0.402543    30A     -0.389572
      31A     -0.387385    32A     -0.372127    33A     -0.364904
      34A     -0.338649    35A     -0.324156    36A     -0.280179
      37A     -0.261338    38A     -0.213397    39A     -0.209389
      40A     -0.198252

    Virtual:

      41A      0.290063    42A      0.319270    43A      0.330237
      44A      0.340101    45A      0.354170    46A      0.360301
      47A      0.369719    48A      0.374965    49A      0.388245
      50A      0.396107    51A      0.420025    52A      0.452506
      53A      0.474387    54A      0.503191    55A      0.520128
      56A      0.543254    57A      0.561957    58A      0.594900
      59A      0.600260    60A      0.669352    61A      0.692038
      62A      0.721792    63A      0.723769    64A      0.749998
      65A      0.770885    66A      0.785902    67A      0.798670
      68A      0.825454    69A      0.864527    70A      0.882520
      71A      0.907876    72A      0.933157    73A      0.940010
      74A      0.963110    75A      0.973403    76A      0.986444
      77A      0.991097    78A      1.001939    79A      1.005181
      80A      1.006351    81A      1.015902    82A      1.018369
      83A      1.021966    84A      1.032648    85A      1.041651
      86A      1.045502    87A      1.065379    88A      1.077729
      89A      1.089826    90A      1.104952    91A      1.116790
      92A      1.147585    93A      1.189271    94A      1.205113
      95A      1.234956    96A      1.250929    97A      1.260083
      98A      1.289616    99A      1.315230   100A      1.330896
     101A      1.384179   102A      1.412009   103A      1.425339
     104A      1.469498   105A      1.483361   106A      1.493665
     107A      1.518206   108A      1.542072   109A      1.545026
     110A      1.558065   111A      1.582340   112A      1.617681
     113A      1.633634   114A      1.638367   115A      1.655459
     116A      1.689086   117A      1.711039   118A      1.738202
     119A      1.784384   120A      1.800339   121A      1.810112
     122A      1.827343   123A      1.848303   124A      1.890484
     125A      1.904476   126A      1.929380   127A      1.973559
     128A      1.986858   129A      1.998205   130A      2.007644
     131A      2.027336   132A      2.044634   133A      2.059866
     134A      2.068670   135A      2.080045   136A      2.091110
     137A      2.100178   138A      2.116618   139A      2.128175
     140A      2.129080   141A      2.149800   142A      2.152567
     143A      2.168018   144A      2.186848   145A      2.199606
     146A      2.207584   147A      2.217201   148A      2.238943
     149A      2.297623   150A      2.313499   151A      2.345306
     152A      2.363208   153A      2.409708   154A      2.430274
     155A      2.466637   156A      2.468906   157A      2.490107
     158A      2.509556   159A      2.525998   160A      2.569850
     161A      2.590498   162A      2.626779   163A      2.643846
     164A      2.680435   165A      2.712095   166A      2.720310
     167A      2.731926   168A      2.742280   169A      2.762452
     170A      2.800016   171A      2.826844   172A      2.868306
     173A      2.887472   174A      2.907505   175A      2.970074
     176A      2.973070   177A      2.998623   178A      3.027876
     179A      3.034319   180A      3.058871   181A      3.104765
     182A      3.125069   183A      3.180692   184A      3.212825
     185A      3.241356   186A      3.259827   187A      3.282327
     188A      3.290879   189A      3.336308   190A      3.470323
     191A      3.596669   192A      3.646761   193A      3.686318
     194A      3.785252   195A      3.811742   196A      3.990413
     197A      4.027156   198A      4.041248   199A      4.068779
     200A      4.179109

    Final Occupation by Irrep:
              A
    DOCC [    40 ]

  @RHF Final Energy:  -513.33850922543775

   => Energetics <=

    Nuclear Repulsion Energy =            536.4099882824785936
    One-Electron Energy =               -1779.9640716912936114
    Two-Electron Energy =                 730.2155741833773845
    Total Energy =                       -513.3385092254377469

Computation Completed

Properties will be evaluated at   0.000000,   0.000000,   0.000000 [a0]

Properties computed using the SCF density matrix

  Nuclear Dipole Moment: [e a0]
     X:   -10.8385      Y:     4.7241      Z:    -1.7480

  Electronic Dipole Moment: [e a0]
     X:     8.9011      Y:    -5.2704      Z:     1.9540

  Dipole Moment: [e a0]
     X:    -1.9375      Y:    -0.5462      Z:     0.2060     Total:     2.0235

  Dipole Moment: [D]
     X:    -4.9246      Y:    -1.3884      Z:     0.5235     Total:     5.1433

*** tstop() called on ds3 at Sun Apr 26 17:19:09 2020
Module time:
	user time   =      83.51 seconds =       1.39 minutes
	system time =      44.59 seconds =       0.74 minutes
	total time  =        156 seconds =       2.60 minutes
Total time:
	user time   =      83.51 seconds =       1.39 minutes
	system time =      44.59 seconds =       0.74 minutes
	total time  =        156 seconds =       2.60 minutes
                                     G D M A

                                 by Anthony Stone

                           version 2.2.06, 22 June 2011

               Distributed Multipoles from Gaussian wavefunctions

Starting at 17:19:9 on 26 Apr 2020

Using SCF density matrix from file ./SSI/SSI-078GLN-088GLU-1-dimer.test.18038.fchk

                         Distributed Multipole Analysis

Standard DMA

Positions and radii in angstrom
Multipole moments in atomic units, ea_0^k for rank k

C          x = -1.218945  y = -1.210985  z = -0.216288 angstrom
           Maximum rank =  0   Radius =  0.650 angstrom
                   Q00  =  -0.160763

C          x = -2.286945  y = -1.453985  z = -1.246288 angstrom
           Maximum rank =  0   Radius =  0.650 angstrom
                   Q00  =  -0.220050

C          x = -0.007945  y = -2.108985  z = -0.417288 angstrom
           Maximum rank =  0   Radius =  0.650 angstrom
                   Q00  =   0.909687

O          x = -0.033945  y = -3.066985  z = -1.191288 angstrom
           Maximum rank =  0   Radius =  0.650 angstrom
                   Q00  =  -0.875134

N          x =  1.045055  y = -1.826985  z =  0.324712 angstrom
           Maximum rank =  0   Radius =  0.650 angstrom
                   Q00  =  -0.568214

H          x = -0.898945  y = -0.174985  z = -0.294288 angstrom
           Maximum rank =  0   Radius =  0.325 angstrom
                   Q00  =   0.103702

H          x = -1.615945  y = -1.379985  z =  0.784712 angstrom
           Maximum rank =  0   Radius =  0.325 angstrom
                   Q00  =   0.082085

H          x = -2.632945  y = -2.484985  z = -1.187288 angstrom
           Maximum rank =  0   Radius =  0.325 angstrom
                   Q00  =   0.084463

H          x = -1.851945  y = -1.293985  z = -2.235288 angstrom
           Maximum rank =  0   Radius =  0.325 angstrom
                   Q00  =   0.092172

H          x =  1.844055  y = -2.443985  z =  0.331712 angstrom
           Maximum rank =  0   Radius =  0.325 angstrom
                   Q00  =   0.187601

H          x =  1.038055  y = -1.001985  z =  0.927712 angstrom
           Maximum rank =  0   Radius =  0.325 angstrom
                   Q00  =   0.271991

H          x = -3.154015  y = -0.785515  z = -1.139793 angstrom
           Maximum rank =  0   Radius =  0.325 angstrom
                   Q00  =   0.058261

C          x = -0.408945  y =  2.358015  z =  0.926712 angstrom
           Maximum rank =  0   Radius =  0.650 angstrom
                   Q00  =  -0.137933

C          x = -0.855945  y =  3.116015  z = -0.322288 angstrom
           Maximum rank =  0   Radius =  0.650 angstrom
                   Q00  =  -0.254686

C          x =  0.896055  y =  1.610015  z =  0.763712 angstrom
           Maximum rank =  0   Radius =  0.650 angstrom
                   Q00  =   1.009555

O          x =  1.597055  y =  1.816015  z = -0.263288 angstrom
           Maximum rank =  0   Radius =  0.650 angstrom
                   Q00  =  -0.949229

O          x =  1.164055  y =  0.800015  z =  1.671712 angstrom
           Maximum rank =  0   Radius =  0.650 angstrom
                   Q00  =  -0.929175

H          x = -0.317945  y =  3.069015  z =  1.750712 angstrom
           Maximum rank =  0   Radius =  0.325 angstrom
                   Q00  =   0.058587

H          x = -1.193945  y =  1.648015  z =  1.190712 angstrom
           Maximum rank =  0   Radius =  0.325 angstrom
                   Q00  =   0.038475

H          x = -0.717945  y =  2.440015  z = -1.164288 angstrom
           Maximum rank =  0   Radius =  0.325 angstrom
                   Q00  =   0.091086

H          x = -0.178945  y =  3.960015  z = -0.468288 angstrom
           Maximum rank =  0   Radius =  0.325 angstrom
                   Q00  =   0.078155

H          x = -1.891755  y =  3.484254  z = -0.361050 angstrom
           Maximum rank =  0   Radius =  0.325 angstrom
                   Q00  =   0.029364

Total multipoles referred to origin at
           x =   0.000000,  y =    0.000000,  z =    0.000000 angstrom
                   Q00  =  -1.000000

Finished at 17:19:9 on 26 Apr 2020

  DMA results are available in the Python driver through the
	  variable('DMA DISTRIBUTED MULTIPOLES')
  and
	  variable('DMA TOTAL MULTIPOLES')
  commands.

    Psi4 stopped on: Sunday, 26 April 2020 05:19PM
    Psi4 wall time for execution: 0:02:36.69

*** Psi4 exiting successfully. Buy a developer a beer!
