                               Psi4 1.3.2 release

  ==> Input File <==

--------------------------------------------------------------------------
import numpy as np
set {scf_type pk
basis cc-pvdz
d_convergence 10
gdma_switch   0
gdma_limit    0
gdma_origin   [ 0.0,  0.0,  0.0 ]
}
molecule test {
    units Angstrom
    0 1
    --
    0 1
    C               -1.256968554988172     1.297853614514080    -1.758907095010839
    C               -2.238968554988172     2.064853614514080    -2.657907095010839
    S                0.466031445011828     1.197853614514080    -2.312907095010839
    H               -1.286968554988172     1.707853614514080    -0.746907095010839
    H               -1.627968554988172     0.271853614514080    -1.682907095010839
    H               -3.243968554988172     1.764853614514080    -2.353907095010839
    H                0.801031445011828     0.135853614514080    -1.557907095010839
    H               -2.125988554988172     1.754523614514080    -3.707157095010839
    H               -2.190648554988172     3.141693614514080    -2.438647095010839
    C                2.639031445011828    -0.801146385485920     1.572092904989161
    C               -0.928968554988172    -1.207146385485920     1.050092904989161
    C                1.157031445011828    -0.992146385485920     1.707092904989161
    C                0.380031445011828    -1.101146385485920     2.815092904989161
    N                0.317031445011828    -1.061146385485920     0.612092904989161
    N               -0.916968554988172    -1.234146385485920     2.376092904989161
    H               -1.810968554988172    -1.304146385485920     0.429092904989161
    H               -1.739968554988172    -1.374146385485920     2.965092904989161
    H                0.712031445011828    -1.085146385485920     3.841092904989162
    H                3.043031445011828    -1.654146385485920     1.026092904989161
    H                3.086031445011828    -0.796146385485920     2.565092904989161
    H                2.898341445011828     0.125893614514080     1.039782904989161

}
e, wfn = energy('scf', return_wfn=True)
gdma(wfn)
dmavals = variable('DMA DISTRIBUTED MULTIPOLES')
charges = np.array(dmavals)
print(charges)
np.save('SSI-018CYS-132HIE-1-dimer.npy', np.array(charges))--------------------------------------------------------------------------

*** tstart() called on ds3
*** at Mon Apr 27 06:39:33 2020

   => Loading Basis Set <=

    Name: CC-PVDZ
    Role: ORBITAL
    Keyword: BASIS
    atoms 1-2, 10-13 entry C          line   138 file /theoryfs2/ds/metcalf/miniconda2/envs/tf2gpu/share/psi4/basis/cc-pvdz.gbs
    atoms 3          entry S          line   598 file /theoryfs2/ds/metcalf/miniconda2/envs/tf2gpu/share/psi4/basis/cc-pvdz.gbs
    atoms 4-9, 16-21 entry H          line    22 file /theoryfs2/ds/metcalf/miniconda2/envs/tf2gpu/share/psi4/basis/cc-pvdz.gbs
    atoms 14-15      entry N          line   168 file /theoryfs2/ds/metcalf/miniconda2/envs/tf2gpu/share/psi4/basis/cc-pvdz.gbs

         ---------------------------------------------------------
                                   SCF
               by Justin Turney, Rob Parrish, Andy Simmonett
                          and Daniel G. A. Smith
                              RHF Reference
                        1 Threads,    500 MiB Core
         ---------------------------------------------------------

  ==> Geometry <==

    Molecular point group: c1
    Full point group: C1

    Geometry (in Angstrom), charge = 0, multiplicity = 1:

       Center              X                  Y                   Z               Mass
    ------------   -----------------  -----------------  -----------------  -----------------
         C           -1.256968554988     1.297853614514    -1.758907095011    12.000000000000
         C           -2.238968554988     2.064853614514    -2.657907095011    12.000000000000
         S            0.466031445012     1.197853614514    -2.312907095011    31.972071174400
         H           -1.286968554988     1.707853614514    -0.746907095011     1.007825032230
         H           -1.627968554988     0.271853614514    -1.682907095011     1.007825032230
         H           -3.243968554988     1.764853614514    -2.353907095011     1.007825032230
         H            0.801031445012     0.135853614514    -1.557907095011     1.007825032230
         H           -2.125988554988     1.754523614514    -3.707157095011     1.007825032230
         H           -2.190648554988     3.141693614514    -2.438647095011     1.007825032230
         C            2.639031445012    -0.801146385486     1.572092904989    12.000000000000
         C           -0.928968554988    -1.207146385486     1.050092904989    12.000000000000
         C            1.157031445012    -0.992146385486     1.707092904989    12.000000000000
         C            0.380031445012    -1.101146385486     2.815092904989    12.000000000000
         N            0.317031445012    -1.061146385486     0.612092904989    14.003074004430
         N           -0.916968554988    -1.234146385486     2.376092904989    14.003074004430
         H           -1.810968554988    -1.304146385486     0.429092904989     1.007825032230
         H           -1.739968554988    -1.374146385486     2.965092904989     1.007825032230
         H            0.712031445012    -1.085146385486     3.841092904989     1.007825032230
         H            3.043031445012    -1.654146385486     1.026092904989     1.007825032230
         H            3.086031445012    -0.796146385486     2.565092904989     1.007825032230
         H            2.898341445012     0.125893614514     1.039782904989     1.007825032230

  Running in c1 symmetry.

  Rotational constants: A =      0.06953  B =      0.01878  C =      0.01539 [cm^-1]
  Rotational constants: A =   2084.32640  B =    563.03936  C =    461.35617 [MHz]
  Nuclear repulsion =  491.157155043445073

  Charge       = 0
  Multiplicity = 1
  Electrons    = 78
  Nalpha       = 39
  Nbeta        = 39

  ==> Algorithm <==

  SCF Algorithm Type is PK.
  DIIS enabled.
  MOM disabled.
  Fractional occupation disabled.
  Guess Type is SAD.
  Energy threshold   = 1.00e-06
  Density threshold  = 1.00e-10
  Integral threshold = 0.00e+00

  ==> Primary Basis <==

  Basis Set: CC-PVDZ
    Blend: CC-PVDZ
    Number of shells: 92
    Number of basis function: 190
    Number of Cartesian functions: 199
    Spherical Harmonics?: true
    Max angular momentum: 2

  ==> Pre-Iterations <==

   -------------------------------------------------------
    Irrep   Nso     Nmo     Nalpha   Nbeta   Ndocc  Nsocc
   -------------------------------------------------------
     A        190     190       0       0       0       0
   -------------------------------------------------------
    Total     190     190      39      39      39       0
   -------------------------------------------------------

  ==> Integral Setup <==

  Using integral reordering PK algorithm.
  Sizing the integral batches needed.
  Building batch lookup table.
   Calculation information:
      Number of atoms:                  21
      Number of AO shells:              92
      Number of primitives:            286
      Number of atomic orbitals:       199
      Number of basis functions:       190

      Integral cutoff                 1.00e-12
      Number of threads:                 1

	Batch   1 pq = [       0,    9405] index = [             0,44231715] size =     44231715
	Batch   2 pq = [    9405,   13301] index = [      44231715,88464951] size =     44233236
	Batch   3 pq = [   13301,   16290] index = [      88464951,132690195] size =     44225244
	Batch   4 pq = [   16290,   18145] index = [     132690195,164629585] size =     31939390
  Task number: 15
  Buffer size: 11059200
  Buffer per thread: 2
  We computed 7127503 shell quartets total.
  Whereas there are 9152781 unique shell quartets.

  ==> DiskJK: Disk-Based J/K Matrices <==

    J tasked:                  Yes
    K tasked:                  Yes
    wK tasked:                  No
    Memory [MiB]:              375
    Schwarz Cutoff:          1E-12

    OpenMP threads:              1

  Minimum eigenvalue in the overlap matrix is 1.1781881629E-03.
  Using Symmetric Orthogonalization.

  SCF Guess: Superposition of Atomic Densities via on-the-fly atomic UHF.

  ==> Iterations <==

                        Total Energy        Delta E     RMS |[F,P]|

   @RHF iter SAD:  -739.81346820134002   -7.39813e+02   0.00000e+00
   @RHF iter   1:  -740.42492640677426   -6.11458e-01   2.92500e-03 DIIS
   @RHF iter   2:  -740.59339117285651   -1.68465e-01   1.44866e-03 DIIS
   @RHF iter   3:  -740.62949273934817   -3.61016e-02   4.06800e-04 DIIS
   @RHF iter   4:  -740.63327033821406   -3.77760e-03   1.56101e-04 DIIS
   @RHF iter   5:  -740.63379063457978   -5.20296e-04   2.78082e-05 DIIS
   @RHF iter   6:  -740.63381667063800   -2.60361e-05   1.13129e-05 DIIS
   @RHF iter   7:  -740.63382087915591   -4.20852e-06   3.67702e-06 DIIS
   @RHF iter   8:  -740.63382166618578   -7.87030e-07   1.51950e-06 DIIS
   @RHF iter   9:  -740.63382182666624   -1.60480e-07   5.80376e-07 DIIS
   @RHF iter  10:  -740.63382184590466   -1.92384e-08   1.90495e-07 DIIS
   @RHF iter  11:  -740.63382184849615   -2.59149e-09   7.03629e-08 DIIS
   @RHF iter  12:  -740.63382184877617   -2.80011e-10   2.92552e-08 DIIS
   @RHF iter  13:  -740.63382184881766   -4.14957e-11   8.96639e-09 DIIS
   @RHF iter  14:  -740.63382184882346   -5.79803e-12   3.74061e-09 DIIS
   @RHF iter  15:  -740.63382184882369   -2.27374e-13   1.28257e-09 DIIS
   @RHF iter  16:  -740.63382184882551   -1.81899e-12   4.31453e-10 DIIS
   @RHF iter  17:  -740.63382184882221    3.29692e-12   1.69787e-10 DIIS
   @RHF iter  18:  -740.63382184882414   -1.93268e-12   5.44182e-11 DIIS
  Energy and wave function converged.

  ==> Post-Iterations <==

    Orbital Energies [Eh]
    ---------------------

    Doubly Occupied:

       1A    -91.918266     2A    -15.629671     3A    -15.539801
       4A    -11.302806     5A    -11.257540     6A    -11.249702
       7A    -11.247482     8A    -11.228809     9A    -11.226558
      10A     -8.921743    11A     -6.603877    12A     -6.602562
      13A     -6.600255    14A     -1.350801    15A     -1.161993
      16A     -1.050612    17A     -1.038785    18A     -0.947510
      19A     -0.929106    20A     -0.825369    21A     -0.793898
      22A     -0.771370    23A     -0.748131    24A     -0.619334
      25A     -0.616424    26A     -0.612063    27A     -0.604827
      28A     -0.591523    29A     -0.557713    30A     -0.546338
      31A     -0.528740    32A     -0.516010    33A     -0.505910
      34A     -0.485680    35A     -0.429093    36A     -0.411256
      37A     -0.386968    38A     -0.327504    39A     -0.318036

    Virtual:

      40A      0.160787    41A      0.176588    42A      0.182260
      43A      0.194182    44A      0.212950    45A      0.219041
      46A      0.229208    47A      0.238363    48A      0.244190
      49A      0.255531    50A      0.275345    51A      0.276734
      52A      0.286530    53A      0.300422    54A      0.305810
      55A      0.371040    56A      0.375644    57A      0.400602
      58A      0.417441    59A      0.467522    60A      0.487702
      61A      0.548427    62A      0.583520    63A      0.600692
      64A      0.607930    65A      0.614661    66A      0.629311
      67A      0.644984    68A      0.651264    69A      0.669824
      70A      0.683893    71A      0.698127    72A      0.709927
      73A      0.732250    74A      0.740811    75A      0.744820
      76A      0.776862    77A      0.780263    78A      0.794589
      79A      0.816254    80A      0.821676    81A      0.830647
      82A      0.846595    83A      0.869232    84A      0.876751
      85A      0.882042    86A      0.888419    87A      0.889817
      88A      0.901431    89A      0.914408    90A      0.931876
      91A      0.938778    92A      0.949230    93A      0.951971
      94A      0.966848    95A      0.973840    96A      0.992221
      97A      1.000938    98A      1.031410    99A      1.064968
     100A      1.091859   101A      1.117888   102A      1.141067
     103A      1.151131   104A      1.209750   105A      1.213153
     106A      1.240416   107A      1.244323   108A      1.260214
     109A      1.299190   110A      1.310643   111A      1.318200
     112A      1.322595   113A      1.350419   114A      1.405685
     115A      1.423748   116A      1.430895   117A      1.478961
     118A      1.491330   119A      1.518897   120A      1.564980
     121A      1.594541   122A      1.620946   123A      1.631707
     124A      1.641450   125A      1.670125   126A      1.682318
     127A      1.690461   128A      1.756036   129A      1.773348
     130A      1.795616   131A      1.807295   132A      1.813465
     133A      1.848469   134A      1.859684   135A      1.868317
     136A      1.895307   137A      1.908615   138A      1.912977
     139A      1.922049   140A      1.937714   141A      1.947802
     142A      1.956704   143A      1.971913   144A      1.992464
     145A      2.001026   146A      2.017426   147A      2.036416
     148A      2.048724   149A      2.084521   150A      2.110382
     151A      2.124941   152A      2.151513   153A      2.158917
     154A      2.195861   155A      2.222759   156A      2.233515
     157A      2.292842   158A      2.309264   159A      2.339070
     160A      2.342692   161A      2.395998   162A      2.412172
     163A      2.430630   164A      2.435105   165A      2.447889
     166A      2.484604   167A      2.538456   168A      2.540026
     169A      2.557472   170A      2.605081   171A      2.680070
     172A      2.735966   173A      2.756030   174A      2.769475
     175A      2.775149   176A      2.783920   177A      2.798912
     178A      2.816134   179A      2.828803   180A      2.861325
     181A      2.886467   182A      2.888821   183A      2.903834
     184A      2.932158   185A      2.964968   186A      3.074841
     187A      3.157553   188A      3.233525   189A      3.468049
     190A      3.782137

    Final Occupation by Irrep:
              A
    DOCC [    39 ]

  @RHF Final Energy:  -740.63382184882414

   => Energetics <=

    Nuclear Repulsion Energy =            491.1571550434450728
    One-Electron Energy =               -1989.5738214326961497
    Two-Electron Energy =                 757.7828445404269360
    Total Energy =                       -740.6338218488241409

Computation Completed

Properties will be evaluated at   0.000000,   0.000000,   0.000000 [a0]

Properties computed using the SCF density matrix

  Nuclear Dipole Moment: [e a0]
     X:    -3.2540      Y:     2.5589      Z:    -0.6521

  Electronic Dipole Moment: [e a0]
     X:     2.0047      Y:    -3.1343      Z:     2.3714

  Dipole Moment: [e a0]
     X:    -1.2493      Y:    -0.5753      Z:     1.7193     Total:     2.2017

  Dipole Moment: [D]
     X:    -3.1753      Y:    -1.4623      Z:     4.3700     Total:     5.5963

*** tstop() called on ds3 at Mon Apr 27 06:41:05 2020
Module time:
	user time   =      66.56 seconds =       1.11 minutes
	system time =      28.11 seconds =       0.47 minutes
	total time  =         92 seconds =       1.53 minutes
Total time:
	user time   =      66.56 seconds =       1.11 minutes
	system time =      28.11 seconds =       0.47 minutes
	total time  =         92 seconds =       1.53 minutes
                                     G D M A

                                 by Anthony Stone

                           version 2.2.06, 22 June 2011

               Distributed Multipoles from Gaussian wavefunctions

Starting at 6:41:6 on 27 Apr 2020

Using SCF density matrix from file ./SSI/SSI-018CYS-132HIE-1-dimer.test.17744.fchk

                         Distributed Multipole Analysis

Standard DMA

Positions and radii in angstrom
Multipole moments in atomic units, ea_0^k for rank k

C          x = -1.256969  y =  1.297854  z = -1.758907 angstrom
           Maximum rank =  0   Radius =  0.650 angstrom
                   Q00  =  -0.178822

C          x = -2.238969  y =  2.064854  z = -2.657907 angstrom
           Maximum rank =  0   Radius =  0.650 angstrom
                   Q00  =  -0.214449

S          x =  0.466031  y =  1.197854  z = -2.312907 angstrom
           Maximum rank =  0   Radius =  0.650 angstrom
                   Q00  =  -0.135813

H          x = -1.286969  y =  1.707854  z = -0.746907 angstrom
           Maximum rank =  0   Radius =  0.325 angstrom
                   Q00  =   0.060703

H          x = -1.627969  y =  0.271854  z = -1.682907 angstrom
           Maximum rank =  0   Radius =  0.325 angstrom
                   Q00  =   0.059627

H          x = -3.243969  y =  1.764854  z = -2.353907 angstrom
           Maximum rank =  0   Radius =  0.325 angstrom
                   Q00  =   0.086178

H          x =  0.801031  y =  0.135854  z = -1.557907 angstrom
           Maximum rank =  0   Radius =  0.325 angstrom
                   Q00  =   0.150621

H          x = -2.125989  y =  1.754524  z = -3.707157 angstrom
           Maximum rank =  0   Radius =  0.325 angstrom
                   Q00  =   0.084430

H          x = -2.190649  y =  3.141694  z = -2.438647 angstrom
           Maximum rank =  0   Radius =  0.325 angstrom
                   Q00  =   0.076470

C          x =  2.639031  y = -0.801146  z =  1.572093 angstrom
           Maximum rank =  0   Radius =  0.650 angstrom
                   Q00  =  -0.194303

C          x = -0.928969  y = -1.207146  z =  1.050093 angstrom
           Maximum rank =  0   Radius =  0.650 angstrom
                   Q00  =   0.467090

C          x =  1.157031  y = -0.992146  z =  1.707093 angstrom
           Maximum rank =  0   Radius =  0.650 angstrom
                   Q00  =   0.225627

C          x =  0.380031  y = -1.101146  z =  2.815093 angstrom
           Maximum rank =  0   Radius =  0.650 angstrom
                   Q00  =   0.003417

N          x =  0.317031  y = -1.061146  z =  0.612093 angstrom
           Maximum rank =  0   Radius =  0.650 angstrom
                   Q00  =  -0.786233

N          x = -0.916969  y = -1.234146  z =  2.376093 angstrom
           Maximum rank =  0   Radius =  0.650 angstrom
                   Q00  =  -0.478500

H          x = -1.810969  y = -1.304146  z =  0.429093 angstrom
           Maximum rank =  0   Radius =  0.325 angstrom
                   Q00  =   0.123508

H          x = -1.739969  y = -1.374146  z =  2.965093 angstrom
           Maximum rank =  0   Radius =  0.325 angstrom
                   Q00  =   0.223657

H          x =  0.712031  y = -1.085146  z =  3.841093 angstrom
           Maximum rank =  0   Radius =  0.325 angstrom
                   Q00  =   0.105814

H          x =  3.043031  y = -1.654146  z =  1.026093 angstrom
           Maximum rank =  0   Radius =  0.325 angstrom
                   Q00  =   0.110910

H          x =  3.086031  y = -0.796146  z =  2.565093 angstrom
           Maximum rank =  0   Radius =  0.325 angstrom
                   Q00  =   0.093699

H          x =  2.898341  y =  0.125894  z =  1.039783 angstrom
           Maximum rank =  0   Radius =  0.325 angstrom
                   Q00  =   0.116368

Total multipoles referred to origin at
           x =   0.000000,  y =    0.000000,  z =    0.000000 angstrom
                   Q00  =  -0.000000

Finished at 6:41:6 on 27 Apr 2020

  DMA results are available in the Python driver through the
	  variable('DMA DISTRIBUTED MULTIPOLES')
  and
	  variable('DMA TOTAL MULTIPOLES')
  commands.

    Psi4 stopped on: Monday, 27 April 2020 06:41AM
    Psi4 wall time for execution: 0:01:32.55

*** Psi4 exiting successfully. Buy a developer a beer!
