                               Psi4 1.3.2 release

  ==> Input File <==

--------------------------------------------------------------------------
import numpy as np
set {scf_type pk
basis cc-pvdz
d_convergence 10
gdma_switch   0
gdma_limit    0
gdma_origin   [ 0.0,  0.0,  0.0 ]
}
molecule test {
    units Angstrom
    -1 1
    --
    -1 1
    C               -2.634898820511058     0.490072635233543     1.597125336065025
    C               -1.401898820511058    -0.348927364766457     1.921125336065024
    O               -0.686898820511058    -0.750927364766457     0.971125336065024
    O               -1.163898820511058    -0.609927364766457     3.127125336065024
    H               -3.039898820511058     0.920072635233543     2.515125336065025
    H               -3.398898820511058    -0.157927364766457     1.167125336065024
    H               -2.420607820511058     1.297622635233543     0.881625336065024
    C                2.525101179488943     1.029072635233543    -2.560874663934975
    C                1.435101179488942     0.234072635233543    -1.906874663934976
    O                1.272101179488942    -0.945927364766457    -2.188874663934976
    N                0.695101179488942     0.864072635233543    -1.013874663934976
    H                0.089101179488942     0.294072635233543    -0.421874663934976
    H                0.864101179488942     1.842072635233543    -0.826874663934976
    H                2.338101179488942     2.095072635233543    -2.425874663934975
    H                2.488101179488942     0.828072635233543    -3.630874663934975
    H                3.518361179488942     0.764872635233543    -2.168912663934975

}
e, wfn = energy('scf', return_wfn=True)
gdma(wfn)
dmavals = variable('DMA DISTRIBUTED MULTIPOLES')
charges = np.array(dmavals)
print(charges)
np.save('SSI-089ASP-112ASN-1-dimer.npy', np.array(charges))--------------------------------------------------------------------------

*** tstart() called on ds3
*** at Tue Apr 28 09:02:05 2020

   => Loading Basis Set <=

    Name: CC-PVDZ
    Role: ORBITAL
    Keyword: BASIS
    atoms 1-2, 8-9   entry C          line   138 file /theoryfs2/ds/metcalf/miniconda2/envs/tf2gpu/share/psi4/basis/cc-pvdz.gbs
    atoms 3-4, 10    entry O          line   198 file /theoryfs2/ds/metcalf/miniconda2/envs/tf2gpu/share/psi4/basis/cc-pvdz.gbs
    atoms 5-7, 12-16 entry H          line    22 file /theoryfs2/ds/metcalf/miniconda2/envs/tf2gpu/share/psi4/basis/cc-pvdz.gbs
    atoms 11         entry N          line   168 file /theoryfs2/ds/metcalf/miniconda2/envs/tf2gpu/share/psi4/basis/cc-pvdz.gbs

         ---------------------------------------------------------
                                   SCF
               by Justin Turney, Rob Parrish, Andy Simmonett
                          and Daniel G. A. Smith
                              RHF Reference
                        1 Threads,    500 MiB Core
         ---------------------------------------------------------

  ==> Geometry <==

    Molecular point group: c1
    Full point group: C1

    Geometry (in Angstrom), charge = -1, multiplicity = 1:

       Center              X                  Y                   Z               Mass
    ------------   -----------------  -----------------  -----------------  -----------------
         C           -2.634898820511     0.490072635234     1.597125336065    12.000000000000
         C           -1.401898820511    -0.348927364766     1.921125336065    12.000000000000
         O           -0.686898820511    -0.750927364766     0.971125336065    15.994914619570
         O           -1.163898820511    -0.609927364766     3.127125336065    15.994914619570
         H           -3.039898820511     0.920072635234     2.515125336065     1.007825032230
         H           -3.398898820511    -0.157927364766     1.167125336065     1.007825032230
         H           -2.420607820511     1.297622635234     0.881625336065     1.007825032230
         C            2.525101179489     1.029072635234    -2.560874663935    12.000000000000
         C            1.435101179489     0.234072635234    -1.906874663935    12.000000000000
         O            1.272101179489    -0.945927364766    -2.188874663935    15.994914619570
         N            0.695101179489     0.864072635234    -1.013874663935    14.003074004430
         H            0.089101179489     0.294072635234    -0.421874663935     1.007825032230
         H            0.864101179489     1.842072635234    -0.826874663935     1.007825032230
         H            2.338101179489     2.095072635234    -2.425874663935     1.007825032230
         H            2.488101179489     0.828072635234    -3.630874663935     1.007825032230
         H            3.518361179489     0.764872635234    -2.168912663935     1.007825032230

  Running in c1 symmetry.

  Rotational constants: A =      0.16107  B =      0.02057  C =      0.01997 [cm^-1]
  Rotational constants: A =   4828.68020  B =    616.62025  C =    598.71783 [MHz]
  Nuclear repulsion =  345.556822877290983

  Charge       = -1
  Multiplicity = 1
  Electrons    = 64
  Nalpha       = 32
  Nbeta        = 32

  ==> Algorithm <==

  SCF Algorithm Type is PK.
  DIIS enabled.
  MOM disabled.
  Fractional occupation disabled.
  Guess Type is SAD.
  Energy threshold   = 1.00e-06
  Density threshold  = 1.00e-10
  Integral threshold = 0.00e+00

  ==> Primary Basis <==

  Basis Set: CC-PVDZ
    Blend: CC-PVDZ
    Number of shells: 72
    Number of basis function: 152
    Number of Cartesian functions: 160
    Spherical Harmonics?: true
    Max angular momentum: 2

  ==> Pre-Iterations <==

   -------------------------------------------------------
    Irrep   Nso     Nmo     Nalpha   Nbeta   Ndocc  Nsocc
   -------------------------------------------------------
     A        152     152       0       0       0       0
   -------------------------------------------------------
    Total     152     152      32      32      32       0
   -------------------------------------------------------

  ==> Integral Setup <==

  Using integral reordering PK algorithm.
  Sizing the integral batches needed.
  Building batch lookup table.
   Calculation information:
      Number of atoms:                  16
      Number of AO shells:              72
      Number of primitives:            216
      Number of atomic orbitals:       160
      Number of basis functions:       152

      Integral cutoff                 1.00e-12
      Number of threads:                 1

	Batch   1 pq = [       0,    9405] index = [             0,44231715] size =     44231715
	Batch   2 pq = [    9405,   11628] index = [      44231715,67611006] size =     23379291
  Task number: 7
  Buffer size: 11059200
  Buffer per thread: 2
  We computed 2468147 shell quartets total.
  Whereas there are 3454506 unique shell quartets.

  ==> DiskJK: Disk-Based J/K Matrices <==

    J tasked:                  Yes
    K tasked:                  Yes
    wK tasked:                  No
    Memory [MiB]:              375
    Schwarz Cutoff:          1E-12

    OpenMP threads:              1

  Minimum eigenvalue in the overlap matrix is 4.3722438728E-03.
  Using Symmetric Orthogonalization.

  SCF Guess: Superposition of Atomic Densities via on-the-fly atomic UHF.

  ==> Iterations <==

                        Total Energy        Delta E     RMS |[F,P]|

   @RHF iter SAD:  -433.50124173173856   -4.33501e+02   0.00000e+00
   @RHF iter   1:  -434.92646891635218   -1.42523e+00   5.46881e-03 DIIS
   @RHF iter   2:  -435.16110251348789   -2.34634e-01   3.27502e-03 DIIS
   @RHF iter   3:  -435.24771899824259   -8.66165e-02   4.99933e-04 DIIS
   @RHF iter   4:  -435.25118039106189   -3.46139e-03   1.91029e-04 DIIS
   @RHF iter   5:  -435.25177054873944   -5.90158e-04   3.98201e-05 DIIS
   @RHF iter   6:  -435.25180057703483   -3.00283e-05   1.99678e-05 DIIS
   @RHF iter   7:  -435.25180745867476   -6.88164e-06   5.74008e-06 DIIS
   @RHF iter   8:  -435.25180860389918   -1.14522e-06   2.46233e-06 DIIS
   @RHF iter   9:  -435.25180879001061   -1.86111e-07   9.26383e-07 DIIS
   @RHF iter  10:  -435.25180881475308   -2.47425e-08   2.03304e-07 DIIS
   @RHF iter  11:  -435.25180881594321   -1.19013e-09   5.00509e-08 DIIS
   @RHF iter  12:  -435.25180881599147   -4.82601e-11   2.40457e-08 DIIS
   @RHF iter  13:  -435.25180881600102   -9.54969e-12   7.22117e-09 DIIS
   @RHF iter  14:  -435.25180881600522   -4.20641e-12   2.13660e-09 DIIS
   @RHF iter  15:  -435.25180881600392    1.30740e-12   6.57367e-10 DIIS
   @RHF iter  16:  -435.25180881600352    3.97904e-13   2.25536e-10 DIIS
   @RHF iter  17:  -435.25180881600488   -1.36424e-12   1.10104e-10 DIIS
   @RHF iter  18:  -435.25180881600244    2.44427e-12   4.26491e-11 DIIS
  Energy and wave function converged.

  ==> Post-Iterations <==

    Orbital Energies [Eh]
    ---------------------

    Doubly Occupied:

       1A    -20.370060     2A    -20.279930     3A    -20.273645
       4A    -15.436601     5A    -11.214917     6A    -11.134880
       7A    -11.133765     8A    -11.062433     9A     -1.238028
      10A     -1.162467    11A     -1.076045    12A     -1.051034
      13A     -0.889883    14A     -0.807862    15A     -0.659058
      16A     -0.587740    17A     -0.533337    18A     -0.514675
      19A     -0.500652    20A     -0.448733    21A     -0.445512
      22A     -0.422581    23A     -0.419047    24A     -0.413256
      25A     -0.395448    26A     -0.355599    27A     -0.318090
      28A     -0.280801    29A     -0.263448    30A     -0.199097
      31A     -0.188396    32A     -0.178066

    Virtual:

      33A      0.276875    34A      0.309730    35A      0.325223
      36A      0.340889    37A      0.368462    38A      0.388359
      39A      0.394602    40A      0.411381    41A      0.467471
      42A      0.486140    43A      0.521888    44A      0.565275
      45A      0.595251    46A      0.682640    47A      0.695303
      48A      0.733751    49A      0.751330    50A      0.785231
      51A      0.806587    52A      0.823178    53A      0.840717
      54A      0.858588    55A      0.864593    56A      0.889884
      57A      0.945703    58A      0.954016    59A      0.955638
      60A      0.957269    61A      1.001113    62A      1.015319
      63A      1.022994    64A      1.031159    65A      1.046647
      66A      1.060490    67A      1.087990    68A      1.120173
      69A      1.154378    70A      1.156520    71A      1.200353
      72A      1.216555    73A      1.241310    74A      1.275605
      75A      1.330556    76A      1.336796    77A      1.413850
      78A      1.463797    79A      1.485310    80A      1.495261
      81A      1.532602    82A      1.540036    83A      1.551412
      84A      1.566559    85A      1.573357    86A      1.591024
      87A      1.622935    88A      1.629357    89A      1.670654
      90A      1.724026    91A      1.734525    92A      1.761599
      93A      1.787716    94A      1.827477    95A      1.834346
      96A      1.858758    97A      1.963181    98A      1.979438
      99A      1.996146   100A      2.030559   101A      2.035111
     102A      2.049900   103A      2.069574   104A      2.073027
     105A      2.092877   106A      2.108795   107A      2.135563
     108A      2.197935   109A      2.215486   110A      2.231942
     111A      2.243718   112A      2.268616   113A      2.332544
     114A      2.356797   115A      2.394084   116A      2.419190
     117A      2.425978   118A      2.554649   119A      2.558732
     120A      2.589979   121A      2.605586   122A      2.640866
     123A      2.676660   124A      2.712192   125A      2.734481
     126A      2.758358   127A      2.804243   128A      2.851120
     129A      2.895465   130A      2.904790   131A      2.907687
     132A      2.947769   133A      2.973040   134A      3.018456
     135A      3.109876   136A      3.218290   137A      3.243898
     138A      3.257864   139A      3.269859   140A      3.280180
     141A      3.340533   142A      3.456467   143A      3.598592
     144A      3.653134   145A      3.678722   146A      3.764668
     147A      3.814094   148A      4.006364   149A      4.032911
     150A      4.046948   151A      4.092762   152A      4.167730

    Final Occupation by Irrep:
              A
    DOCC [    32 ]

  @RHF Final Energy:  -435.25180881600244

   => Energetics <=

    Nuclear Repulsion Energy =            345.5568228772909833
    One-Electron Energy =               -1293.1070883981415136
    Two-Electron Energy =                 512.2984567048480358
    Total Energy =                       -435.2518088160024945

Computation Completed

Properties will be evaluated at   0.000000,   0.000000,   0.000000 [a0]

Properties computed using the SCF density matrix

  Nuclear Dipole Moment: [e a0]
     X:     0.4061      Y:     7.3774      Z:    -4.5914

  Electronic Dipole Moment: [e a0]
     X:     0.7189      Y:    -4.6809      Z:     1.9940

  Dipole Moment: [e a0]
     X:     1.1250      Y:     2.6964      Z:    -2.5974     Total:     3.9093

  Dipole Moment: [D]
     X:     2.8596      Y:     6.8536      Z:    -6.6019     Total:     9.9365

*** tstop() called on ds3 at Tue Apr 28 09:02:41 2020
Module time:
	user time   =      23.14 seconds =       0.39 minutes
	system time =      11.77 seconds =       0.20 minutes
	total time  =         36 seconds =       0.60 minutes
Total time:
	user time   =      23.14 seconds =       0.39 minutes
	system time =      11.77 seconds =       0.20 minutes
	total time  =         36 seconds =       0.60 minutes
                                     G D M A

                                 by Anthony Stone

                           version 2.2.06, 22 June 2011

               Distributed Multipoles from Gaussian wavefunctions

Starting at 9:2:41 on 28 Apr 2020

Using SCF density matrix from file ./SSI/SSI-089ASP-112ASN-1-dimer.test.9325.fchk

                         Distributed Multipole Analysis

Standard DMA

Positions and radii in angstrom
Multipole moments in atomic units, ea_0^k for rank k

C          x = -2.634899  y =  0.490073  z =  1.597125 angstrom
           Maximum rank =  0   Radius =  0.650 angstrom
                   Q00  =  -0.285860

C          x = -1.401899  y = -0.348927  z =  1.921125 angstrom
           Maximum rank =  0   Radius =  0.650 angstrom
                   Q00  =   0.950829

O          x = -0.686899  y = -0.750927  z =  0.971125 angstrom
           Maximum rank =  0   Radius =  0.650 angstrom
                   Q00  =  -0.938768

O          x = -1.163899  y = -0.609927  z =  3.127125 angstrom
           Maximum rank =  0   Radius =  0.650 angstrom
                   Q00  =  -0.910710

H          x = -3.039899  y =  0.920073  z =  2.515125 angstrom
           Maximum rank =  0   Radius =  0.325 angstrom
                   Q00  =   0.056189

H          x = -3.398899  y = -0.157927  z =  1.167125 angstrom
           Maximum rank =  0   Radius =  0.325 angstrom
                   Q00  =   0.083827

H          x = -2.420608  y =  1.297623  z =  0.881625 angstrom
           Maximum rank =  0   Radius =  0.325 angstrom
                   Q00  =   0.058177

C          x =  2.525101  y =  1.029073  z = -2.560875 angstrom
           Maximum rank =  0   Radius =  0.650 angstrom
                   Q00  =  -0.263137

C          x =  1.435101  y =  0.234073  z = -1.906875 angstrom
           Maximum rank =  0   Radius =  0.650 angstrom
                   Q00  =   0.848280

O          x =  1.272101  y = -0.945927  z = -2.188875 angstrom
           Maximum rank =  0   Radius =  0.650 angstrom
                   Q00  =  -0.811377

N          x =  0.695101  y =  0.864073  z = -1.013875 angstrom
           Maximum rank =  0   Radius =  0.650 angstrom
                   Q00  =  -0.555556

H          x =  0.089101  y =  0.294073  z = -0.421875 angstrom
           Maximum rank =  0   Radius =  0.325 angstrom
                   Q00  =   0.318353

H          x =  0.864101  y =  1.842073  z = -0.826875 angstrom
           Maximum rank =  0   Radius =  0.325 angstrom
                   Q00  =   0.171427

H          x =  2.338101  y =  2.095073  z = -2.425875 angstrom
           Maximum rank =  0   Radius =  0.325 angstrom
                   Q00  =   0.056755

H          x =  2.488101  y =  0.828073  z = -3.630875 angstrom
           Maximum rank =  0   Radius =  0.325 angstrom
                   Q00  =   0.102056

H          x =  3.518361  y =  0.764873  z = -2.168913 angstrom
           Maximum rank =  0   Radius =  0.325 angstrom
                   Q00  =   0.119514

Total multipoles referred to origin at
           x =   0.000000,  y =    0.000000,  z =    0.000000 angstrom
                   Q00  =  -1.000000

Finished at 9:2:41 on 28 Apr 2020

  DMA results are available in the Python driver through the
	  variable('DMA DISTRIBUTED MULTIPOLES')
  and
	  variable('DMA TOTAL MULTIPOLES')
  commands.

    Psi4 stopped on: Tuesday, 28 April 2020 09:02AM
    Psi4 wall time for execution: 0:00:35.53

*** Psi4 exiting successfully. Buy a developer a beer!
