                               Psi4 1.3.2 release

  ==> Input File <==

--------------------------------------------------------------------------
import numpy as np
set {scf_type pk
basis cc-pvdz
d_convergence 10
gdma_switch   0
gdma_limit    0
gdma_origin   [ 0.0,  0.0,  0.0 ]
}
molecule test {
    units Angstrom
    0 1
    --
    0 1
    C               -0.900284678750538     1.601113317675175    -1.168014017546918
    C               -0.894284678750538     2.606113317675175    -0.037014017546918
    H               -0.170284678750538     0.814113317675175    -1.003014017546918
    H               -1.889284678750538     1.147113317675174    -1.238014017546919
    H               -0.680284678750538     2.105113317675174    -2.108014017546918
    H               -1.138284678750538     2.083113317675175     0.888985982453082
    H               -1.693284678750538     3.318113317675175    -0.235014017546918
    H                0.055805321249462     3.144923317675175     0.093390982453082
    C                0.805715321249463    -1.536886682324825     0.101985982453082
    C                0.995715321249462    -2.670886682324825     1.103985982453082
    H                1.450715321249463    -0.698886682324825     0.360985982453082
    H                1.059715321249463    -1.884886682324825    -0.899014017546919
    H               -0.234284678750538    -1.210886682324825     0.114985982453082
    H                2.023715321249462    -3.019886682324825     1.018985982453082
    H                0.818265321249462    -2.286656682324825     2.119306982453082
    H                0.315795321249462    -3.504776682324825     0.875188982453082

}
e, wfn = energy('scf', return_wfn=True)
gdma(wfn)
dmavals = variable('DMA DISTRIBUTED MULTIPOLES')
charges = np.array(dmavals)
print(charges)
np.save('SSI-047ILE-064LEU-1-dimer.npy', np.array(charges))--------------------------------------------------------------------------

*** tstart() called on ds3
*** at Sun Apr 26 20:13:28 2020

   => Loading Basis Set <=

    Name: CC-PVDZ
    Role: ORBITAL
    Keyword: BASIS
    atoms 1-2, 9-10  entry C          line   138 file /theoryfs2/ds/metcalf/miniconda2/envs/tf2gpu/share/psi4/basis/cc-pvdz.gbs
    atoms 3-8, 11-16 entry H          line    22 file /theoryfs2/ds/metcalf/miniconda2/envs/tf2gpu/share/psi4/basis/cc-pvdz.gbs

         ---------------------------------------------------------
                                   SCF
               by Justin Turney, Rob Parrish, Andy Simmonett
                          and Daniel G. A. Smith
                              RHF Reference
                        1 Threads,    500 MiB Core
         ---------------------------------------------------------

  ==> Geometry <==

    Molecular point group: c1
    Full point group: C1

    Geometry (in Angstrom), charge = 0, multiplicity = 1:

       Center              X                  Y                   Z               Mass
    ------------   -----------------  -----------------  -----------------  -----------------
         C           -0.900284678751     1.601113317675    -1.168014017547    12.000000000000
         C           -0.894284678751     2.606113317675    -0.037014017547    12.000000000000
         H           -0.170284678751     0.814113317675    -1.003014017547     1.007825032230
         H           -1.889284678751     1.147113317675    -1.238014017547     1.007825032230
         H           -0.680284678751     2.105113317675    -2.108014017547     1.007825032230
         H           -1.138284678751     2.083113317675     0.888985982453     1.007825032230
         H           -1.693284678751     3.318113317675    -0.235014017547     1.007825032230
         H            0.055805321249     3.144923317675     0.093390982453     1.007825032230
         C            0.805715321249    -1.536886682325     0.101985982453    12.000000000000
         C            0.995715321249    -2.670886682325     1.103985982453    12.000000000000
         H            1.450715321249    -0.698886682325     0.360985982453     1.007825032230
         H            1.059715321249    -1.884886682325    -0.899014017547     1.007825032230
         H           -0.234284678751    -1.210886682325     0.114985982453     1.007825032230
         H            2.023715321249    -3.019886682325     1.018985982453     1.007825032230
         H            0.818265321249    -2.286656682325     2.119306982453     1.007825032230
         H            0.315795321249    -3.504776682325     0.875188982453     1.007825032230

  Running in c1 symmetry.

  Rotational constants: A =      0.52007  B =      0.04585  C =      0.04383 [cm^-1]
  Rotational constants: A =  15591.18678  B =   1374.57587  C =   1313.92791 [MHz]
  Nuclear repulsion =  121.528496263561721

  Charge       = 0
  Multiplicity = 1
  Electrons    = 36
  Nalpha       = 18
  Nbeta        = 18

  ==> Algorithm <==

  SCF Algorithm Type is PK.
  DIIS enabled.
  MOM disabled.
  Fractional occupation disabled.
  Guess Type is SAD.
  Energy threshold   = 1.00e-06
  Density threshold  = 1.00e-10
  Integral threshold = 0.00e+00

  ==> Primary Basis <==

  Basis Set: CC-PVDZ
    Blend: CC-PVDZ
    Number of shells: 60
    Number of basis function: 116
    Number of Cartesian functions: 120
    Spherical Harmonics?: true
    Max angular momentum: 2

  ==> Pre-Iterations <==

   -------------------------------------------------------
    Irrep   Nso     Nmo     Nalpha   Nbeta   Ndocc  Nsocc
   -------------------------------------------------------
     A        116     116       0       0       0       0
   -------------------------------------------------------
    Total     116     116      18      18      18       0
   -------------------------------------------------------

  ==> Integral Setup <==

  Using integral reordering PK algorithm.
  Sizing the integral batches needed.
  Building batch lookup table.
   Calculation information:
      Number of atoms:                  16
      Number of AO shells:              60
      Number of primitives:            148
      Number of atomic orbitals:       120
      Number of basis functions:       116

      Integral cutoff                 1.00e-12
      Number of threads:                 1

	Batch   1 pq = [       0,    6786] index = [             0,23028291] size =     23028291
  Task number: 3
  Buffer size: 11059200
  Buffer per thread: 2
  We computed 1392029 shell quartets total.
  Whereas there are 1675365 unique shell quartets.

  ==> DiskJK: Disk-Based J/K Matrices <==

    J tasked:                  Yes
    K tasked:                  Yes
    wK tasked:                  No
    Memory [MiB]:              375
    Schwarz Cutoff:          1E-12

    OpenMP threads:              1

  Minimum eigenvalue in the overlap matrix is 5.9232592059E-03.
  Using Symmetric Orthogonalization.

  SCF Guess: Superposition of Atomic Densities via on-the-fly atomic UHF.

  ==> Iterations <==

                        Total Energy        Delta E     RMS |[F,P]|

   @RHF iter SAD:  -157.39572532260920   -1.57396e+02   0.00000e+00
   @RHF iter   1:  -158.30473351122129   -9.09008e-01   4.24636e-03 DIIS
   @RHF iter   2:  -158.43962347565815   -1.34890e-01   1.81121e-03 DIIS
   @RHF iter   3:  -158.46339231600001   -2.37688e-02   3.52135e-04 DIIS
   @RHF iter   4:  -158.46525130186637   -1.85899e-03   3.94621e-05 DIIS
   @RHF iter   5:  -158.46527609370793   -2.47918e-05   6.86688e-06 DIIS
   @RHF iter   6:  -158.46527678491051   -6.91203e-07   1.24448e-06 DIIS
   @RHF iter   7:  -158.46527680015981   -1.52493e-08   3.37721e-07 DIIS
   @RHF iter   8:  -158.46527680126042   -1.10060e-09   4.86329e-08 DIIS
   @RHF iter   9:  -158.46527680130353   -4.31157e-11   1.06764e-08 DIIS
   @RHF iter  10:  -158.46527680130495   -1.42109e-12   3.05513e-09 DIIS
   @RHF iter  11:  -158.46527680130527   -3.12639e-13   8.67370e-10 DIIS
   @RHF iter  12:  -158.46527680130532   -5.68434e-14   1.77171e-10 DIIS
   @RHF iter  13:  -158.46527680130524    8.52651e-14   3.26008e-11 DIIS
  Energy and wave function converged.

  ==> Post-Iterations <==

    Orbital Energies [Eh]
    ---------------------

    Doubly Occupied:

       1A    -11.219296     2A    -11.216727     3A    -11.215958
       4A    -11.213020     5A     -1.022305     6A     -1.019825
       7A     -0.838504     8A     -0.832886     9A     -0.604230
      10A     -0.600360    11A     -0.597957    12A     -0.596552
      13A     -0.505792    14A     -0.500546    15A     -0.488199
      16A     -0.487315    17A     -0.482406    18A     -0.476820

    Virtual:

      19A      0.173108    20A      0.196365    21A      0.232012
      22A      0.232717    23A      0.246379    24A      0.256824
      25A      0.261520    26A      0.273642    27A      0.279269
      28A      0.289052    29A      0.306054    30A      0.323917
      31A      0.397477    32A      0.426587    33A      0.587369
      34A      0.596783    35A      0.602339    36A      0.606466
      37A      0.612275    38A      0.643480    39A      0.664581
      40A      0.693145    41A      0.694468    42A      0.761006
      43A      0.853073    44A      0.878200    45A      0.888167
      46A      0.890469    47A      0.892954    48A      0.896470
      49A      0.899455    50A      0.907229    51A      0.912094
      52A      0.924435    53A      0.928033    54A      0.956409
      55A      0.981386    56A      1.016701    57A      1.124044
      58A      1.127626    59A      1.130104    60A      1.149090
      61A      1.226195    62A      1.306876    63A      1.464678
      64A      1.473623    65A      1.485935    66A      1.500550
      67A      1.574644    68A      1.582569    69A      1.675338
      70A      1.685807    71A      1.691371    72A      1.702363
      73A      1.844422    74A      1.855410    75A      1.865455
      76A      1.881084    77A      1.887477    78A      1.919737
      79A      1.936528    80A      1.940830    81A      1.946261
      82A      1.953748    83A      1.958030    84A      1.961929
      85A      1.975374    86A      1.980354    87A      1.997057
      88A      2.043224    89A      2.093648    90A      2.098199
      91A      2.123247    92A      2.133008    93A      2.295133
      94A      2.306296    95A      2.321188    96A      2.338171
      97A      2.449303    98A      2.460121    99A      2.467327
     100A      2.485177   101A      2.559423   102A      2.563509
     103A      2.579644   104A      2.590470   105A      2.758446
     106A      2.769991   107A      2.783848   108A      2.815830
     109A      2.839350   110A      2.843144   111A      2.861487
     112A      2.877992   113A      2.940319   114A      2.951189
     115A      2.963215   116A      2.991240

    Final Occupation by Irrep:
              A
    DOCC [    18 ]

  @RHF Final Energy:  -158.46527680130524

   => Energetics <=

    Nuclear Repulsion Energy =            121.5284962635617205
    One-Electron Energy =                -452.1501528714914002
    Two-Electron Energy =                 172.1563798066244715
    Total Energy =                       -158.4652768013052366

Computation Completed

Properties will be evaluated at   0.000000,   0.000000,   0.000000 [a0]

Properties computed using the SCF density matrix

  Nuclear Dipole Moment: [e a0]
     X:    -0.0766      Y:     0.0061      Z:    -0.0105

  Electronic Dipole Moment: [e a0]
     X:     0.0819      Y:    -0.0274      Z:     0.0053

  Dipole Moment: [e a0]
     X:     0.0053      Y:    -0.0213      Z:    -0.0052     Total:     0.0225

  Dipole Moment: [D]
     X:     0.0135      Y:    -0.0541      Z:    -0.0133     Total:     0.0573

*** tstop() called on ds3 at Sun Apr 26 20:13:38 2020
Module time:
	user time   =       7.14 seconds =       0.12 minutes
	system time =       3.17 seconds =       0.05 minutes
	total time  =         10 seconds =       0.17 minutes
Total time:
	user time   =       7.14 seconds =       0.12 minutes
	system time =       3.17 seconds =       0.05 minutes
	total time  =         10 seconds =       0.17 minutes
                                     G D M A

                                 by Anthony Stone

                           version 2.2.06, 22 June 2011

               Distributed Multipoles from Gaussian wavefunctions

Starting at 20:13:38 on 26 Apr 2020

Using SCF density matrix from file ./SSI/SSI-047ILE-064LEU-1-dimer.test.20856.fchk

                         Distributed Multipole Analysis

Standard DMA

Positions and radii in angstrom
Multipole moments in atomic units, ea_0^k for rank k

C          x = -0.900285  y =  1.601113  z = -1.168014 angstrom
           Maximum rank =  0   Radius =  0.650 angstrom
                   Q00  =  -0.233651

C          x = -0.894285  y =  2.606113  z = -0.037014 angstrom
           Maximum rank =  0   Radius =  0.650 angstrom
                   Q00  =  -0.235367

H          x = -0.170285  y =  0.814113  z = -1.003014 angstrom
           Maximum rank =  0   Radius =  0.325 angstrom
                   Q00  =   0.085653

H          x = -1.889285  y =  1.147113  z = -1.238014 angstrom
           Maximum rank =  0   Radius =  0.325 angstrom
                   Q00  =   0.075928

H          x = -0.680285  y =  2.105113  z = -2.108014 angstrom
           Maximum rank =  0   Radius =  0.325 angstrom
                   Q00  =   0.075459

H          x = -1.138285  y =  2.083113  z =  0.888986 angstrom
           Maximum rank =  0   Radius =  0.325 angstrom
                   Q00  =   0.073716

H          x = -1.693285  y =  3.318113  z = -0.235014 angstrom
           Maximum rank =  0   Radius =  0.325 angstrom
                   Q00  =   0.075541

H          x =  0.055805  y =  3.144923  z =  0.093391 angstrom
           Maximum rank =  0   Radius =  0.325 angstrom
                   Q00  =   0.080280

C          x =  0.805715  y = -1.536887  z =  0.101986 angstrom
           Maximum rank =  0   Radius =  0.650 angstrom
                   Q00  =  -0.242960

C          x =  0.995715  y = -2.670887  z =  1.103986 angstrom
           Maximum rank =  0   Radius =  0.650 angstrom
                   Q00  =  -0.227646

H          x =  1.450715  y = -0.698887  z =  0.360986 angstrom
           Maximum rank =  0   Radius =  0.325 angstrom
                   Q00  =   0.077343

H          x =  1.059715  y = -1.884887  z = -0.899014 angstrom
           Maximum rank =  0   Radius =  0.325 angstrom
                   Q00  =   0.079170

H          x = -0.234285  y = -1.210887  z =  0.114986 angstrom
           Maximum rank =  0   Radius =  0.325 angstrom
                   Q00  =   0.077777

H          x =  2.023715  y = -3.019887  z =  1.018986 angstrom
           Maximum rank =  0   Radius =  0.325 angstrom
                   Q00  =   0.078947

H          x =  0.818265  y = -2.286657  z =  2.119307 angstrom
           Maximum rank =  0   Radius =  0.325 angstrom
                   Q00  =   0.078948

H          x =  0.315795  y = -3.504777  z =  0.875189 angstrom
           Maximum rank =  0   Radius =  0.325 angstrom
                   Q00  =   0.080862

Total multipoles referred to origin at
           x =   0.000000,  y =    0.000000,  z =    0.000000 angstrom
                   Q00  =  -0.000000

Finished at 20:13:38 on 26 Apr 2020

  DMA results are available in the Python driver through the
	  variable('DMA DISTRIBUTED MULTIPOLES')
  and
	  variable('DMA TOTAL MULTIPOLES')
  commands.

    Psi4 stopped on: Sunday, 26 April 2020 08:13PM
    Psi4 wall time for execution: 0:00:10.16

*** Psi4 exiting successfully. Buy a developer a beer!
