                               Psi4 1.3.2 release

  ==> Input File <==

--------------------------------------------------------------------------
import numpy as np
set {scf_type pk
basis cc-pvdz
d_convergence 10
gdma_switch   0
gdma_limit    0
gdma_origin   [ 0.0,  0.0,  0.0 ]
}
molecule test {
    units Angstrom
    0 1
    --
    0 1
    C               -0.253690538023074    -2.570226565459617    -2.381611733295812
    C               -1.432690538023075    -0.154226565459617     0.089388266705188
    C               -0.680690538023074    -1.346226565459617    -1.608611733294812
    C               -0.764690538023074    -0.043226565459617    -2.008611733295812
    N               -1.090690538023074    -1.374226565459617    -0.288611733295812
    N               -1.237690538023074     0.675773434540383    -0.936611733295812
    H               -1.800690538023074     0.054773434540383     1.088388266704188
    H               -1.409690538023074     1.672773434540383    -0.936611733295812
    H               -0.532690538023074     0.424773434540383    -2.956611733295812
    H                0.525309461976926    -3.062226565459617    -1.795611733295812
    H                0.176309461976926    -2.222226565459617    -3.320611733294812
    H               -1.054460538023074    -3.289426565459617    -2.608581733295812
    C                1.171309461976926     1.247773434540383     2.169388266705188
    C                1.374309461976925     2.550773434540383     2.961388266705188
    C                2.477309461976926     0.651773434540383     1.586388266705188
    H                0.731309461976926     0.538773434540383     2.871388266704189
    H                0.462309461976926     1.423773434540383     1.357388266704188
    H                2.006309461976926     3.219773434540383     2.380388266704188
    H                3.258309461976925     0.657773434540383     2.338388266704189
    H                1.864519561976926     2.342373434540383     3.923818266705188
    H                0.436673061976926     3.121773434540383     3.030258266704188
    H                2.259259161976925    -0.386426565459617     1.295658266705188
    H                2.910773461976925     1.202673434540383     0.738678266704188

}
e, wfn = energy('scf', return_wfn=True)
gdma(wfn)
dmavals = variable('DMA DISTRIBUTED MULTIPOLES')
charges = np.array(dmavals)
print(charges)
np.save('SSI-056HIE-287LEU-1-dimer.npy', np.array(charges))--------------------------------------------------------------------------

*** tstart() called on ds3
*** at Tue Apr 28 13:36:05 2020

   => Loading Basis Set <=

    Name: CC-PVDZ
    Role: ORBITAL
    Keyword: BASIS
    atoms 1-4, 13-15  entry C          line   138 file /theoryfs2/ds/metcalf/miniconda2/envs/tf2gpu/share/psi4/basis/cc-pvdz.gbs
    atoms 5-6         entry N          line   168 file /theoryfs2/ds/metcalf/miniconda2/envs/tf2gpu/share/psi4/basis/cc-pvdz.gbs
    atoms 7-12, 16-23 entry H          line    22 file /theoryfs2/ds/metcalf/miniconda2/envs/tf2gpu/share/psi4/basis/cc-pvdz.gbs

         ---------------------------------------------------------
                                   SCF
               by Justin Turney, Rob Parrish, Andy Simmonett
                          and Daniel G. A. Smith
                              RHF Reference
                        1 Threads,    500 MiB Core
         ---------------------------------------------------------

  ==> Geometry <==

    Molecular point group: c1
    Full point group: C1

    Geometry (in Angstrom), charge = 0, multiplicity = 1:

       Center              X                  Y                   Z               Mass
    ------------   -----------------  -----------------  -----------------  -----------------
         C           -0.253690538023    -2.570226565460    -2.381611733296    12.000000000000
         C           -1.432690538023    -0.154226565460     0.089388266705    12.000000000000
         C           -0.680690538023    -1.346226565460    -1.608611733295    12.000000000000
         C           -0.764690538023    -0.043226565460    -2.008611733296    12.000000000000
         N           -1.090690538023    -1.374226565460    -0.288611733296    14.003074004430
         N           -1.237690538023     0.675773434540    -0.936611733296    14.003074004430
         H           -1.800690538023     0.054773434540     1.088388266704     1.007825032230
         H           -1.409690538023     1.672773434540    -0.936611733296     1.007825032230
         H           -0.532690538023     0.424773434540    -2.956611733296     1.007825032230
         H            0.525309461977    -3.062226565460    -1.795611733296     1.007825032230
         H            0.176309461977    -2.222226565460    -3.320611733295     1.007825032230
         H           -1.054460538023    -3.289426565460    -2.608581733296     1.007825032230
         C            1.171309461977     1.247773434540     2.169388266705    12.000000000000
         C            1.374309461977     2.550773434540     2.961388266705    12.000000000000
         C            2.477309461977     0.651773434540     1.586388266705    12.000000000000
         H            0.731309461977     0.538773434540     2.871388266704     1.007825032230
         H            0.462309461977     1.423773434540     1.357388266704     1.007825032230
         H            2.006309461977     3.219773434540     2.380388266704     1.007825032230
         H            3.258309461977     0.657773434540     2.338388266704     1.007825032230
         H            1.864519561977     2.342373434540     3.923818266705     1.007825032230
         H            0.436673061977     3.121773434540     3.030258266704     1.007825032230
         H            2.259259161977    -0.386426565460     1.295658266705     1.007825032230
         H            2.910773461977     1.202673434540     0.738678266704     1.007825032230

  Running in c1 symmetry.

  Rotational constants: A =      0.09018  B =      0.02040  C =      0.01872 [cm^-1]
  Rotational constants: A =   2703.62040  B =    611.58735  C =    561.34862 [MHz]
  Nuclear repulsion =  426.746876941180346

  Charge       = 0
  Multiplicity = 1
  Electrons    = 70
  Nalpha       = 35
  Nbeta        = 35

  ==> Algorithm <==

  SCF Algorithm Type is PK.
  DIIS enabled.
  MOM disabled.
  Fractional occupation disabled.
  Guess Type is SAD.
  Energy threshold   = 1.00e-06
  Density threshold  = 1.00e-10
  Integral threshold = 0.00e+00

  ==> Primary Basis <==

  Basis Set: CC-PVDZ
    Blend: CC-PVDZ
    Number of shells: 96
    Number of basis function: 196
    Number of Cartesian functions: 205
    Spherical Harmonics?: true
    Max angular momentum: 2

  ==> Pre-Iterations <==

   -------------------------------------------------------
    Irrep   Nso     Nmo     Nalpha   Nbeta   Ndocc  Nsocc
   -------------------------------------------------------
     A        196     196       0       0       0       0
   -------------------------------------------------------
    Total     196     196      35      35      35       0
   -------------------------------------------------------

  ==> Integral Setup <==

  Using integral reordering PK algorithm.
  Sizing the integral batches needed.
  Building batch lookup table.
   Calculation information:
      Number of atoms:                  23
      Number of AO shells:              96
      Number of primitives:            268
      Number of atomic orbitals:       205
      Number of basis functions:       196

      Integral cutoff                 1.00e-12
      Number of threads:                 1

	Batch   1 pq = [       0,    9405] index = [             0,44231715] size =     44231715
	Batch   2 pq = [    9405,   13301] index = [      44231715,88464951] size =     44233236
	Batch   3 pq = [   13301,   16290] index = [      88464951,132690195] size =     44225244
	Batch   4 pq = [   16290,   18810] index = [     132690195,176917455] size =     44227260
	Batch   5 pq = [   18810,   19306] index = [     176917455,186370471] size =      9453016
  Task number: 17
  Buffer size: 11059200
  Buffer per thread: 2
  We computed 8733107 shell quartets total.
  Whereas there are 10841496 unique shell quartets.

  ==> DiskJK: Disk-Based J/K Matrices <==

    J tasked:                  Yes
    K tasked:                  Yes
    wK tasked:                  No
    Memory [MiB]:              375
    Schwarz Cutoff:          1E-12

    OpenMP threads:              1

  Minimum eigenvalue in the overlap matrix is 1.2009628982E-03.
  Using Symmetric Orthogonalization.

  SCF Guess: Superposition of Atomic Densities via on-the-fly atomic UHF.

  ==> Iterations <==

                        Total Energy        Delta E     RMS |[F,P]|

   @RHF iter SAD:  -381.12315453248982   -3.81123e+02   0.00000e+00
   @RHF iter   1:  -381.89156209569364   -7.68408e-01   3.11900e-03 DIIS
   @RHF iter   2:  -382.08812100209195   -1.96559e-01   1.56437e-03 DIIS
   @RHF iter   3:  -382.13306359678995   -4.49426e-02   3.98484e-04 DIIS
   @RHF iter   4:  -382.13693120578171   -3.86761e-03   1.70240e-04 DIIS
   @RHF iter   5:  -382.13756234307465   -6.31137e-04   2.53982e-05 DIIS
   @RHF iter   6:  -382.13758662516830   -2.42821e-05   1.06577e-05 DIIS
   @RHF iter   7:  -382.13759065783773   -4.03267e-06   3.70681e-06 DIIS
   @RHF iter   8:  -382.13759148974253   -8.31905e-07   1.51951e-06 DIIS
   @RHF iter   9:  -382.13759167016099   -1.80418e-07   5.35782e-07 DIIS
   @RHF iter  10:  -382.13759168794019   -1.77792e-08   1.60268e-07 DIIS
   @RHF iter  11:  -382.13759168989566   -1.95547e-09   6.94882e-08 DIIS
   @RHF iter  12:  -382.13759169014259   -2.46928e-10   2.92301e-08 DIIS
   @RHF iter  13:  -382.13759169018965   -4.70664e-11   9.37848e-09 DIIS
   @RHF iter  14:  -382.13759169019477   -5.11591e-12   3.08551e-09 DIIS
   @RHF iter  15:  -382.13759169019465    1.13687e-13   1.17023e-09 DIIS
   @RHF iter  16:  -382.13759169019511   -4.54747e-13   4.18255e-10 DIIS
   @RHF iter  17:  -382.13759169019482    2.84217e-13   1.42053e-10 DIIS
   @RHF iter  18:  -382.13759169019579   -9.66338e-13   4.43994e-11 DIIS
  Energy and wave function converged.

  ==> Post-Iterations <==

    Orbital Energies [Eh]
    ---------------------

    Doubly Occupied:

       1A    -15.619998     2A    -15.527125     3A    -11.291683
       4A    -11.252531     5A    -11.244312     6A    -11.225627
       7A    -11.221808     8A    -11.218192     9A    -11.214769
      10A     -1.340510    11A     -1.152906    12A     -1.046361
      13A     -1.029631    14A     -0.939038    15A     -0.922161
      16A     -0.815881    17A     -0.797662    18A     -0.767361
      19A     -0.736601    20A     -0.624285    21A     -0.608011
      22A     -0.602093    23A     -0.597420    24A     -0.585285
      25A     -0.553853    26A     -0.548900    27A     -0.538161
      28A     -0.532330    29A     -0.521080    30A     -0.470102
      31A     -0.466185    32A     -0.462898    33A     -0.409558
      34A     -0.378059    35A     -0.308875

    Virtual:

      36A      0.162940    37A      0.188208    38A      0.192432
      39A      0.199580    40A      0.211894    41A      0.222750
      42A      0.229894    43A      0.235465    44A      0.246877
      45A      0.262801    46A      0.270583    47A      0.276224
      48A      0.286730    49A      0.299279    50A      0.301940
      51A      0.321439    52A      0.371403    53A      0.380000
      54A      0.399219    55A      0.415542    56A      0.426920
      57A      0.474789    58A      0.504046    59A      0.580314
      60A      0.587565    61A      0.607640    62A      0.611394
      63A      0.615130    64A      0.634036    65A      0.639872
      66A      0.642910    67A      0.669217    68A      0.704841
      69A      0.745586    70A      0.755316    71A      0.764999
      72A      0.776531    73A      0.797202    74A      0.815582
      75A      0.819361    76A      0.834234    77A      0.846165
      78A      0.862438    79A      0.881458    80A      0.882045
      81A      0.890351    82A      0.894570    83A      0.897774
      84A      0.905246    85A      0.913027    86A      0.913419
      87A      0.923853    88A      0.931783    89A      0.952537
      90A      0.962112    91A      0.971875    92A      0.980842
      93A      0.992210    94A      1.025741    95A      1.088171
      96A      1.100349    97A      1.108315    98A      1.116293
      99A      1.133305   100A      1.137020   101A      1.153667
     102A      1.190312   103A      1.229463   104A      1.248401
     105A      1.280947   106A      1.314934   107A      1.327747
     108A      1.333970   109A      1.385363   110A      1.420824
     111A      1.430169   112A      1.444940   113A      1.477533
     114A      1.492514   115A      1.528877   116A      1.548495
     117A      1.569026   118A      1.586300   119A      1.634351
     120A      1.652697   121A      1.673649   122A      1.686399
     123A      1.694964   124A      1.710943   125A      1.722565
     126A      1.775611   127A      1.790228   128A      1.816665
     129A      1.834045   130A      1.861487   131A      1.866209
     132A      1.893887   133A      1.900776   134A      1.908896
     135A      1.910962   136A      1.930662   137A      1.936580
     138A      1.948546   139A      1.951477   140A      1.963876
     141A      1.971749   142A      1.977166   143A      1.987604
     144A      1.993285   145A      1.999310   146A      2.014865
     147A      2.033403   148A      2.047686   149A      2.111253
     150A      2.125902   151A      2.143460   152A      2.144528
     153A      2.166199   154A      2.181125   155A      2.206318
     156A      2.217314   157A      2.258356   158A      2.283919
     159A      2.301371   160A      2.329358   161A      2.343074
     162A      2.367068   163A      2.384817   164A      2.436265
     165A      2.449810   166A      2.480447   167A      2.491534
     168A      2.510733   169A      2.545262   170A      2.573495
     171A      2.594721   172A      2.617679   173A      2.649867
     174A      2.682097   175A      2.739142   176A      2.748963
     177A      2.752143   178A      2.762420   179A      2.779501
     180A      2.782263   181A      2.788822   182A      2.811796
     183A      2.822833   184A      2.848910   185A      2.892900
     186A      2.894564   187A      2.911577   188A      2.941602
     189A      2.966103   190A      2.986387   191A      3.059443
     192A      3.093263   193A      3.171594   194A      3.234850
     195A      3.470161   196A      3.799342

    Final Occupation by Irrep:
              A
    DOCC [    35 ]

  @RHF Final Energy:  -382.13759169019579

   => Energetics <=

    Nuclear Repulsion Energy =            426.7468769411803464
    One-Electron Energy =               -1362.6264375621703948
    Two-Electron Energy =                 553.7419689307943145
    Total Energy =                       -382.1375916901957908

Computation Completed

Properties will be evaluated at   0.000000,   0.000000,   0.000000 [a0]

Properties computed using the SCF density matrix

  Nuclear Dipole Moment: [e a0]
     X:     9.2254      Y:     5.3446      Z:     6.9468

  Electronic Dipole Moment: [e a0]
     X:    -9.3552      Y:    -4.1303      Z:    -7.3519

  Dipole Moment: [e a0]
     X:    -0.1297      Y:     1.2143      Z:    -0.4051     Total:     1.2866

  Dipole Moment: [D]
     X:    -0.3298      Y:     3.0863      Z:    -1.0298     Total:     3.2703

*** tstop() called on ds3 at Tue Apr 28 13:38:37 2020
Module time:
	user time   =      60.81 seconds =       1.01 minutes
	system time =      29.78 seconds =       0.50 minutes
	total time  =        152 seconds =       2.53 minutes
Total time:
	user time   =      60.81 seconds =       1.01 minutes
	system time =      29.78 seconds =       0.50 minutes
	total time  =        152 seconds =       2.53 minutes
                                     G D M A

                                 by Anthony Stone

                           version 2.2.06, 22 June 2011

               Distributed Multipoles from Gaussian wavefunctions

Starting at 13:38:37 on 28 Apr 2020

Using SCF density matrix from file ./SSI/SSI-056HIE-287LEU-1-dimer.test.16416.fchk

                         Distributed Multipole Analysis

Standard DMA

Positions and radii in angstrom
Multipole moments in atomic units, ea_0^k for rank k

C          x = -0.253691  y = -2.570227  z = -2.381612 angstrom
           Maximum rank =  0   Radius =  0.650 angstrom
                   Q00  =  -0.188053

C          x = -1.432691  y = -0.154227  z =  0.089388 angstrom
           Maximum rank =  0   Radius =  0.650 angstrom
                   Q00  =   0.469454

C          x = -0.680691  y = -1.346227  z = -1.608612 angstrom
           Maximum rank =  0   Radius =  0.650 angstrom
                   Q00  =   0.220278

C          x = -0.764691  y = -0.043227  z = -2.008612 angstrom
           Maximum rank =  0   Radius =  0.650 angstrom
                   Q00  =  -0.019853

N          x = -1.090691  y = -1.374227  z = -0.288612 angstrom
           Maximum rank =  0   Radius =  0.650 angstrom
                   Q00  =  -0.770860

N          x = -1.237691  y =  0.675773  z = -0.936612 angstrom
           Maximum rank =  0   Radius =  0.650 angstrom
                   Q00  =  -0.466279

H          x = -1.800691  y =  0.054773  z =  1.088388 angstrom
           Maximum rank =  0   Radius =  0.325 angstrom
                   Q00  =   0.127947

H          x = -1.409691  y =  1.672773  z = -0.936612 angstrom
           Maximum rank =  0   Radius =  0.325 angstrom
                   Q00  =   0.219387

H          x = -0.532691  y =  0.424773  z = -2.956612 angstrom
           Maximum rank =  0   Radius =  0.325 angstrom
                   Q00  =   0.101130

H          x =  0.525309  y = -3.062227  z = -1.795612 angstrom
           Maximum rank =  0   Radius =  0.325 angstrom
                   Q00  =   0.110573

H          x =  0.176309  y = -2.222227  z = -3.320612 angstrom
           Maximum rank =  0   Radius =  0.325 angstrom
                   Q00  =   0.091592

H          x = -1.054461  y = -3.289427  z = -2.608582 angstrom
           Maximum rank =  0   Radius =  0.325 angstrom
                   Q00  =   0.109010

C          x =  1.171309  y =  1.247773  z =  2.169388 angstrom
           Maximum rank =  0   Radius =  0.650 angstrom
                   Q00  =  -0.059491

C          x =  1.374309  y =  2.550773  z =  2.961388 angstrom
           Maximum rank =  0   Radius =  0.650 angstrom
                   Q00  =  -0.228859

C          x =  2.477309  y =  0.651773  z =  1.586388 angstrom
           Maximum rank =  0   Radius =  0.650 angstrom
                   Q00  =  -0.255594

H          x =  0.731309  y =  0.538773  z =  2.871388 angstrom
           Maximum rank =  0   Radius =  0.325 angstrom
                   Q00  =   0.049313

H          x =  0.462309  y =  1.423773  z =  1.357388 angstrom
           Maximum rank =  0   Radius =  0.325 angstrom
                   Q00  =   0.034300

H          x =  2.006309  y =  3.219773  z =  2.380388 angstrom
           Maximum rank =  0   Radius =  0.325 angstrom
                   Q00  =   0.069770

H          x =  3.258309  y =  0.657773  z =  2.338388 angstrom
           Maximum rank =  0   Radius =  0.325 angstrom
                   Q00  =   0.074215

H          x =  1.864520  y =  2.342373  z =  3.923818 angstrom
           Maximum rank =  0   Radius =  0.325 angstrom
                   Q00  =   0.073038

H          x =  0.436673  y =  3.121773  z =  3.030258 angstrom
           Maximum rank =  0   Radius =  0.325 angstrom
                   Q00  =   0.064673

H          x =  2.259259  y = -0.386427  z =  1.295658 angstrom
           Maximum rank =  0   Radius =  0.325 angstrom
                   Q00  =   0.093400

H          x =  2.910773  y =  1.202673  z =  0.738678 angstrom
           Maximum rank =  0   Radius =  0.325 angstrom
                   Q00  =   0.080911

Total multipoles referred to origin at
           x =   0.000000,  y =    0.000000,  z =    0.000000 angstrom
                   Q00  =  -0.000000

Finished at 13:38:37 on 28 Apr 2020

  DMA results are available in the Python driver through the
	  variable('DMA DISTRIBUTED MULTIPOLES')
  and
	  variable('DMA TOTAL MULTIPOLES')
  commands.

    Psi4 stopped on: Tuesday, 28 April 2020 01:38PM
    Psi4 wall time for execution: 0:02:31.50

*** Psi4 exiting successfully. Buy a developer a beer!
