                               Psi4 1.3.2 release

  ==> Input File <==

--------------------------------------------------------------------------
import numpy as np
set {scf_type pk
basis cc-pvdz
d_convergence 10
gdma_switch   0
gdma_limit    0
gdma_origin   [ 0.0,  0.0,  0.0 ]
}
molecule test {
    units Angstrom
    0 1
    --
    0 1
    C                0.168118890916672    -0.807374844628299    -2.570951637105932
    C                0.291118890916672    -1.011374844628299    -1.074951637105933
    C                1.215118890916672    -0.298374844628299    -0.307951637105933
    C               -0.545881109083328    -1.924374844628300    -0.428951637105933
    C                1.304118890916672    -0.499374844628299     1.068048362894067
    C               -0.455881109083328    -2.140374844628299     0.945048362894067
    C                0.468118890916672    -1.427374844628299     1.691048362894067
    O                0.543118890916672    -1.649374844628299     3.033048362894067
    H               -0.757881109083328    -0.260374844628299    -2.754951637105933
    H                0.067118890916672    -1.786374844628300    -3.036951637105933
    H                1.861118890916672     0.442625155371701    -0.744951637105933
    H               -1.285881109083328    -2.468374844628300    -0.999951637105933
    H                2.019118890916671     0.064625155371701     1.650048362894067
    H               -1.105881109083328    -2.850374844628299     1.435048362894067
    H                1.228118890916672    -1.121374844628299     3.455048362894067
    H                0.992908890916672    -0.274745844628299    -3.066971637105933
    C               -0.495881109083328     2.634625155371701    -0.795951637105933
    C               -0.431881109083328     3.971625155371701    -1.541951637105933
    C               -1.840881109083328     2.360625155371701    -0.135951637105933
    H               -0.281881109083328     1.827625155371701    -1.492951637105933
    H                0.264118890916672     2.624625155371700    -0.013951637105933
    H               -0.653881109083328     4.772625155371700    -0.832951637105933
    H               -2.598881109083328     2.118625155371701    -0.878951637105933
    H               -1.736881109083328     1.500625155371700     0.527048362894067
    H               -2.156881109083328     3.222625155371701     0.453048362894067
    H                0.571618890916672     4.140185155371701    -1.959781637105933
    H               -1.190201109083328     4.005155155371701    -2.338081637105933

}
e, wfn = energy('scf', return_wfn=True)
gdma(wfn)
dmavals = variable('DMA DISTRIBUTED MULTIPOLES')
charges = np.array(dmavals)
print(charges)
np.save('SSI-143TYR-150ILE-1-dimer.npy', np.array(charges))--------------------------------------------------------------------------

*** tstart() called on ds3
*** at Mon Apr 27 17:44:36 2020

   => Loading Basis Set <=

    Name: CC-PVDZ
    Role: ORBITAL
    Keyword: BASIS
    atoms 1-7, 17-19  entry C          line   138 file /theoryfs2/ds/metcalf/miniconda2/envs/tf2gpu/share/psi4/basis/cc-pvdz.gbs
    atoms 8           entry O          line   198 file /theoryfs2/ds/metcalf/miniconda2/envs/tf2gpu/share/psi4/basis/cc-pvdz.gbs
    atoms 9-16, 20-27 entry H          line    22 file /theoryfs2/ds/metcalf/miniconda2/envs/tf2gpu/share/psi4/basis/cc-pvdz.gbs

         ---------------------------------------------------------
                                   SCF
               by Justin Turney, Rob Parrish, Andy Simmonett
                          and Daniel G. A. Smith
                              RHF Reference
                        1 Threads,    500 MiB Core
         ---------------------------------------------------------

  ==> Geometry <==

    Molecular point group: c1
    Full point group: C1

    Geometry (in Angstrom), charge = 0, multiplicity = 1:

       Center              X                  Y                   Z               Mass
    ------------   -----------------  -----------------  -----------------  -----------------
         C            0.168118890917    -0.807374844628    -2.570951637106    12.000000000000
         C            0.291118890917    -1.011374844628    -1.074951637106    12.000000000000
         C            1.215118890917    -0.298374844628    -0.307951637106    12.000000000000
         C           -0.545881109083    -1.924374844628    -0.428951637106    12.000000000000
         C            1.304118890917    -0.499374844628     1.068048362894    12.000000000000
         C           -0.455881109083    -2.140374844628     0.945048362894    12.000000000000
         C            0.468118890917    -1.427374844628     1.691048362894    12.000000000000
         O            0.543118890917    -1.649374844628     3.033048362894    15.994914619570
         H           -0.757881109083    -0.260374844628    -2.754951637106     1.007825032230
         H            0.067118890917    -1.786374844628    -3.036951637106     1.007825032230
         H            1.861118890917     0.442625155372    -0.744951637106     1.007825032230
         H           -1.285881109083    -2.468374844628    -0.999951637106     1.007825032230
         H            2.019118890917     0.064625155372     1.650048362894     1.007825032230
         H           -1.105881109083    -2.850374844628     1.435048362894     1.007825032230
         H            1.228118890917    -1.121374844628     3.455048362894     1.007825032230
         H            0.992908890917    -0.274745844628    -3.066971637106     1.007825032230
         C           -0.495881109083     2.634625155372    -0.795951637106    12.000000000000
         C           -0.431881109083     3.971625155372    -1.541951637106    12.000000000000
         C           -1.840881109083     2.360625155372    -0.135951637106    12.000000000000
         H           -0.281881109083     1.827625155372    -1.492951637106     1.007825032230
         H            0.264118890917     2.624625155372    -0.013951637106     1.007825032230
         H           -0.653881109083     4.772625155372    -0.832951637106     1.007825032230
         H           -2.598881109083     2.118625155372    -0.878951637106     1.007825032230
         H           -1.736881109083     1.500625155372     0.527048362894     1.007825032230
         H           -2.156881109083     3.222625155372     0.453048362894     1.007825032230
         H            0.571618890917     4.140185155372    -1.959781637106     1.007825032230
         H           -1.190201109083     4.005155155372    -2.338081637106     1.007825032230

  Running in c1 symmetry.

  Rotational constants: A =      0.04534  B =      0.01893  C =      0.01593 [cm^-1]
  Rotational constants: A =   1359.12562  B =    567.35823  C =    477.47670 [MHz]
  Nuclear repulsion =  589.736462484055096

  Charge       = 0
  Multiplicity = 1
  Electrons    = 84
  Nalpha       = 42
  Nbeta        = 42

  ==> Algorithm <==

  SCF Algorithm Type is PK.
  DIIS enabled.
  MOM disabled.
  Fractional occupation disabled.
  Guess Type is SAD.
  Energy threshold   = 1.00e-06
  Density threshold  = 1.00e-10
  Integral threshold = 0.00e+00

  ==> Primary Basis <==

  Basis Set: CC-PVDZ
    Blend: CC-PVDZ
    Number of shells: 114
    Number of basis function: 234
    Number of Cartesian functions: 245
    Spherical Harmonics?: true
    Max angular momentum: 2

  ==> Pre-Iterations <==

   -------------------------------------------------------
    Irrep   Nso     Nmo     Nalpha   Nbeta   Ndocc  Nsocc
   -------------------------------------------------------
     A        234     234       0       0       0       0
   -------------------------------------------------------
    Total     234     234      42      42      42       0
   -------------------------------------------------------

  ==> Integral Setup <==

  Using integral reordering PK algorithm.
  Sizing the integral batches needed.
  Building batch lookup table.
   Calculation information:
      Number of atoms:                  27
      Number of AO shells:             114
      Number of primitives:            322
      Number of atomic orbitals:       245
      Number of basis functions:       234

      Integral cutoff                 1.00e-12
      Number of threads:                 1

	Batch   1 pq = [       0,    9405] index = [             0,44231715] size =     44231715
	Batch   2 pq = [    9405,   13301] index = [      44231715,88464951] size =     44233236
	Batch   3 pq = [   13301,   16290] index = [      88464951,132690195] size =     44225244
	Batch   4 pq = [   16290,   18810] index = [     132690195,176917455] size =     44227260
	Batch   5 pq = [   18810,   21030] index = [     176917455,221140965] size =     44223510
	Batch   6 pq = [   21030,   23037] index = [     221140965,265363203] size =     44222238
	Batch   7 pq = [   23037,   24883] index = [     265363203,309594286] size =     44231083
	Batch   8 pq = [   24883,   26601] index = [     309594286,353819901] size =     44225615
	Batch   9 pq = [   26601,   27495] index = [     353819901,378001260] size =     24181359
  Task number: 35
  Buffer size: 11059200
  Buffer per thread: 2
  We computed 21463904 shell quartets total.
  Whereas there are 21487290 unique shell quartets.

  ==> DiskJK: Disk-Based J/K Matrices <==

    J tasked:                  Yes
    K tasked:                  Yes
    wK tasked:                  No
    Memory [MiB]:              375
    Schwarz Cutoff:          1E-12

    OpenMP threads:              1

  Minimum eigenvalue in the overlap matrix is 3.2081752955E-04.
  Using Symmetric Orthogonalization.

  SCF Guess: Superposition of Atomic Densities via on-the-fly atomic UHF.

  ==> Iterations <==

                        Total Energy        Delta E     RMS |[F,P]|

   @RHF iter SAD:  -461.69774533596802   -4.61698e+02   0.00000e+00
   @RHF iter   1:  -462.60515337514994   -9.07408e-01   2.82049e-03 DIIS
   @RHF iter   2:  -462.84846728498081   -2.43314e-01   1.19609e-03 DIIS
   @RHF iter   3:  -462.88806152699493   -3.95942e-02   2.69510e-04 DIIS
   @RHF iter   4:  -462.89132973746382   -3.26821e-03   1.05940e-04 DIIS
   @RHF iter   5:  -462.89168848920127   -3.58752e-04   2.06995e-05 DIIS
   @RHF iter   6:  -462.89170868414107   -2.01949e-05   6.53407e-06 DIIS
   @RHF iter   7:  -462.89171083960321   -2.15546e-06   2.01554e-06 DIIS
   @RHF iter   8:  -462.89171114164253   -3.02039e-07   7.87495e-07 DIIS
   @RHF iter   9:  -462.89171120059177   -5.89492e-08   3.77482e-07 DIIS
   @RHF iter  10:  -462.89171121485515   -1.42634e-08   1.64151e-07 DIIS
   @RHF iter  11:  -462.89171121951517   -4.66002e-09   6.39134e-08 DIIS
   @RHF iter  12:  -462.89171122010305   -5.87875e-10   2.76274e-08 DIIS
   @RHF iter  13:  -462.89171122017171   -6.86668e-11   8.28983e-09 DIIS
   @RHF iter  14:  -462.89171122017802   -6.30962e-12   2.06276e-09 DIIS
   @RHF iter  15:  -462.89171122017450    3.52429e-12   7.50152e-10 DIIS
   @RHF iter  16:  -462.89171122017405    4.54747e-13   2.83742e-10 DIIS
   @RHF iter  17:  -462.89171122017632   -2.27374e-12   1.33366e-10 DIIS
   @RHF iter  18:  -462.89171122017729   -9.66338e-13   6.72378e-11 DIIS
  Energy and wave function converged.

  ==> Post-Iterations <==

    Orbital Energies [Eh]
    ---------------------

    Doubly Occupied:

       1A    -20.582795     2A    -11.298852     3A    -11.238946
       4A    -11.238442     5A    -11.235471     6A    -11.232850
       7A    -11.229714     8A    -11.229582     9A    -11.215375
      10A    -11.213749    11A    -11.208415    12A     -1.399641
      13A     -1.150217    14A     -1.049281    15A     -1.036611
      16A     -1.017881    17A     -0.927237    18A     -0.920850
      19A     -0.844204    20A     -0.803357    21A     -0.791645
      22A     -0.732999    23A     -0.665589    24A     -0.642141
      25A     -0.623370    26A     -0.607651    27A     -0.592943
      28A     -0.586624    29A     -0.584557    30A     -0.570166
      31A     -0.565931    32A     -0.545128    33A     -0.531028
      34A     -0.528346    35A     -0.495609    36A     -0.486517
      37A     -0.469594    38A     -0.465666    39A     -0.464041
      40A     -0.461740    41A     -0.337955    42A     -0.300966

    Virtual:

      43A      0.129523    44A      0.156116    45A      0.171208
      46A      0.179281    47A      0.199120    48A      0.206863
      49A      0.214416    50A      0.233860    51A      0.245815
      52A      0.256600    53A      0.259312    54A      0.269045
      55A      0.279996    56A      0.287635    57A      0.289194
      58A      0.304746    59A      0.309300    60A      0.323139
      61A      0.367791    62A      0.376566    63A      0.381673
      64A      0.429534    65A      0.431215    66A      0.455678
      67A      0.482637    68A      0.495117    69A      0.510171
      70A      0.573820    71A      0.594371    72A      0.611593
      73A      0.615369    74A      0.622040    75A      0.635934
      76A      0.649837    77A      0.657242    78A      0.679874
      79A      0.699130    80A      0.715749    81A      0.724175
      82A      0.736284    83A      0.743804    84A      0.756219
      85A      0.767324    86A      0.776588    87A      0.782587
      88A      0.803655    89A      0.807298    90A      0.820244
      91A      0.836277    92A      0.848749    93A      0.852388
      94A      0.869683    95A      0.879652    96A      0.881588
      97A      0.889941    98A      0.895153    99A      0.900056
     100A      0.901894   101A      0.907621   102A      0.922050
     103A      0.930011   104A      0.938966   105A      0.944126
     106A      0.955809   107A      0.963610   108A      0.972505
     109A      0.981448   110A      0.998314   111A      1.010288
     112A      1.027069   113A      1.041474   114A      1.086092
     115A      1.124844   116A      1.132935   117A      1.134967
     118A      1.145236   119A      1.164875   120A      1.180139
     121A      1.201290   122A      1.232605   123A      1.244857
     124A      1.251205   125A      1.274017   126A      1.286416
     127A      1.294958   128A      1.312592   129A      1.319822
     130A      1.349562   131A      1.363474   132A      1.394230
     133A      1.397871   134A      1.471057   135A      1.486044
     136A      1.490925   137A      1.503597   138A      1.527096
     139A      1.552541   140A      1.575648   141A      1.609661
     142A      1.619199   143A      1.652960   144A      1.676738
     145A      1.686369   146A      1.695639   147A      1.707891
     148A      1.711045   149A      1.735589   150A      1.753967
     151A      1.792043   152A      1.809845   153A      1.818029
     154A      1.857290   155A      1.874043   156A      1.881118
     157A      1.884414   158A      1.898036   159A      1.903124
     160A      1.909112   161A      1.914293   162A      1.923330
     163A      1.933469   164A      1.939453   165A      1.940602
     166A      1.955132   167A      1.960333   168A      1.967558
     169A      1.981277   170A      1.992422   171A      2.000307
     172A      2.002122   173A      2.016392   174A      2.021779
     175A      2.045734   176A      2.051595   177A      2.068102
     178A      2.073430   179A      2.077076   180A      2.092954
     181A      2.133557   182A      2.142384   183A      2.153810
     184A      2.166257   185A      2.169819   186A      2.197735
     187A      2.220590   188A      2.267387   189A      2.276276
     190A      2.296816   191A      2.301824   192A      2.317453
     193A      2.342567   194A      2.349330   195A      2.361996
     196A      2.377967   197A      2.409997   198A      2.456670
     199A      2.480783   200A      2.483040   201A      2.499498
     202A      2.528201   203A      2.538262   204A      2.543370
     205A      2.587677   206A      2.621915   207A      2.628513
     208A      2.634186   209A      2.642536   210A      2.734523
     211A      2.756682   212A      2.763902   213A      2.775243
     214A      2.783064   215A      2.800974   216A      2.810442
     217A      2.832101   218A      2.854738   219A      2.917176
     220A      2.926852   221A      2.960909   222A      2.979902
     223A      2.989647   224A      3.001327   225A      3.088477
     226A      3.096408   227A      3.150421   228A      3.247975
     229A      3.281822   230A      3.349941   231A      3.569950
     232A      3.677350   233A      3.965124   234A      4.198003

    Final Occupation by Irrep:
              A
    DOCC [    42 ]

  @RHF Final Energy:  -462.89171122017729

   => Energetics <=

    Nuclear Repulsion Energy =            589.7364624840550960
    One-Electron Energy =               -1797.0089910987423991
    Two-Electron Energy =                 744.3808173945101316
    Total Energy =                       -462.8917112201772852

Computation Completed

Properties will be evaluated at   0.000000,   0.000000,   0.000000 [a0]

Properties computed using the SCF density matrix

  Nuclear Dipole Moment: [e a0]
     X:    -4.4636      Y:    14.9520      Z:    -9.9228

  Electronic Dipole Moment: [e a0]
     X:     4.8562      Y:   -14.6595      Z:     9.8135

  Dipole Moment: [e a0]
     X:     0.3926      Y:     0.2925      Z:    -0.1093     Total:     0.5016

  Dipole Moment: [D]
     X:     0.9979      Y:     0.7434      Z:    -0.2778     Total:     1.2750

*** tstop() called on ds3 at Mon Apr 27 17:48:14 2020
Module time:
	user time   =     163.89 seconds =       2.73 minutes
	system time =      63.20 seconds =       1.05 minutes
	total time  =        218 seconds =       3.63 minutes
Total time:
	user time   =     163.89 seconds =       2.73 minutes
	system time =      63.20 seconds =       1.05 minutes
	total time  =        218 seconds =       3.63 minutes
                                     G D M A

                                 by Anthony Stone

                           version 2.2.06, 22 June 2011

               Distributed Multipoles from Gaussian wavefunctions

Starting at 17:48:14 on 27 Apr 2020

Using SCF density matrix from file ./SSI/SSI-143TYR-150ILE-1-dimer.test.14427.fchk

                         Distributed Multipole Analysis

Standard DMA

Positions and radii in angstrom
Multipole moments in atomic units, ea_0^k for rank k

C          x =  0.168119  y = -0.807375  z = -2.570952 angstrom
           Maximum rank =  0   Radius =  0.650 angstrom
                   Q00  =  -0.206390

C          x =  0.291119  y = -1.011375  z = -1.074952 angstrom
           Maximum rank =  0   Radius =  0.650 angstrom
                   Q00  =  -0.123264

C          x =  1.215119  y = -0.298375  z = -0.307952 angstrom
           Maximum rank =  0   Radius =  0.650 angstrom
                   Q00  =  -0.054684

C          x = -0.545881  y = -1.924375  z = -0.428952 angstrom
           Maximum rank =  0   Radius =  0.650 angstrom
                   Q00  =   0.046142

C          x =  1.304119  y = -0.499375  z =  1.068048 angstrom
           Maximum rank =  0   Radius =  0.650 angstrom
                   Q00  =  -0.181908

C          x = -0.455881  y = -2.140375  z =  0.945048 angstrom
           Maximum rank =  0   Radius =  0.650 angstrom
                   Q00  =  -0.112548

C          x =  0.468119  y = -1.427375  z =  1.691048 angstrom
           Maximum rank =  0   Radius =  0.650 angstrom
                   Q00  =   0.321743

O          x =  0.543119  y = -1.649375  z =  3.033048 angstrom
           Maximum rank =  0   Radius =  0.650 angstrom
                   Q00  =  -0.669983

H          x = -0.757881  y = -0.260375  z = -2.754952 angstrom
           Maximum rank =  0   Radius =  0.325 angstrom
                   Q00  =   0.094239

H          x =  0.067119  y = -1.786375  z = -3.036952 angstrom
           Maximum rank =  0   Radius =  0.325 angstrom
                   Q00  =   0.099725

H          x =  1.861119  y =  0.442625  z = -0.744952 angstrom
           Maximum rank =  0   Radius =  0.325 angstrom
                   Q00  =   0.071403

H          x = -1.285881  y = -2.468375  z = -0.999952 angstrom
           Maximum rank =  0   Radius =  0.325 angstrom
                   Q00  =   0.062241

H          x =  2.019119  y =  0.064625  z =  1.650048 angstrom
           Maximum rank =  0   Radius =  0.325 angstrom
                   Q00  =   0.071573

H          x = -1.105881  y = -2.850375  z =  1.435048 angstrom
           Maximum rank =  0   Radius =  0.325 angstrom
                   Q00  =   0.081249

H          x =  1.228119  y = -1.121375  z =  3.455048 angstrom
           Maximum rank =  0   Radius =  0.325 angstrom
                   Q00  =   0.405532

H          x =  0.992909  y = -0.274746  z = -3.066972 angstrom
           Maximum rank =  0   Radius =  0.325 angstrom
                   Q00  =   0.101231

C          x = -0.495881  y =  2.634625  z = -0.795952 angstrom
           Maximum rank =  0   Radius =  0.650 angstrom
                   Q00  =  -0.073372

C          x = -0.431881  y =  3.971625  z = -1.541952 angstrom
           Maximum rank =  0   Radius =  0.650 angstrom
                   Q00  =  -0.241894

C          x = -1.840881  y =  2.360625  z = -0.135952 angstrom
           Maximum rank =  0   Radius =  0.650 angstrom
                   Q00  =  -0.247745

H          x = -0.281881  y =  1.827625  z = -1.492952 angstrom
           Maximum rank =  0   Radius =  0.325 angstrom
                   Q00  =   0.044083

H          x =  0.264119  y =  2.624625  z = -0.013952 angstrom
           Maximum rank =  0   Radius =  0.325 angstrom
                   Q00  =   0.040083

H          x = -0.653881  y =  4.772625  z = -0.832952 angstrom
           Maximum rank =  0   Radius =  0.325 angstrom
                   Q00  =   0.074993

H          x = -2.598881  y =  2.118625  z = -0.878952 angstrom
           Maximum rank =  0   Radius =  0.325 angstrom
                   Q00  =   0.074903

H          x = -1.736881  y =  1.500625  z =  0.527048 angstrom
           Maximum rank =  0   Radius =  0.325 angstrom
                   Q00  =   0.093308

H          x = -2.156881  y =  3.222625  z =  0.453048 angstrom
           Maximum rank =  0   Radius =  0.325 angstrom
                   Q00  =   0.072726

H          x =  0.571619  y =  4.140185  z = -1.959782 angstrom
           Maximum rank =  0   Radius =  0.325 angstrom
                   Q00  =   0.081249

H          x = -1.190201  y =  4.005155  z = -2.338082 angstrom
           Maximum rank =  0   Radius =  0.325 angstrom
                   Q00  =   0.075366

Total multipoles referred to origin at
           x =   0.000000,  y =    0.000000,  z =    0.000000 angstrom
                   Q00  =  -0.000000

Finished at 17:48:14 on 27 Apr 2020

  DMA results are available in the Python driver through the
	  variable('DMA DISTRIBUTED MULTIPOLES')
  and
	  variable('DMA TOTAL MULTIPOLES')
  commands.

    Psi4 stopped on: Monday, 27 April 2020 05:48PM
    Psi4 wall time for execution: 0:03:38.45

*** Psi4 exiting successfully. Buy a developer a beer!
