                               Psi4 1.3.2 release

  ==> Input File <==

--------------------------------------------------------------------------
import numpy as np
set {scf_type pk
basis cc-pvdz
d_convergence 10
gdma_switch   0
gdma_limit    0
gdma_origin   [ 0.0,  0.0,  0.0 ]
}
molecule test {
    units Angstrom
    1 1
    --
    1 1
    C                2.551014667902164    -0.286068566983063     0.624024948837223
    C                1.008014667902164     0.034931433016937     2.522024948837223
    N                1.788014667902164    -0.754068566983063     1.793024948837223
    N                0.872014667902164     1.311931433016937     2.206024948837223
    N                0.354014667902164    -0.449068566983063     3.560024948837223
    H                1.879014667902164    -1.718068566983063     2.074024948837223
    H                1.408014667902164     1.692931433016937     1.446024948837223
    H                0.336014667902164     1.922931433016937     2.800024948837223
    H                0.421014667902164    -1.426068566983063     3.793024948837223
    H               -0.262985332097836     0.143931433016937     4.090024948837223
    H                3.315014667902164     0.417931433016937     0.962024948837223
    H                1.889014667902164     0.232931433016937    -0.072975051162777
    H                3.057404667902164    -1.094406566983063     0.076154948837223
    C               -0.061985332097836    -1.083068566983063    -4.028975051162777
    C               -1.307985332097836     0.509931433016937    -0.274975051162777
    C               -0.564985332097836     1.310931433016937    -1.141975051162777
    C               -1.609985332097836    -0.806068566983063    -0.622975051162777
    C               -0.165985332097836     0.790931433016937    -2.362975051162777
    C               -1.221985332097836    -1.296068566983063    -1.831975051162777
    C               -0.481985332097836    -0.519068566983063    -2.707975051162777
    O               -1.700985332097836     1.013931433016937     0.932024948837223
    H               -0.317985332097836     2.329931433016937    -0.876975051162777
    H               -1.463985332097836     1.942931433016937     1.024024948837223
    H               -2.167985332097836    -1.424068566983063     0.066024948837223
    H                0.405014667902164     1.407931433016937    -3.045975051162777
    H               -1.472985332097836    -2.313068566983063    -2.098975051162777
    H               -0.323985332097836    -2.142068566983062    -4.078975051162777
    H                1.025014667902164    -1.013068566983063    -4.093975051162777
    H               -0.510419332097836    -0.565868566983063    -4.890025051162778

}
e, wfn = energy('scf', return_wfn=True)
gdma(wfn)
dmavals = variable('DMA DISTRIBUTED MULTIPOLES')
charges = np.array(dmavals)
print(charges)
np.save('SSI-074ARG-147TYR-2-dimer.npy', np.array(charges))--------------------------------------------------------------------------

*** tstart() called on ds3
*** at Mon Apr 27 13:35:18 2020

   => Loading Basis Set <=

    Name: CC-PVDZ
    Role: ORBITAL
    Keyword: BASIS
    atoms 1-2, 14-20  entry C          line   138 file /theoryfs2/ds/metcalf/miniconda2/envs/tf2gpu/share/psi4/basis/cc-pvdz.gbs
    atoms 3-5         entry N          line   168 file /theoryfs2/ds/metcalf/miniconda2/envs/tf2gpu/share/psi4/basis/cc-pvdz.gbs
    atoms 6-13, 22-29 entry H          line    22 file /theoryfs2/ds/metcalf/miniconda2/envs/tf2gpu/share/psi4/basis/cc-pvdz.gbs
    atoms 21          entry O          line   198 file /theoryfs2/ds/metcalf/miniconda2/envs/tf2gpu/share/psi4/basis/cc-pvdz.gbs

         ---------------------------------------------------------
                                   SCF
               by Justin Turney, Rob Parrish, Andy Simmonett
                          and Daniel G. A. Smith
                              RHF Reference
                        1 Threads,    500 MiB Core
         ---------------------------------------------------------

  ==> Geometry <==

    Molecular point group: c1
    Full point group: C1

    Geometry (in Angstrom), charge = 1, multiplicity = 1:

       Center              X                  Y                   Z               Mass
    ------------   -----------------  -----------------  -----------------  -----------------
         C            2.551014667902    -0.286068566983     0.624024948837    12.000000000000
         C            1.008014667902     0.034931433017     2.522024948837    12.000000000000
         N            1.788014667902    -0.754068566983     1.793024948837    14.003074004430
         N            0.872014667902     1.311931433017     2.206024948837    14.003074004430
         N            0.354014667902    -0.449068566983     3.560024948837    14.003074004430
         H            1.879014667902    -1.718068566983     2.074024948837     1.007825032230
         H            1.408014667902     1.692931433017     1.446024948837     1.007825032230
         H            0.336014667902     1.922931433017     2.800024948837     1.007825032230
         H            0.421014667902    -1.426068566983     3.793024948837     1.007825032230
         H           -0.262985332098     0.143931433017     4.090024948837     1.007825032230
         H            3.315014667902     0.417931433017     0.962024948837     1.007825032230
         H            1.889014667902     0.232931433017    -0.072975051163     1.007825032230
         H            3.057404667902    -1.094406566983     0.076154948837     1.007825032230
         C           -0.061985332098    -1.083068566983    -4.028975051163    12.000000000000
         C           -1.307985332098     0.509931433017    -0.274975051163    12.000000000000
         C           -0.564985332098     1.310931433017    -1.141975051163    12.000000000000
         C           -1.609985332098    -0.806068566983    -0.622975051163    12.000000000000
         C           -0.165985332098     0.790931433017    -2.362975051163    12.000000000000
         C           -1.221985332098    -1.296068566983    -1.831975051163    12.000000000000
         C           -0.481985332098    -0.519068566983    -2.707975051163    12.000000000000
         O           -1.700985332098     1.013931433017     0.932024948837    15.994914619570
         H           -0.317985332098     2.329931433017    -0.876975051163     1.007825032230
         H           -1.463985332098     1.942931433017     1.024024948837     1.007825032230
         H           -2.167985332098    -1.424068566983     0.066024948837     1.007825032230
         H            0.405014667902     1.407931433017    -3.045975051163     1.007825032230
         H           -1.472985332098    -2.313068566983    -2.098975051163     1.007825032230
         H           -0.323985332098    -2.142068566983    -4.078975051163     1.007825032230
         H            1.025014667902    -1.013068566983    -4.093975051163     1.007825032230
         H           -0.510419332098    -0.565868566983    -4.890025051163     1.007825032230

  Running in c1 symmetry.

  Rotational constants: A =      0.04111  B =      0.01499  C =      0.01344 [cm^-1]
  Rotational constants: A =   1232.32215  B =    449.30687  C =    402.94976 [MHz]
  Nuclear repulsion =  810.964619371459207

  Charge       = 1
  Multiplicity = 1
  Electrons    = 98
  Nalpha       = 49
  Nbeta        = 49

  ==> Algorithm <==

  SCF Algorithm Type is PK.
  DIIS enabled.
  MOM disabled.
  Fractional occupation disabled.
  Guess Type is SAD.
  Energy threshold   = 1.00e-06
  Density threshold  = 1.00e-10
  Integral threshold = 0.00e+00

  ==> Primary Basis <==

  Basis Set: CC-PVDZ
    Blend: CC-PVDZ
    Number of shells: 126
    Number of basis function: 262
    Number of Cartesian functions: 275
    Spherical Harmonics?: true
    Max angular momentum: 2

  ==> Pre-Iterations <==

   -------------------------------------------------------
    Irrep   Nso     Nmo     Nalpha   Nbeta   Ndocc  Nsocc
   -------------------------------------------------------
     A        262     262       0       0       0       0
   -------------------------------------------------------
    Total     262     262      49      49      49       0
   -------------------------------------------------------

  ==> Integral Setup <==

  Using integral reordering PK algorithm.
  Sizing the integral batches needed.
  Building batch lookup table.
   Calculation information:
      Number of atoms:                  29
      Number of AO shells:             126
      Number of primitives:            366
      Number of atomic orbitals:       275
      Number of basis functions:       262

      Integral cutoff                 1.00e-12
      Number of threads:                 1

	Batch   1 pq = [       0,    9405] index = [             0,44231715] size =     44231715
	Batch   2 pq = [    9405,   13301] index = [      44231715,88464951] size =     44233236
	Batch   3 pq = [   13301,   16290] index = [      88464951,132690195] size =     44225244
	Batch   4 pq = [   16290,   18810] index = [     132690195,176917455] size =     44227260
	Batch   5 pq = [   18810,   21030] index = [     176917455,221140965] size =     44223510
	Batch   6 pq = [   21030,   23037] index = [     221140965,265363203] size =     44222238
	Batch   7 pq = [   23037,   24883] index = [     265363203,309594286] size =     44231083
	Batch   8 pq = [   24883,   26601] index = [     309594286,353819901] size =     44225615
	Batch   9 pq = [   26601,   28214] index = [     353819901,398029005] size =     44209104
	Batch  10 pq = [   28214,   29740] index = [     398029005,442248670] size =     44219665
	Batch  11 pq = [   29740,   31191] index = [     442248670,486454836] size =     44206166
	Batch  12 pq = [   31191,   32578] index = [     486454836,530679331] size =     44224495
	Batch  13 pq = [   32578,   33908] index = [     530679331,574893186] size =     44213855
	Batch  14 pq = [   33908,   34453] index = [     574893186,593521831] size =     18628645
  Task number: 54
  Buffer size: 11059200
  Buffer per thread: 2
  We computed 34487924 shell quartets total.
  Whereas there are 32012001 unique shell quartets.
     7.73 percent of shell quartets recomputed by reordering.

  ==> DiskJK: Disk-Based J/K Matrices <==

    J tasked:                  Yes
    K tasked:                  Yes
    wK tasked:                  No
    Memory [MiB]:              375
    Schwarz Cutoff:          1E-12

    OpenMP threads:              1

  Minimum eigenvalue in the overlap matrix is 3.0844972587E-04.
  Using Symmetric Orthogonalization.

  SCF Guess: Superposition of Atomic Densities via on-the-fly atomic UHF.

  ==> Iterations <==

                        Total Energy        Delta E     RMS |[F,P]|

   @RHF iter SAD:  -587.56205593299012   -5.87562e+02   0.00000e+00
   @RHF iter   1:  -587.90686512671732   -3.44809e-01   2.67822e-03 DIIS
   @RHF iter   2:  -588.16521012687031   -2.58345e-01   1.09535e-03 DIIS
   @RHF iter   3:  -588.20448701527221   -3.92769e-02   2.79563e-04 DIIS
   @RHF iter   4:  -588.20826959216811   -3.78258e-03   1.07597e-04 DIIS
   @RHF iter   5:  -588.20873811558192   -4.68523e-04   2.07616e-05 DIIS
   @RHF iter   6:  -588.20876700042777   -2.88848e-05   7.13595e-06 DIIS
   @RHF iter   7:  -588.20876989650708   -2.89608e-06   1.94820e-06 DIIS
   @RHF iter   8:  -588.20877022552554   -3.29018e-07   6.45816e-07 DIIS
   @RHF iter   9:  -588.20877025052539   -2.49998e-08   2.18046e-07 DIIS
   @RHF iter  10:  -588.20877025379252   -3.26713e-09   6.57566e-08 DIIS
   @RHF iter  11:  -588.20877025442314   -6.30621e-10   3.01798e-08 DIIS
   @RHF iter  12:  -588.20877025458583   -1.62686e-10   1.46029e-08 DIIS
   @RHF iter  13:  -588.20877025463562   -4.97948e-11   6.40843e-09 DIIS
   @RHF iter  14:  -588.20877025464711   -1.14824e-11   1.90630e-09 DIIS
   @RHF iter  15:  -588.20877025464540    1.70530e-12   6.33040e-10 DIIS
   @RHF iter  16:  -588.20877025464370    1.70530e-12   2.25754e-10 DIIS
   @RHF iter  17:  -588.20877025464574   -2.04636e-12   8.19384e-11 DIIS
  Energy and wave function converged.

  ==> Post-Iterations <==

    Orbital Energies [Eh]
    ---------------------

    Doubly Occupied:

       1A    -20.698546     2A    -15.779620     3A    -15.778695
       4A    -15.777209     5A    -11.581073     6A    -11.430794
       7A    -11.407007     8A    -11.340928     9A    -11.339245
      10A    -11.333824    11A    -11.331829    12A    -11.329957
      13A    -11.312121    14A     -1.536093    15A     -1.514348
      16A     -1.392038    17A     -1.383928    18A     -1.259930
      19A     -1.138278    20A     -1.130232    21A     -1.128070
      22A     -1.031764    23A     -1.021821    24A     -0.971334
      25A     -0.948796    26A     -0.932247    27A     -0.908016
      28A     -0.852608    29A     -0.850350    30A     -0.840521
      31A     -0.816429    32A     -0.785506    33A     -0.774967
      34A     -0.744654    35A     -0.732915    36A     -0.712452
      37A     -0.710971    38A     -0.698647    39A     -0.694415
      40A     -0.671100    41A     -0.661266    42A     -0.618908
      43A     -0.607694    44A     -0.597324    45A     -0.584552
      46A     -0.575610    47A     -0.572743    48A     -0.448615
      49A     -0.404786

    Virtual:

      50A     -0.004871    51A      0.021131    52A      0.033281
      53A      0.033610    54A      0.040981    55A      0.052634
      56A      0.066935    57A      0.076510    58A      0.097301
      59A      0.114038    60A      0.117655    61A      0.121989
      62A      0.128937    63A      0.141364    64A      0.154388
      65A      0.169074    66A      0.184705    67A      0.189136
      68A      0.201048    69A      0.210792    70A      0.275418
      71A      0.280198    72A      0.283345    73A      0.322716
      74A      0.335671    75A      0.346897    76A      0.357374
      77A      0.384215    78A      0.399632    79A      0.417902
      80A      0.447602    81A      0.465331    82A      0.502096
      83A      0.515751    84A      0.518178    85A      0.531276
      86A      0.535297    87A      0.539370    88A      0.554487
      89A      0.557203    90A      0.568173    91A      0.575095
      92A      0.594582    93A      0.612070    94A      0.623736
      95A      0.631182    96A      0.643675    97A      0.663693
      98A      0.672224    99A      0.675843   100A      0.688332
     101A      0.699440   102A      0.703752   103A      0.706633
     104A      0.725396   105A      0.729483   106A      0.745964
     107A      0.752097   108A      0.765642   109A      0.778572
     110A      0.785185   111A      0.787377   112A      0.798391
     113A      0.802292   114A      0.805983   115A      0.823160
     116A      0.830361   117A      0.838816   118A      0.846628
     119A      0.852013   120A      0.864052   121A      0.877789
     122A      0.899785   123A      0.915483   124A      0.919505
     125A      0.928359   126A      0.949959   127A      0.970657
     128A      0.992002   129A      1.005789   130A      1.022118
     131A      1.046590   132A      1.048197   133A      1.055800
     134A      1.079352   135A      1.109206   136A      1.126091
     137A      1.134862   138A      1.139345   139A      1.154155
     140A      1.161645   141A      1.173811   142A      1.192029
     143A      1.197659   144A      1.205382   145A      1.213211
     146A      1.223447   147A      1.230739   148A      1.249827
     149A      1.264170   150A      1.280504   151A      1.296571
     152A      1.339190   153A      1.374173   154A      1.408207
     155A      1.409508   156A      1.425501   157A      1.458245
     158A      1.467758   159A      1.511012   160A      1.523019
     161A      1.537190   162A      1.547994   163A      1.559788
     164A      1.591226   165A      1.599666   166A      1.613358
     167A      1.629790   168A      1.637023   169A      1.649969
     170A      1.666819   171A      1.680736   172A      1.695061
     173A      1.704560   174A      1.720212   175A      1.736261
     176A      1.744123   177A      1.770043   178A      1.781327
     179A      1.790592   180A      1.794915   181A      1.802582
     182A      1.811213   183A      1.819183   184A      1.826128
     185A      1.830598   186A      1.847326   187A      1.856927
     188A      1.863854   189A      1.876164   190A      1.883115
     191A      1.893455   192A      1.914337   193A      1.919681
     194A      1.929326   195A      1.955805   196A      1.971236
     197A      1.980122   198A      1.990597   199A      2.021320
     200A      2.028088   201A      2.044803   202A      2.057573
     203A      2.086585   204A      2.093993   205A      2.101227
     206A      2.116101   207A      2.119329   208A      2.141270
     209A      2.172164   210A      2.175596   211A      2.197666
     212A      2.211953   213A      2.249032   214A      2.270821
     215A      2.276862   216A      2.290215   217A      2.304478
     218A      2.309666   219A      2.340664   220A      2.344220
     221A      2.362839   222A      2.373989   223A      2.383864
     224A      2.419209   225A      2.445822   226A      2.456888
     227A      2.477839   228A      2.480530   229A      2.528318
     230A      2.546482   231A      2.563743   232A      2.602517
     233A      2.613087   234A      2.650018   235A      2.654519
     236A      2.685568   237A      2.701554   238A      2.714085
     239A      2.721212   240A      2.763006   241A      2.777994
     242A      2.791807   243A      2.809943   244A      2.833105
     245A      2.846275   246A      2.882090   247A      2.893911
     248A      2.912357   249A      3.003324   250A      3.051089
     251A      3.086303   252A      3.105210   253A      3.143594
     254A      3.153090   255A      3.196016   256A      3.232976
     257A      3.477622   258A      3.570953   259A      3.578226
     260A      3.654634   261A      3.884953   262A      4.084290

    Final Occupation by Irrep:
              A
    DOCC [    49 ]

  @RHF Final Energy:  -588.20877025464574

   => Energetics <=

    Nuclear Repulsion Energy =            810.9646193714592073
    One-Electron Energy =               -2394.9572321134128288
    Two-Electron Energy =                 995.7838424873077656
    Total Energy =                       -588.2087702546457422

Computation Completed

Properties will be evaluated at   0.000000,   0.000000,   0.000000 [a0]

Properties computed using the SCF density matrix

  Nuclear Dipole Moment: [e a0]
     X:     6.7471      Y:    -1.5003      Z:    -2.6673

  Electronic Dipole Moment: [e a0]
     X:    -4.5578      Y:     1.7282      Z:     6.2858

  Dipole Moment: [e a0]
     X:     2.1893      Y:     0.2279      Z:     3.6185     Total:     4.2354

  Dipole Moment: [D]
     X:     5.5647      Y:     0.5791      Z:     9.1974     Total:    10.7654

*** tstop() called on ds3 at Mon Apr 27 13:42:42 2020
Module time:
	user time   =     280.38 seconds =       4.67 minutes
	system time =     105.80 seconds =       1.76 minutes
	total time  =        444 seconds =       7.40 minutes
Total time:
	user time   =     280.38 seconds =       4.67 minutes
	system time =     105.80 seconds =       1.76 minutes
	total time  =        444 seconds =       7.40 minutes
                                     G D M A

                                 by Anthony Stone

                           version 2.2.06, 22 June 2011

               Distributed Multipoles from Gaussian wavefunctions

Starting at 13:42:42 on 27 Apr 2020

Using SCF density matrix from file ./SSI/SSI-074ARG-147TYR-2-dimer.test.7230.fchk

                         Distributed Multipole Analysis

Standard DMA

Positions and radii in angstrom
Multipole moments in atomic units, ea_0^k for rank k

C          x =  2.551015  y = -0.286069  z =  0.624025 angstrom
           Maximum rank =  0   Radius =  0.650 angstrom
                   Q00  =  -0.130868

C          x =  1.008015  y =  0.034931  z =  2.522025 angstrom
           Maximum rank =  0   Radius =  0.650 angstrom
                   Q00  =   1.065071

N          x =  1.788015  y = -0.754069  z =  1.793025 angstrom
           Maximum rank =  0   Radius =  0.650 angstrom
                   Q00  =  -0.490064

N          x =  0.872015  y =  1.311931  z =  2.206025 angstrom
           Maximum rank =  0   Radius =  0.650 angstrom
                   Q00  =  -0.561209

N          x =  0.354015  y = -0.449069  z =  3.560025 angstrom
           Maximum rank =  0   Radius =  0.650 angstrom
                   Q00  =  -0.584575

H          x =  1.879015  y = -1.718069  z =  2.074025 angstrom
           Maximum rank =  0   Radius =  0.325 angstrom
                   Q00  =   0.235394

H          x =  1.408015  y =  1.692931  z =  1.446025 angstrom
           Maximum rank =  0   Radius =  0.325 angstrom
                   Q00  =   0.267060

H          x =  0.336015  y =  1.922931  z =  2.800025 angstrom
           Maximum rank =  0   Radius =  0.325 angstrom
                   Q00  =   0.258816

H          x =  0.421015  y = -1.426069  z =  3.793025 angstrom
           Maximum rank =  0   Radius =  0.325 angstrom
                   Q00  =   0.264805

H          x = -0.262985  y =  0.143931  z =  4.090025 angstrom
           Maximum rank =  0   Radius =  0.325 angstrom
                   Q00  =   0.265390

H          x =  3.315015  y =  0.417931  z =  0.962025 angstrom
           Maximum rank =  0   Radius =  0.325 angstrom
                   Q00  =   0.106174

H          x =  1.889015  y =  0.232931  z = -0.072975 angstrom
           Maximum rank =  0   Radius =  0.325 angstrom
                   Q00  =   0.136065

H          x =  3.057405  y = -1.094407  z =  0.076155 angstrom
           Maximum rank =  0   Radius =  0.325 angstrom
                   Q00  =   0.167389

C          x = -0.061985  y = -1.083069  z = -4.028975 angstrom
           Maximum rank =  0   Radius =  0.650 angstrom
                   Q00  =  -0.189368

C          x = -1.307985  y =  0.509931  z = -0.274975 angstrom
           Maximum rank =  0   Radius =  0.650 angstrom
                   Q00  =   0.305611

C          x = -0.564985  y =  1.310931  z = -1.141975 angstrom
           Maximum rank =  0   Radius =  0.650 angstrom
                   Q00  =  -0.214656

C          x = -1.609985  y = -0.806069  z = -0.622975 angstrom
           Maximum rank =  0   Radius =  0.650 angstrom
                   Q00  =  -0.116361

C          x = -0.165985  y =  0.790931  z = -2.362975 angstrom
           Maximum rank =  0   Radius =  0.650 angstrom
                   Q00  =  -0.067641

C          x = -1.221985  y = -1.296069  z = -1.831975 angstrom
           Maximum rank =  0   Radius =  0.650 angstrom
                   Q00  =   0.052956

C          x = -0.481985  y = -0.519069  z = -2.707975 angstrom
           Maximum rank =  0   Radius =  0.650 angstrom
                   Q00  =  -0.136280

O          x = -1.700985  y =  1.013931  z =  0.932025 angstrom
           Maximum rank =  0   Radius =  0.650 angstrom
                   Q00  =  -0.662680

H          x = -0.317985  y =  2.329931  z = -0.876975 angstrom
           Maximum rank =  0   Radius =  0.325 angstrom
                   Q00  =   0.069216

H          x = -1.463985  y =  1.942931  z =  1.024025 angstrom
           Maximum rank =  0   Radius =  0.325 angstrom
                   Q00  =   0.402576

H          x = -2.167985  y = -1.424069  z =  0.066025 angstrom
           Maximum rank =  0   Radius =  0.325 angstrom
                   Q00  =   0.081366

H          x =  0.405015  y =  1.407931  z = -3.045975 angstrom
           Maximum rank =  0   Radius =  0.325 angstrom
                   Q00  =   0.082625

H          x = -1.472985  y = -2.313069  z = -2.098975 angstrom
           Maximum rank =  0   Radius =  0.325 angstrom
                   Q00  =   0.077620

H          x = -0.323985  y = -2.142069  z = -4.078975 angstrom
           Maximum rank =  0   Radius =  0.325 angstrom
                   Q00  =   0.102715

H          x =  1.025015  y = -1.013069  z = -4.093975 angstrom
           Maximum rank =  0   Radius =  0.325 angstrom
                   Q00  =   0.096600

H          x = -0.510419  y = -0.565869  z = -4.890025 angstrom
           Maximum rank =  0   Radius =  0.325 angstrom
                   Q00  =   0.116254

Total multipoles referred to origin at
           x =   0.000000,  y =    0.000000,  z =    0.000000 angstrom
                   Q00  =   1.000000

Finished at 13:42:42 on 27 Apr 2020

  DMA results are available in the Python driver through the
	  variable('DMA DISTRIBUTED MULTIPOLES')
  and
	  variable('DMA TOTAL MULTIPOLES')
  commands.

    Psi4 stopped on: Monday, 27 April 2020 01:42PM
    Psi4 wall time for execution: 0:07:24.95

*** Psi4 exiting successfully. Buy a developer a beer!
