                               Psi4 1.3.2 release

  ==> Input File <==

--------------------------------------------------------------------------
import numpy as np
set {scf_type pk
basis cc-pvdz
d_convergence 10
gdma_switch   0
gdma_limit    0
gdma_origin   [ 0.0,  0.0,  0.0 ]
}
molecule test {
    units Angstrom
    0 1
    --
    0 1
    C               -0.032374311837165     3.314616735591648     0.660971799420542
    C               -0.496374311837165    -0.470383264408352     0.630971799420542
    C               -1.215374311837165    -0.662383264408352    -0.554028200579458
    C               -0.129374311837165     0.814616735591648     1.023971799420542
    C               -0.471374311837165     1.936616735591648     0.251971799420542
    C               -1.608374311837165     0.440616735591648    -1.285028200579458
    C               -1.235374311837165     1.737616735591648    -0.895028200579457
    O               -1.643374311837165    -1.885383264408351    -0.989028200579458
    H               -0.219374311837165    -1.328383264408352     1.220971799420542
    H                0.445625688162835     0.944616735591648     1.931971799420543
    H               -2.206374311837165     0.294616735591648    -2.163028200579458
    H               -2.190374311837165    -1.824383264408352    -1.775028200579458
    H                0.739625688162835     3.635616735591648    -0.034028200579458
    H                0.434625688162835     3.232616735591648     1.633971799420542
    H               -1.531374311837165     2.585616735591648    -1.496028200579458
    H               -0.803151311837165     4.099126735591648     0.681941799420542
    C                2.661625688162835    -2.311383264408352    -0.032028200579458
    C                3.585625688162835    -2.144383264408352     1.218971799420542
    H                1.857625688162835    -1.579383264408352    -0.007028200579458
    H                3.251625688162835    -2.142383264408352    -0.934028200579457
    H                2.248625688162835    -3.318383264408352    -0.088028200579458
    H                4.355625688162835    -2.912383264408352     1.175971799420543
    H                3.022415688162835    -2.226083264408352     2.160311799420542
    H                4.071455688162835    -1.157613264408352     1.234801799420542

}
e, wfn = energy('scf', return_wfn=True)
gdma(wfn)
dmavals = variable('DMA DISTRIBUTED MULTIPOLES')
charges = np.array(dmavals)
print(charges)
np.save('SSI-079TYR-109VAL-1-dimer.npy', np.array(charges))--------------------------------------------------------------------------

*** tstart() called on ds3
*** at Mon Apr 27 22:57:55 2020

   => Loading Basis Set <=

    Name: CC-PVDZ
    Role: ORBITAL
    Keyword: BASIS
    atoms 1-7, 17-18  entry C          line   138 file /theoryfs2/ds/metcalf/miniconda2/envs/tf2gpu/share/psi4/basis/cc-pvdz.gbs
    atoms 8           entry O          line   198 file /theoryfs2/ds/metcalf/miniconda2/envs/tf2gpu/share/psi4/basis/cc-pvdz.gbs
    atoms 9-16, 19-24 entry H          line    22 file /theoryfs2/ds/metcalf/miniconda2/envs/tf2gpu/share/psi4/basis/cc-pvdz.gbs

         ---------------------------------------------------------
                                   SCF
               by Justin Turney, Rob Parrish, Andy Simmonett
                          and Daniel G. A. Smith
                              RHF Reference
                        1 Threads,    500 MiB Core
         ---------------------------------------------------------

  ==> Geometry <==

    Molecular point group: c1
    Full point group: C1

    Geometry (in Angstrom), charge = 0, multiplicity = 1:

       Center              X                  Y                   Z               Mass
    ------------   -----------------  -----------------  -----------------  -----------------
         C           -0.032374311837     3.314616735592     0.660971799421    12.000000000000
         C           -0.496374311837    -0.470383264408     0.630971799421    12.000000000000
         C           -1.215374311837    -0.662383264408    -0.554028200579    12.000000000000
         C           -0.129374311837     0.814616735592     1.023971799421    12.000000000000
         C           -0.471374311837     1.936616735592     0.251971799421    12.000000000000
         C           -1.608374311837     0.440616735592    -1.285028200579    12.000000000000
         C           -1.235374311837     1.737616735592    -0.895028200579    12.000000000000
         O           -1.643374311837    -1.885383264408    -0.989028200579    15.994914619570
         H           -0.219374311837    -1.328383264408     1.220971799421     1.007825032230
         H            0.445625688163     0.944616735592     1.931971799421     1.007825032230
         H           -2.206374311837     0.294616735592    -2.163028200579     1.007825032230
         H           -2.190374311837    -1.824383264408    -1.775028200579     1.007825032230
         H            0.739625688163     3.635616735592    -0.034028200579     1.007825032230
         H            0.434625688163     3.232616735592     1.633971799421     1.007825032230
         H           -1.531374311837     2.585616735592    -1.496028200579     1.007825032230
         H           -0.803151311837     4.099126735592     0.681941799421     1.007825032230
         C            2.661625688163    -2.311383264408    -0.032028200579    12.000000000000
         C            3.585625688163    -2.144383264408     1.218971799421    12.000000000000
         H            1.857625688163    -1.579383264408    -0.007028200579     1.007825032230
         H            3.251625688163    -2.142383264408    -0.934028200579     1.007825032230
         H            2.248625688163    -3.318383264408    -0.088028200579     1.007825032230
         H            4.355625688163    -2.912383264408     1.175971799421     1.007825032230
         H            3.022415688163    -2.226083264408     2.160311799421     1.007825032230
         H            4.071455688163    -1.157613264408     1.234801799421     1.007825032230

  Running in c1 symmetry.

  Rotational constants: A =      0.04513  B =      0.02357  C =      0.01685 [cm^-1]
  Rotational constants: A =   1353.04302  B =    706.47564  C =    505.12454 [MHz]
  Nuclear repulsion =  490.864903396753846

  Charge       = 0
  Multiplicity = 1
  Electrons    = 76
  Nalpha       = 38
  Nbeta        = 38

  ==> Algorithm <==

  SCF Algorithm Type is PK.
  DIIS enabled.
  MOM disabled.
  Fractional occupation disabled.
  Guess Type is SAD.
  Energy threshold   = 1.00e-06
  Density threshold  = 1.00e-10
  Integral threshold = 0.00e+00

  ==> Primary Basis <==

  Basis Set: CC-PVDZ
    Blend: CC-PVDZ
    Number of shells: 102
    Number of basis function: 210
    Number of Cartesian functions: 220
    Spherical Harmonics?: true
    Max angular momentum: 2

  ==> Pre-Iterations <==

   -------------------------------------------------------
    Irrep   Nso     Nmo     Nalpha   Nbeta   Ndocc  Nsocc
   -------------------------------------------------------
     A        210     210       0       0       0       0
   -------------------------------------------------------
    Total     210     210      38      38      38       0
   -------------------------------------------------------

  ==> Integral Setup <==

  Using integral reordering PK algorithm.
  Sizing the integral batches needed.
  Building batch lookup table.
   Calculation information:
      Number of atoms:                  24
      Number of AO shells:             102
      Number of primitives:            290
      Number of atomic orbitals:       220
      Number of basis functions:       210

      Integral cutoff                 1.00e-12
      Number of threads:                 1

	Batch   1 pq = [       0,    9405] index = [             0,44231715] size =     44231715
	Batch   2 pq = [    9405,   13301] index = [      44231715,88464951] size =     44233236
	Batch   3 pq = [   13301,   16290] index = [      88464951,132690195] size =     44225244
	Batch   4 pq = [   16290,   18810] index = [     132690195,176917455] size =     44227260
	Batch   5 pq = [   18810,   21030] index = [     176917455,221140965] size =     44223510
	Batch   6 pq = [   21030,   22155] index = [     221140965,245433090] size =     24292125
  Task number: 23
  Buffer size: 11059200
  Buffer per thread: 2
  We computed 11349421 shell quartets total.
  Whereas there are 13799631 unique shell quartets.

  ==> DiskJK: Disk-Based J/K Matrices <==

    J tasked:                  Yes
    K tasked:                  Yes
    wK tasked:                  No
    Memory [MiB]:              375
    Schwarz Cutoff:          1E-12

    OpenMP threads:              1

  Minimum eigenvalue in the overlap matrix is 3.3248408429E-04.
  Using Symmetric Orthogonalization.

  SCF Guess: Superposition of Atomic Densities via on-the-fly atomic UHF.

  ==> Iterations <==

                        Total Energy        Delta E     RMS |[F,P]|

   @RHF iter SAD:  -422.61590705391620   -4.22616e+02   0.00000e+00
   @RHF iter   1:  -423.60194988844762   -9.86043e-01   2.94766e-03 DIIS
   @RHF iter   2:  -423.81492055842654   -2.12971e-01   1.23073e-03 DIIS
   @RHF iter   3:  -423.84834819276330   -3.34276e-02   2.81881e-04 DIIS
   @RHF iter   4:  -423.85115996173113   -2.81177e-03   1.16759e-04 DIIS
   @RHF iter   5:  -423.85151033204141   -3.50370e-04   2.06435e-05 DIIS
   @RHF iter   6:  -423.85152753743699   -1.72054e-05   6.23777e-06 DIIS
   @RHF iter   7:  -423.85152908088691   -1.54345e-06   2.00679e-06 DIIS
   @RHF iter   8:  -423.85152928281218   -2.01925e-07   7.27942e-07 DIIS
   @RHF iter   9:  -423.85152931057814   -2.77660e-08   2.46417e-07 DIIS
   @RHF iter  10:  -423.85152931443542   -3.85728e-09   8.52089e-08 DIIS
   @RHF iter  11:  -423.85152931530922   -8.73797e-10   4.04704e-08 DIIS
   @RHF iter  12:  -423.85152931550897   -1.99748e-10   2.07763e-08 DIIS
   @RHF iter  13:  -423.85152931556962   -6.06519e-11   7.73606e-09 DIIS
   @RHF iter  14:  -423.85152931557604   -6.42331e-12   1.92081e-09 DIIS
   @RHF iter  15:  -423.85152931557502    1.02318e-12   6.90846e-10 DIIS
   @RHF iter  16:  -423.85152931557434    6.82121e-13   2.41009e-10 DIIS
   @RHF iter  17:  -423.85152931557326    1.08002e-12   1.08734e-10 DIIS
   @RHF iter  18:  -423.85152931557474   -1.47793e-12   5.83055e-11 DIIS
  Energy and wave function converged.

  ==> Post-Iterations <==

    Orbital Energies [Eh]
    ---------------------

    Doubly Occupied:

       1A    -20.581703     2A    -11.299639     3A    -11.241155
       4A    -11.239608     5A    -11.236037     6A    -11.234029
       7A    -11.231649     8A    -11.227787     9A    -11.217086
      10A    -11.210742    11A     -1.398448    12A     -1.150246
      13A     -1.039927    14A     -1.016491    15A     -1.002651
      16A     -0.928836    17A     -0.845685    18A     -0.834781
      19A     -0.803263    20A     -0.732563    21A     -0.669028
      22A     -0.644965    23A     -0.611076    24A     -0.593497
      25A     -0.585390    26A     -0.584033    27A     -0.581661
      28A     -0.568816    29A     -0.564904    30A     -0.531697
      31A     -0.498790    32A     -0.491863    33A     -0.486851
      34A     -0.481307    35A     -0.479062    36A     -0.464883
      37A     -0.337364    38A     -0.302944

    Virtual:

      39A      0.128267    40A      0.154256    41A      0.174809
      42A      0.180677    43A      0.192946    44A      0.222157
      45A      0.226644    46A      0.240700    47A      0.248195
      48A      0.265673    49A      0.268173    50A      0.275949
      51A      0.283442    52A      0.290464    53A      0.306225
      54A      0.318532    55A      0.367976    56A      0.372247
      57A      0.395123    58A      0.425723    59A      0.454630
      60A      0.485409    61A      0.493076    62A      0.510795
      63A      0.592957    64A      0.607647    65A      0.610105
      66A      0.619665    67A      0.624874    68A      0.647592
      69A      0.665561    70A      0.682925    71A      0.689122
      72A      0.701623    73A      0.711417    74A      0.714987
      75A      0.734991    76A      0.738108    77A      0.760393
      78A      0.770451    79A      0.780886    80A      0.787221
      81A      0.797694    82A      0.820658    83A      0.840135
      84A      0.852847    85A      0.877600    86A      0.880525
      87A      0.890558    88A      0.893033    89A      0.896918
      90A      0.900646    91A      0.903593    92A      0.905504
      93A      0.924533    94A      0.933310    95A      0.938731
      96A      0.945621    97A      0.952396    98A      0.959435
      99A      1.011889   100A      1.020052   101A      1.031327
     102A      1.080954   103A      1.115204   104A      1.125649
     105A      1.136034   106A      1.144120   107A      1.157076
     108A      1.167676   109A      1.203224   110A      1.235240
     111A      1.244986   112A      1.267196   113A      1.281220
     114A      1.290391   115A      1.301691   116A      1.313930
     117A      1.321352   118A      1.351204   119A      1.368824
     120A      1.395589   121A      1.466568   122A      1.471550
     123A      1.489462   124A      1.505246   125A      1.527819
     126A      1.557269   127A      1.586486   128A      1.617702
     129A      1.626106   130A      1.682156   131A      1.692127
     132A      1.700999   133A      1.712723   134A      1.731088
     135A      1.739927   136A      1.782050   137A      1.794571
     138A      1.806274   139A      1.854053   140A      1.866226
     141A      1.872273   142A      1.883921   143A      1.893732
     144A      1.900487   145A      1.913104   146A      1.916678
     147A      1.925959   148A      1.937373   149A      1.944406
     150A      1.949781   151A      1.950653   152A      1.962687
     153A      1.968375   154A      1.976342   155A      1.985010
     156A      1.986870   157A      2.031821   158A      2.040177
     159A      2.056465   160A      2.075719   161A      2.079067
     162A      2.100035   163A      2.114173   164A      2.119271
     165A      2.142549   166A      2.186073   167A      2.211150
     168A      2.218617   169A      2.256143   170A      2.272872
     171A      2.304877   172A      2.311718   173A      2.321867
     174A      2.361502   175A      2.369379   176A      2.390540
     177A      2.453786   178A      2.461729   179A      2.466560
     180A      2.479132   181A      2.491982   182A      2.533494
     183A      2.545209   184A      2.554534   185A      2.578455
     186A      2.611592   187A      2.656059   188A      2.736331
     189A      2.761554   190A      2.769961   191A      2.798459
     192A      2.799982   193A      2.814550   194A      2.850122
     195A      2.855847   196A      2.871828   197A      2.901130
     198A      2.950935   199A      2.954456   200A      2.974481
     201A      3.026798   202A      3.076834   203A      3.134397
     204A      3.251792   205A      3.291388   206A      3.347991
     207A      3.574336   208A      3.645606   209A      3.995829
     210A      4.181269

    Final Occupation by Irrep:
              A
    DOCC [    38 ]

  @RHF Final Energy:  -423.85152931557474

   => Energetics <=

    Nuclear Repulsion Energy =            490.8649033967538458
    One-Electron Energy =               -1547.5319496954020906
    Two-Electron Energy =                 632.8155169830735076
    Total Energy =                       -423.8515293155747941

Computation Completed

Properties will be evaluated at   0.000000,   0.000000,   0.000000 [a0]

Properties computed using the SCF density matrix

  Nuclear Dipole Moment: [e a0]
     X:    12.6260      Y:    -1.5997      Z:     3.3165

  Electronic Dipole Moment: [e a0]
     X:   -12.8718      Y:     2.0582      Z:    -3.7027

  Dipole Moment: [e a0]
     X:    -0.2458      Y:     0.4585      Z:    -0.3862     Total:     0.6479

  Dipole Moment: [D]
     X:    -0.6249      Y:     1.1654      Z:    -0.9817     Total:     1.6469

*** tstop() called on ds3 at Mon Apr 27 23:00:05 2020
Module time:
	user time   =      87.72 seconds =       1.46 minutes
	system time =      41.58 seconds =       0.69 minutes
	total time  =        130 seconds =       2.17 minutes
Total time:
	user time   =      87.72 seconds =       1.46 minutes
	system time =      41.58 seconds =       0.69 minutes
	total time  =        130 seconds =       2.17 minutes
                                     G D M A

                                 by Anthony Stone

                           version 2.2.06, 22 June 2011

               Distributed Multipoles from Gaussian wavefunctions

Starting at 23:0:5 on 27 Apr 2020

Using SCF density matrix from file ./SSI/SSI-079TYR-109VAL-1-dimer.test.6219.fchk

                         Distributed Multipole Analysis

Standard DMA

Positions and radii in angstrom
Multipole moments in atomic units, ea_0^k for rank k

C          x = -0.032374  y =  3.314617  z =  0.660972 angstrom
           Maximum rank =  0   Radius =  0.650 angstrom
                   Q00  =  -0.208382

C          x = -0.496374  y = -0.470383  z =  0.630972 angstrom
           Maximum rank =  0   Radius =  0.650 angstrom
                   Q00  =  -0.122897

C          x = -1.215374  y = -0.662383  z = -0.554028 angstrom
           Maximum rank =  0   Radius =  0.650 angstrom
                   Q00  =   0.262106

C          x = -0.129374  y =  0.814617  z =  1.023972 angstrom
           Maximum rank =  0   Radius =  0.650 angstrom
                   Q00  =   0.006687

C          x = -0.471374  y =  1.936617  z =  0.251972 angstrom
           Maximum rank =  0   Radius =  0.650 angstrom
                   Q00  =  -0.126184

C          x = -1.608374  y =  0.440617  z = -1.285028 angstrom
           Maximum rank =  0   Radius =  0.650 angstrom
                   Q00  =  -0.097288

C          x = -1.235374  y =  1.737617  z = -0.895028 angstrom
           Maximum rank =  0   Radius =  0.650 angstrom
                   Q00  =  -0.052131

O          x = -1.643374  y = -1.885383  z = -0.989028 angstrom
           Maximum rank =  0   Radius =  0.650 angstrom
                   Q00  =  -0.648650

H          x = -0.219374  y = -1.328383  z =  1.220972 angstrom
           Maximum rank =  0   Radius =  0.325 angstrom
                   Q00  =   0.082836

H          x =  0.445626  y =  0.944617  z =  1.931972 angstrom
           Maximum rank =  0   Radius =  0.325 angstrom
                   Q00  =   0.066759

H          x = -2.206374  y =  0.294617  z = -2.163028 angstrom
           Maximum rank =  0   Radius =  0.325 angstrom
                   Q00  =   0.065103

H          x = -2.190374  y = -1.824383  z = -1.775028 angstrom
           Maximum rank =  0   Radius =  0.325 angstrom
                   Q00  =   0.408671

H          x =  0.739626  y =  3.635617  z = -0.034028 angstrom
           Maximum rank =  0   Radius =  0.325 angstrom
                   Q00  =   0.098557

H          x =  0.434626  y =  3.232617  z =  1.633972 angstrom
           Maximum rank =  0   Radius =  0.325 angstrom
                   Q00  =   0.097044

H          x = -1.531374  y =  2.585617  z = -1.496028 angstrom
           Maximum rank =  0   Radius =  0.325 angstrom
                   Q00  =   0.068019

H          x = -0.803151  y =  4.099127  z =  0.681942 angstrom
           Maximum rank =  0   Radius =  0.325 angstrom
                   Q00  =   0.100111

C          x =  2.661626  y = -2.311383  z = -0.032028 angstrom
           Maximum rank =  0   Radius =  0.650 angstrom
                   Q00  =  -0.248828

C          x =  3.585626  y = -2.144383  z =  1.218972 angstrom
           Maximum rank =  0   Radius =  0.650 angstrom
                   Q00  =  -0.251813

H          x =  1.857626  y = -1.579383  z = -0.007028 angstrom
           Maximum rank =  0   Radius =  0.325 angstrom
                   Q00  =   0.101223

H          x =  3.251626  y = -2.142383  z = -0.934028 angstrom
           Maximum rank =  0   Radius =  0.325 angstrom
                   Q00  =   0.078603

H          x =  2.248626  y = -3.318383  z = -0.088028 angstrom
           Maximum rank =  0   Radius =  0.325 angstrom
                   Q00  =   0.082359

H          x =  4.355626  y = -2.912383  z =  1.175972 angstrom
           Maximum rank =  0   Radius =  0.325 angstrom
                   Q00  =   0.081270

H          x =  3.022416  y = -2.226083  z =  2.160312 angstrom
           Maximum rank =  0   Radius =  0.325 angstrom
                   Q00  =   0.077256

H          x =  4.071456  y = -1.157613  z =  1.234802 angstrom
           Maximum rank =  0   Radius =  0.325 angstrom
                   Q00  =   0.079569

Total multipoles referred to origin at
           x =   0.000000,  y =    0.000000,  z =    0.000000 angstrom
                   Q00  =  -0.000000

Finished at 23:0:5 on 27 Apr 2020

  DMA results are available in the Python driver through the
	  variable('DMA DISTRIBUTED MULTIPOLES')
  and
	  variable('DMA TOTAL MULTIPOLES')
  commands.

    Psi4 stopped on: Monday, 27 April 2020 11:00PM
    Psi4 wall time for execution: 0:02:10.20

*** Psi4 exiting successfully. Buy a developer a beer!
