                               Psi4 1.3.2 release

  ==> Input File <==

--------------------------------------------------------------------------
import numpy as np
set {scf_type pk
basis cc-pvdz
d_convergence 10
gdma_switch   0
gdma_limit    0
gdma_origin   [ 0.0,  0.0,  0.0 ]
}
molecule test {
    units Angstrom
    0 1
    --
    0 1
    C               -1.899242525354927     0.312237385621256     1.619760711372285
    C                0.417757474645073     0.566237385621255     0.524760711372286
    C               -0.963242525354927     0.859237385621256     0.529760711372285
    C                1.237757474645073     1.069237385621256    -0.495239288627714
    C                0.691757474645073     1.830237385621256    -1.559239288627714
    C               -1.480242525354927     1.633237385621256    -0.522239288627715
    C               -0.649242525354927     2.126237385621256    -1.572239288627715
    H                0.854757474645073    -0.020762614378744     1.319760711372286
    H                2.298757474645073     0.860237385621256    -0.480239288627714
    H               -1.528242525354927    -0.672762614378744     1.894760711372286
    H               -2.889242525354927     0.169237385621256     1.185760711372285
    H                1.340757474645073     2.187237385621255    -2.344239288627715
    H               -2.529242525354927     1.872237385621256    -0.532239288627715
    H               -1.072242525354927     2.725237385621256    -2.366239288627714
    H               -2.004902525354927     0.931233385621255     2.522909711372286
    C                0.663757474645073    -3.155762614378745     0.507760711372286
    C                1.822757474645073    -4.094762614378745     0.593760711372285
    H                0.821757474645073    -2.292762614378745     1.153760711372285
    H                0.551757474645073    -2.805762614378745    -0.519239288627715
    H               -0.268242525354927    -3.651762614378744     0.776760711372285
    H                1.568757474645073    -5.022762614378744     0.080760711372285
    H                2.047007474645073    -4.287082614378744     1.653346711372286
    H                2.692017474645072    -3.638612614378745     0.097451711372285

}
e, wfn = energy('scf', return_wfn=True)
gdma(wfn)
dmavals = variable('DMA DISTRIBUTED MULTIPOLES')
charges = np.array(dmavals)
print(charges)
np.save('SSI-061PHE-068VAL-1-dimer.npy', np.array(charges))--------------------------------------------------------------------------

*** tstart() called on ds3
*** at Tue Apr 28 14:27:03 2020

   => Loading Basis Set <=

    Name: CC-PVDZ
    Role: ORBITAL
    Keyword: BASIS
    atoms 1-7, 16-17  entry C          line   138 file /theoryfs2/ds/metcalf/miniconda2/envs/tf2gpu/share/psi4/basis/cc-pvdz.gbs
    atoms 8-15, 18-23 entry H          line    22 file /theoryfs2/ds/metcalf/miniconda2/envs/tf2gpu/share/psi4/basis/cc-pvdz.gbs

         ---------------------------------------------------------
                                   SCF
               by Justin Turney, Rob Parrish, Andy Simmonett
                          and Daniel G. A. Smith
                              RHF Reference
                        1 Threads,    500 MiB Core
         ---------------------------------------------------------

  ==> Geometry <==

    Molecular point group: c1
    Full point group: C1

    Geometry (in Angstrom), charge = 0, multiplicity = 1:

       Center              X                  Y                   Z               Mass
    ------------   -----------------  -----------------  -----------------  -----------------
         C           -1.899242525355     0.312237385621     1.619760711372    12.000000000000
         C            0.417757474645     0.566237385621     0.524760711372    12.000000000000
         C           -0.963242525355     0.859237385621     0.529760711372    12.000000000000
         C            1.237757474645     1.069237385621    -0.495239288628    12.000000000000
         C            0.691757474645     1.830237385621    -1.559239288628    12.000000000000
         C           -1.480242525355     1.633237385621    -0.522239288628    12.000000000000
         C           -0.649242525355     2.126237385621    -1.572239288628    12.000000000000
         H            0.854757474645    -0.020762614379     1.319760711372     1.007825032230
         H            2.298757474645     0.860237385621    -0.480239288628     1.007825032230
         H           -1.528242525355    -0.672762614379     1.894760711372     1.007825032230
         H           -2.889242525355     0.169237385621     1.185760711372     1.007825032230
         H            1.340757474645     2.187237385621    -2.344239288628     1.007825032230
         H           -2.529242525355     1.872237385621    -0.532239288628     1.007825032230
         H           -1.072242525355     2.725237385621    -2.366239288628     1.007825032230
         H           -2.004902525355     0.931233385621     2.522909711372     1.007825032230
         C            0.663757474645    -3.155762614379     0.507760711372    12.000000000000
         C            1.822757474645    -4.094762614379     0.593760711372    12.000000000000
         H            0.821757474645    -2.292762614379     1.153760711372     1.007825032230
         H            0.551757474645    -2.805762614379    -0.519239288628     1.007825032230
         H           -0.268242525355    -3.651762614379     0.776760711372     1.007825032230
         H            1.568757474645    -5.022762614379     0.080760711372     1.007825032230
         H            2.047007474645    -4.287082614379     1.653346711372     1.007825032230
         H            2.692017474645    -3.638612614379     0.097451711372     1.007825032230

  Running in c1 symmetry.

  Rotational constants: A =      0.06966  B =      0.02345  C =      0.01919 [cm^-1]
  Rotational constants: A =   2088.46938  B =    703.00710  C =    575.36324 [MHz]
  Nuclear repulsion =  401.129340996287965

  Charge       = 0
  Multiplicity = 1
  Electrons    = 68
  Nalpha       = 34
  Nbeta        = 34

  ==> Algorithm <==

  SCF Algorithm Type is PK.
  DIIS enabled.
  MOM disabled.
  Fractional occupation disabled.
  Guess Type is SAD.
  Energy threshold   = 1.00e-06
  Density threshold  = 1.00e-10
  Integral threshold = 0.00e+00

  ==> Primary Basis <==

  Basis Set: CC-PVDZ
    Blend: CC-PVDZ
    Number of shells: 96
    Number of basis function: 196
    Number of Cartesian functions: 205
    Spherical Harmonics?: true
    Max angular momentum: 2

  ==> Pre-Iterations <==

   -------------------------------------------------------
    Irrep   Nso     Nmo     Nalpha   Nbeta   Ndocc  Nsocc
   -------------------------------------------------------
     A        196     196       0       0       0       0
   -------------------------------------------------------
    Total     196     196      34      34      34       0
   -------------------------------------------------------

  ==> Integral Setup <==

  Using integral reordering PK algorithm.
  Sizing the integral batches needed.
  Building batch lookup table.
   Calculation information:
      Number of atoms:                  23
      Number of AO shells:              96
      Number of primitives:            268
      Number of atomic orbitals:       205
      Number of basis functions:       196

      Integral cutoff                 1.00e-12
      Number of threads:                 1

	Batch   1 pq = [       0,    9405] index = [             0,44231715] size =     44231715
	Batch   2 pq = [    9405,   13301] index = [      44231715,88464951] size =     44233236
	Batch   3 pq = [   13301,   16290] index = [      88464951,132690195] size =     44225244
	Batch   4 pq = [   16290,   18810] index = [     132690195,176917455] size =     44227260
	Batch   5 pq = [   18810,   19306] index = [     176917455,186370471] size =      9453016
  Task number: 17
  Buffer size: 11059200
  Buffer per thread: 2
  We computed 9143980 shell quartets total.
  Whereas there are 10841496 unique shell quartets.

  ==> DiskJK: Disk-Based J/K Matrices <==

    J tasked:                  Yes
    K tasked:                  Yes
    wK tasked:                  No
    Memory [MiB]:              375
    Schwarz Cutoff:          1E-12

    OpenMP threads:              1

  Minimum eigenvalue in the overlap matrix is 3.3793884719E-04.
  Using Symmetric Orthogonalization.

  SCF Guess: Superposition of Atomic Densities via on-the-fly atomic UHF.

  ==> Iterations <==

                        Total Energy        Delta E     RMS |[F,P]|

   @RHF iter SAD:  -347.73008460589239   -3.47730e+02   0.00000e+00
   @RHF iter   1:  -348.76460532031513   -1.03452e+00   2.87701e-03 DIIS
   @RHF iter   2:  -348.95536640323462   -1.90761e-01   1.18548e-03 DIIS
   @RHF iter   3:  -348.98487540042208   -2.95090e-02   2.54821e-04 DIIS
   @RHF iter   4:  -348.98734752240642   -2.47212e-03   4.37394e-05 DIIS
   @RHF iter   5:  -348.98740546774951   -5.79453e-05   1.39031e-05 DIIS
   @RHF iter   6:  -348.98741140208085   -5.93433e-06   3.35521e-06 DIIS
   @RHF iter   7:  -348.98741196611024   -5.64029e-07   1.69750e-06 DIIS
   @RHF iter   8:  -348.98741214719843   -1.81088e-07   7.46209e-07 DIIS
   @RHF iter   9:  -348.98741222207263   -7.48742e-08   3.22934e-07 DIIS
   @RHF iter  10:  -348.98741223618424   -1.41116e-08   1.15280e-07 DIIS
   @RHF iter  11:  -348.98741223744230   -1.25806e-09   3.07888e-08 DIIS
   @RHF iter  12:  -348.98741223750238   -6.00835e-11   1.38934e-08 DIIS
   @RHF iter  13:  -348.98741223750852   -6.13909e-12   5.51900e-09 DIIS
   @RHF iter  14:  -348.98741223751375   -5.22959e-12   2.15354e-09 DIIS
   @RHF iter  15:  -348.98741223751318    5.68434e-13   1.19908e-09 DIIS
   @RHF iter  16:  -348.98741223751165    1.53477e-12   4.27231e-10 DIIS
   @RHF iter  17:  -348.98741223751222   -5.68434e-13   1.30336e-10 DIIS
   @RHF iter  18:  -348.98741223751409   -1.87583e-12   4.56435e-11 DIIS
  Energy and wave function converged.

  ==> Post-Iterations <==

    Orbital Energies [Eh]
    ---------------------

    Doubly Occupied:

       1A    -11.246695     2A    -11.239122     3A    -11.237576
       4A    -11.235407     5A    -11.234433     6A    -11.232953
       7A    -11.232174     8A    -11.215891     9A    -11.211238
      10A     -1.143127    11A     -1.038543    12A     -1.026025
      13A     -1.004318    14A     -0.929530    15A     -0.831800
      16A     -0.822894    17A     -0.792139    18A     -0.688429
      19A     -0.632423    20A     -0.624415    21A     -0.604000
      22A     -0.599191    23A     -0.579705    24A     -0.573765
      25A     -0.558342    26A     -0.535504    27A     -0.505665
      28A     -0.488281    29A     -0.483212    30A     -0.481120
      31A     -0.477140    32A     -0.476171    33A     -0.328498
      34A     -0.320721

    Virtual:

      35A      0.132180    36A      0.139436    37A      0.173765
      38A      0.196088    39A      0.199053    40A      0.221834
      41A      0.236060    42A      0.239710    43A      0.248642
      44A      0.257150    45A      0.263836    46A      0.273497
      47A      0.285022    48A      0.290876    49A      0.298872
      50A      0.351288    51A      0.367346    52A      0.377184
      53A      0.408940    54A      0.446677    55A      0.462929
      56A      0.472542    57A      0.486089    58A      0.557822
      59A      0.582407    60A      0.595490    61A      0.607177
      62A      0.609454    63A      0.652449    64A      0.661339
      65A      0.671913    66A      0.683807    67A      0.696927
      68A      0.701675    69A      0.719083    70A      0.732049
      71A      0.737262    72A      0.751123    73A      0.758563
      74A      0.769872    75A      0.776341    76A      0.803691
      77A      0.836078    78A      0.855877    79A      0.865000
      80A      0.870807    81A      0.874224    82A      0.883909
      83A      0.888607    84A      0.892861    85A      0.895505
      86A      0.905292    87A      0.909981    88A      0.916975
      89A      0.924438    90A      0.927161    91A      0.957496
      92A      0.968374    93A      0.979722    94A      1.003232
      95A      1.013628    96A      1.063114    97A      1.111670
      98A      1.124801    99A      1.126600   100A      1.135030
     101A      1.144171   102A      1.159080   103A      1.182616
     104A      1.228997   105A      1.232230   106A      1.242693
     107A      1.251665   108A      1.256822   109A      1.292655
     110A      1.305733   111A      1.321616   112A      1.324467
     113A      1.414937   114A      1.481588   115A      1.494716
     116A      1.507861   117A      1.516713   118A      1.539091
     119A      1.579678   120A      1.599004   121A      1.675133
     122A      1.678343   123A      1.697674   124A      1.704408
     125A      1.727859   126A      1.744719   127A      1.755616
     128A      1.788233   129A      1.800003   130A      1.847185
     131A      1.858783   132A      1.861825   133A      1.875817
     134A      1.885126   135A      1.903454   136A      1.908741
     137A      1.920735   138A      1.931968   139A      1.937671
     140A      1.942396   141A      1.949859   142A      1.955576
     143A      1.960824   144A      1.966449   145A      1.972471
     146A      1.978991   147A      1.991714   148A      1.995130
     149A      2.037015   150A      2.052060   151A      2.058124
     152A      2.098034   153A      2.127537   154A      2.134451
     155A      2.137550   156A      2.141274   157A      2.150569
     158A      2.168777   159A      2.174644   160A      2.243180
     161A      2.271255   162A      2.290749   163A      2.295382
     164A      2.300239   165A      2.308033   166A      2.314158
     167A      2.331037   168A      2.454857   169A      2.463230
     170A      2.465123   171A      2.467151   172A      2.479257
     173A      2.527214   174A      2.577917   175A      2.589293
     176A      2.602295   177A      2.731505   178A      2.737502
     179A      2.765540   180A      2.767112   181A      2.773884
     182A      2.790568   183A      2.808138   184A      2.843187
     185A      2.849201   186A      2.861756   187A      2.868432
     188A      2.953639   189A      2.961088   190A      2.971590
     191A      2.986950   192A      3.016903   193A      3.129816
     194A      3.168259   195A      3.268318   196A      3.912960

    Final Occupation by Irrep:
              A
    DOCC [    34 ]

  @RHF Final Energy:  -348.98741223751409

   => Energetics <=

    Nuclear Repulsion Energy =            401.1293409962879650
    One-Electron Energy =               -1264.9726141412979814
    Two-Electron Energy =                 514.8558609074958667
    Total Energy =                       -348.9874122375141496

Computation Completed

Properties will be evaluated at   0.000000,   0.000000,   0.000000 [a0]

Properties computed using the SCF density matrix

  Nuclear Dipole Moment: [e a0]
     X:     1.7657      Y:   -12.7935      Z:     4.1652

  Electronic Dipole Moment: [e a0]
     X:    -1.8567      Y:    12.7593      Z:    -4.1057

  Dipole Moment: [e a0]
     X:    -0.0910      Y:    -0.0342      Z:     0.0596     Total:     0.1140

  Dipole Moment: [D]
     X:    -0.2313      Y:    -0.0869      Z:     0.1514     Total:     0.2898

*** tstop() called on ds3 at Tue Apr 28 14:29:28 2020
Module time:
	user time   =      66.23 seconds =       1.10 minutes
	system time =      29.29 seconds =       0.49 minutes
	total time  =        145 seconds =       2.42 minutes
Total time:
	user time   =      66.23 seconds =       1.10 minutes
	system time =      29.29 seconds =       0.49 minutes
	total time  =        145 seconds =       2.42 minutes
                                     G D M A

                                 by Anthony Stone

                           version 2.2.06, 22 June 2011

               Distributed Multipoles from Gaussian wavefunctions

Starting at 14:29:28 on 28 Apr 2020

Using SCF density matrix from file ./SSI/SSI-061PHE-068VAL-1-dimer.test.25050.fchk

                         Distributed Multipole Analysis

Standard DMA

Positions and radii in angstrom
Multipole moments in atomic units, ea_0^k for rank k

C          x = -1.899243  y =  0.312237  z =  1.619761 angstrom
           Maximum rank =  0   Radius =  0.650 angstrom
                   Q00  =  -0.207035

C          x =  0.417757  y =  0.566237  z =  0.524761 angstrom
           Maximum rank =  0   Radius =  0.650 angstrom
                   Q00  =  -0.093815

C          x = -0.963243  y =  0.859237  z =  0.529761 angstrom
           Maximum rank =  0   Radius =  0.650 angstrom
                   Q00  =  -0.112980

C          x =  1.237757  y =  1.069237  z = -0.495239 angstrom
           Maximum rank =  0   Radius =  0.650 angstrom
                   Q00  =  -0.021692

C          x =  0.691757  y =  1.830237  z = -1.559239 angstrom
           Maximum rank =  0   Radius =  0.650 angstrom
                   Q00  =  -0.090263

C          x = -1.480243  y =  1.633237  z = -0.522239 angstrom
           Maximum rank =  0   Radius =  0.650 angstrom
                   Q00  =  -0.034504

C          x = -0.649243  y =  2.126237  z = -1.572239 angstrom
           Maximum rank =  0   Radius =  0.650 angstrom
                   Q00  =  -0.066522

H          x =  0.854757  y = -0.020763  z =  1.319761 angstrom
           Maximum rank =  0   Radius =  0.325 angstrom
                   Q00  =   0.061110

H          x =  2.298757  y =  0.860237  z = -0.480239 angstrom
           Maximum rank =  0   Radius =  0.325 angstrom
                   Q00  =   0.067045

H          x = -1.528243  y = -0.672763  z =  1.894761 angstrom
           Maximum rank =  0   Radius =  0.325 angstrom
                   Q00  =   0.100731

H          x = -2.889243  y =  0.169237  z =  1.185761 angstrom
           Maximum rank =  0   Radius =  0.325 angstrom
                   Q00  =   0.100766

H          x =  1.340757  y =  2.187237  z = -2.344239 angstrom
           Maximum rank =  0   Radius =  0.325 angstrom
                   Q00  =   0.062602

H          x = -2.529243  y =  1.872237  z = -0.532239 angstrom
           Maximum rank =  0   Radius =  0.325 angstrom
                   Q00  =   0.059909

H          x = -1.072243  y =  2.725237  z = -2.366239 angstrom
           Maximum rank =  0   Radius =  0.325 angstrom
                   Q00  =   0.067439

H          x = -2.004903  y =  0.931233  z =  2.522910 angstrom
           Maximum rank =  0   Radius =  0.325 angstrom
                   Q00  =   0.107081

C          x =  0.663757  y = -3.155763  z =  0.507761 angstrom
           Maximum rank =  0   Radius =  0.650 angstrom
                   Q00  =  -0.223334

C          x =  1.822757  y = -4.094763  z =  0.593761 angstrom
           Maximum rank =  0   Radius =  0.650 angstrom
                   Q00  =  -0.225499

H          x =  0.821757  y = -2.292763  z =  1.153761 angstrom
           Maximum rank =  0   Radius =  0.325 angstrom
                   Q00  =   0.071294

H          x =  0.551757  y = -2.805763  z = -0.519239 angstrom
           Maximum rank =  0   Radius =  0.325 angstrom
                   Q00  =   0.080015

H          x = -0.268243  y = -3.651763  z =  0.776761 angstrom
           Maximum rank =  0   Radius =  0.325 angstrom
                   Q00  =   0.073215

H          x =  1.568757  y = -5.022763  z =  0.080761 angstrom
           Maximum rank =  0   Radius =  0.325 angstrom
                   Q00  =   0.077827

H          x =  2.047007  y = -4.287083  z =  1.653347 angstrom
           Maximum rank =  0   Radius =  0.325 angstrom
                   Q00  =   0.072454

H          x =  2.692017  y = -3.638613  z =  0.097452 angstrom
           Maximum rank =  0   Radius =  0.325 angstrom
                   Q00  =   0.074155

Total multipoles referred to origin at
           x =   0.000000,  y =    0.000000,  z =    0.000000 angstrom
                   Q00  =  -0.000000

Finished at 14:29:28 on 28 Apr 2020

  DMA results are available in the Python driver through the
	  variable('DMA DISTRIBUTED MULTIPOLES')
  and
	  variable('DMA TOTAL MULTIPOLES')
  commands.

    Psi4 stopped on: Tuesday, 28 April 2020 02:29PM
    Psi4 wall time for execution: 0:02:25.25

*** Psi4 exiting successfully. Buy a developer a beer!
