                               Psi4 1.3.2 release

  ==> Input File <==

--------------------------------------------------------------------------
import numpy as np
set {scf_type pk
basis cc-pvdz
d_convergence 10
gdma_switch   0
gdma_limit    0
gdma_origin   [ 0.0,  0.0,  0.0 ]
}
molecule test {
    units Angstrom
    0 1
    --
    0 1
    C               -1.655578638924637    -1.056784290148128    -0.769938001087275
    C               -0.830578638924637    -2.278784290148128    -1.186938001087275
    H               -2.702578638924638    -1.177784290148128    -1.035938001087275
    H               -1.599578638924638    -0.939784290148128     0.312061998912725
    H               -1.260578638924637    -0.155784290148128    -1.239938001087275
    H               -1.315578638924637    -3.180784290148128    -0.819938001087275
    H               -0.739288638924637    -2.334852290148127    -2.281708001087275
    H                0.184431361075363    -2.244389290148127    -0.764368001087275
    C                0.638421361075363     1.318215709851872     0.634061998912725
    C                1.841421361075363     2.025215709851872     1.322061998912725
    H               -0.138578638924637     2.044215709851872     0.393061998912725
    H                0.972421361075363     0.839215709851872    -0.283938001087275
    H                0.226421361075363     0.561215709851872     1.303061998912725
    H                2.588421361075363     1.259215709851872     1.541061998912725
    H                1.559081361075363     2.504591709851872     2.271001998912725
    H                2.300591361075363     2.731302709851872     0.614531998912725

}
e, wfn = energy('scf', return_wfn=True)
gdma(wfn)
dmavals = variable('DMA DISTRIBUTED MULTIPOLES')
charges = np.array(dmavals)
print(charges)
np.save('SSI-176LEU-208ALA-1-dimer.npy', np.array(charges))--------------------------------------------------------------------------

*** tstart() called on ds3
*** at Mon Apr 27 08:22:35 2020

   => Loading Basis Set <=

    Name: CC-PVDZ
    Role: ORBITAL
    Keyword: BASIS
    atoms 1-2, 9-10  entry C          line   138 file /theoryfs2/ds/metcalf/miniconda2/envs/tf2gpu/share/psi4/basis/cc-pvdz.gbs
    atoms 3-8, 11-16 entry H          line    22 file /theoryfs2/ds/metcalf/miniconda2/envs/tf2gpu/share/psi4/basis/cc-pvdz.gbs

         ---------------------------------------------------------
                                   SCF
               by Justin Turney, Rob Parrish, Andy Simmonett
                          and Daniel G. A. Smith
                              RHF Reference
                        1 Threads,    500 MiB Core
         ---------------------------------------------------------

  ==> Geometry <==

    Molecular point group: c1
    Full point group: C1

    Geometry (in Angstrom), charge = 0, multiplicity = 1:

       Center              X                  Y                   Z               Mass
    ------------   -----------------  -----------------  -----------------  -----------------
         C           -1.655578638925    -1.056784290148    -0.769938001087    12.000000000000
         C           -0.830578638925    -2.278784290148    -1.186938001087    12.000000000000
         H           -2.702578638925    -1.177784290148    -1.035938001087     1.007825032230
         H           -1.599578638925    -0.939784290148     0.312061998913     1.007825032230
         H           -1.260578638925    -0.155784290148    -1.239938001087     1.007825032230
         H           -1.315578638925    -3.180784290148    -0.819938001087     1.007825032230
         H           -0.739288638925    -2.334852290148    -2.281708001087     1.007825032230
         H            0.184431361075    -2.244389290148    -0.764368001087     1.007825032230
         C            0.638421361075     1.318215709852     0.634061998913    12.000000000000
         C            1.841421361075     2.025215709852     1.322061998913    12.000000000000
         H           -0.138578638925     2.044215709852     0.393061998913     1.007825032230
         H            0.972421361075     0.839215709852    -0.283938001087     1.007825032230
         H            0.226421361075     0.561215709852     1.303061998913     1.007825032230
         H            2.588421361075     1.259215709852     1.541061998913     1.007825032230
         H            1.559081361075     2.504591709852     2.271001998913     1.007825032230
         H            2.300591361075     2.731302709852     0.614531998913     1.007825032230

  Running in c1 symmetry.

  Rotational constants: A =      0.54362  B =      0.04813  C =      0.04579 [cm^-1]
  Rotational constants: A =  16297.32792  B =   1442.81925  C =   1372.82997 [MHz]
  Nuclear repulsion =  122.059327679798969

  Charge       = 0
  Multiplicity = 1
  Electrons    = 36
  Nalpha       = 18
  Nbeta        = 18

  ==> Algorithm <==

  SCF Algorithm Type is PK.
  DIIS enabled.
  MOM disabled.
  Fractional occupation disabled.
  Guess Type is SAD.
  Energy threshold   = 1.00e-06
  Density threshold  = 1.00e-10
  Integral threshold = 0.00e+00

  ==> Primary Basis <==

  Basis Set: CC-PVDZ
    Blend: CC-PVDZ
    Number of shells: 60
    Number of basis function: 116
    Number of Cartesian functions: 120
    Spherical Harmonics?: true
    Max angular momentum: 2

  ==> Pre-Iterations <==

   -------------------------------------------------------
    Irrep   Nso     Nmo     Nalpha   Nbeta   Ndocc  Nsocc
   -------------------------------------------------------
     A        116     116       0       0       0       0
   -------------------------------------------------------
    Total     116     116      18      18      18       0
   -------------------------------------------------------

  ==> Integral Setup <==

  Using integral reordering PK algorithm.
  Sizing the integral batches needed.
  Building batch lookup table.
   Calculation information:
      Number of atoms:                  16
      Number of AO shells:              60
      Number of primitives:            148
      Number of atomic orbitals:       120
      Number of basis functions:       116

      Integral cutoff                 1.00e-12
      Number of threads:                 1

	Batch   1 pq = [       0,    6786] index = [             0,23028291] size =     23028291
  Task number: 3
  Buffer size: 11059200
  Buffer per thread: 2
  We computed 1423764 shell quartets total.
  Whereas there are 1675365 unique shell quartets.

  ==> DiskJK: Disk-Based J/K Matrices <==

    J tasked:                  Yes
    K tasked:                  Yes
    wK tasked:                  No
    Memory [MiB]:              375
    Schwarz Cutoff:          1E-12

    OpenMP threads:              1

  Minimum eigenvalue in the overlap matrix is 7.1012089798E-03.
  Using Symmetric Orthogonalization.

  SCF Guess: Superposition of Atomic Densities via on-the-fly atomic UHF.

  ==> Iterations <==

                        Total Energy        Delta E     RMS |[F,P]|

   @RHF iter SAD:  -157.30019539240246   -1.57300e+02   0.00000e+00
   @RHF iter   1:  -158.30995748042295   -1.00976e+00   4.16419e-03 DIIS
   @RHF iter   2:  -158.44144409581378   -1.31487e-01   1.76325e-03 DIIS
   @RHF iter   3:  -158.46409111618806   -2.26470e-02   3.47457e-04 DIIS
   @RHF iter   4:  -158.46590038591435   -1.80927e-03   3.86097e-05 DIIS
   @RHF iter   5:  -158.46592354370875   -2.31578e-05   6.76124e-06 DIIS
   @RHF iter   6:  -158.46592419085391   -6.47145e-07   1.31848e-06 DIIS
   @RHF iter   7:  -158.46592420723101   -1.63771e-08   3.29435e-07 DIIS
   @RHF iter   8:  -158.46592420829660   -1.06559e-09   4.16026e-08 DIIS
   @RHF iter   9:  -158.46592420832380   -2.71996e-11   9.37666e-09 DIIS
   @RHF iter  10:  -158.46592420832448   -6.82121e-13   2.77714e-09 DIIS
   @RHF iter  11:  -158.46592420832548   -9.94760e-13   7.68329e-10 DIIS
   @RHF iter  12:  -158.46592420832496    5.11591e-13   1.56621e-10 DIIS
   @RHF iter  13:  -158.46592420832542   -4.54747e-13   2.63371e-11 DIIS
  Energy and wave function converged.

  ==> Post-Iterations <==

    Orbital Energies [Eh]
    ---------------------

    Doubly Occupied:

       1A    -11.221361     2A    -11.218923     3A    -11.218786
       4A    -11.215646     5A     -1.016485     6A     -1.011331
       7A     -0.841243     8A     -0.835247     9A     -0.600081
      10A     -0.596718    11A     -0.594712    12A     -0.590289
      13A     -0.502606    14A     -0.497193    15A     -0.491967
      16A     -0.485868    17A     -0.483399    18A     -0.479466

    Virtual:

      19A      0.172197    20A      0.196670    21A      0.226122
      22A      0.233482    23A      0.241091    24A      0.258220
      25A      0.266871    26A      0.274093    27A      0.283817
      28A      0.290846    29A      0.308423    30A      0.341774
      31A      0.389407    32A      0.396882    33A      0.565971
      34A      0.587183    35A      0.595254    36A      0.602347
      37A      0.608426    38A      0.633985    39A      0.684012
      40A      0.692762    41A      0.704731    42A      0.761921
      43A      0.841301    44A      0.871946    45A      0.887941
      46A      0.890348    47A      0.892991    48A      0.895134
      49A      0.905305    50A      0.911020    51A      0.917427
      52A      0.921735    53A      0.932644    54A      0.949375
      55A      0.971989    56A      1.000152    57A      1.121369
      58A      1.125021    59A      1.129800    60A      1.147255
      61A      1.219987    62A      1.259740    63A      1.460212
      64A      1.472192    65A      1.476025    66A      1.487058
      67A      1.572005    68A      1.587118    69A      1.678110
      70A      1.689248    71A      1.691720    72A      1.699988
      73A      1.858269    74A      1.868621    75A      1.872644
      76A      1.879549    77A      1.896726    78A      1.901280
      79A      1.930189    80A      1.938199    81A      1.940721
      82A      1.945656    83A      1.948012    84A      1.954560
      85A      1.961385    86A      1.965675    87A      1.969561
      88A      2.067346    89A      2.083600    90A      2.102329
      91A      2.122275    92A      2.125895    93A      2.287501
      94A      2.302641    95A      2.319505    96A      2.339470
      97A      2.441325    98A      2.445168    99A      2.468980
     100A      2.469254   101A      2.551366   102A      2.562664
     103A      2.569507   104A      2.581455   105A      2.757673
     106A      2.760450   107A      2.788683   108A      2.794356
     109A      2.828360   110A      2.854901   111A      2.859500
     112A      2.869328   113A      2.935621   114A      2.949156
     115A      2.960495   116A      2.967943

    Final Occupation by Irrep:
              A
    DOCC [    18 ]

  @RHF Final Energy:  -158.46592420832542

   => Energetics <=

    Nuclear Repulsion Energy =            122.0593276797989688
    One-Electron Energy =                -453.2478609772999789
    Two-Electron Energy =                 172.7226090891755916
    Total Energy =                       -158.4659242083254185

Computation Completed

Properties will be evaluated at   0.000000,   0.000000,   0.000000 [a0]

Properties computed using the SCF density matrix

  Nuclear Dipole Moment: [e a0]
     X:     0.0705      Y:    -0.0878      Z:     0.0084

  Electronic Dipole Moment: [e a0]
     X:    -0.0754      Y:     0.0817      Z:    -0.0028

  Dipole Moment: [e a0]
     X:    -0.0049      Y:    -0.0061      Z:     0.0056     Total:     0.0096

  Dipole Moment: [D]
     X:    -0.0125      Y:    -0.0154      Z:     0.0143     Total:     0.0245

*** tstop() called on ds3 at Mon Apr 27 08:22:45 2020
Module time:
	user time   =       7.30 seconds =       0.12 minutes
	system time =       2.89 seconds =       0.05 minutes
	total time  =         10 seconds =       0.17 minutes
Total time:
	user time   =       7.30 seconds =       0.12 minutes
	system time =       2.89 seconds =       0.05 minutes
	total time  =         10 seconds =       0.17 minutes
                                     G D M A

                                 by Anthony Stone

                           version 2.2.06, 22 June 2011

               Distributed Multipoles from Gaussian wavefunctions

Starting at 8:22:45 on 27 Apr 2020

Using SCF density matrix from file ./SSI/SSI-176LEU-208ALA-1-dimer.test.860.fchk

                         Distributed Multipole Analysis

Standard DMA

Positions and radii in angstrom
Multipole moments in atomic units, ea_0^k for rank k

C          x = -1.655579  y = -1.056784  z = -0.769938 angstrom
           Maximum rank =  0   Radius =  0.650 angstrom
                   Q00  =  -0.235557

C          x = -0.830579  y = -2.278784  z = -1.186938 angstrom
           Maximum rank =  0   Radius =  0.650 angstrom
                   Q00  =  -0.240201

H          x = -2.702579  y = -1.177784  z = -1.035938 angstrom
           Maximum rank =  0   Radius =  0.325 angstrom
                   Q00  =   0.080277

H          x = -1.599579  y = -0.939784  z =  0.312062 angstrom
           Maximum rank =  0   Radius =  0.325 angstrom
                   Q00  =   0.078301

H          x = -1.260579  y = -0.155784  z = -1.239938 angstrom
           Maximum rank =  0   Radius =  0.325 angstrom
                   Q00  =   0.081581

H          x = -1.315579  y = -3.180784  z = -0.819938 angstrom
           Maximum rank =  0   Radius =  0.325 angstrom
                   Q00  =   0.079334

H          x = -0.739289  y = -2.334852  z = -2.281708 angstrom
           Maximum rank =  0   Radius =  0.325 angstrom
                   Q00  =   0.077955

H          x =  0.184431  y = -2.244389  z = -0.764368 angstrom
           Maximum rank =  0   Radius =  0.325 angstrom
                   Q00  =   0.078256

C          x =  0.638421  y =  1.318216  z =  0.634062 angstrom
           Maximum rank =  0   Radius =  0.650 angstrom
                   Q00  =  -0.243693

C          x =  1.841421  y =  2.025216  z =  1.322062 angstrom
           Maximum rank =  0   Radius =  0.650 angstrom
                   Q00  =  -0.244629

H          x = -0.138579  y =  2.044216  z =  0.393062 angstrom
           Maximum rank =  0   Radius =  0.325 angstrom
                   Q00  =   0.081116

H          x =  0.972421  y =  0.839216  z = -0.283938 angstrom
           Maximum rank =  0   Radius =  0.325 angstrom
                   Q00  =   0.081488

H          x =  0.226421  y =  0.561216  z =  1.303062 angstrom
           Maximum rank =  0   Radius =  0.325 angstrom
                   Q00  =   0.081055

H          x =  2.588421  y =  1.259216  z =  1.541062 angstrom
           Maximum rank =  0   Radius =  0.325 angstrom
                   Q00  =   0.077983

H          x =  1.559081  y =  2.504592  z =  2.271002 angstrom
           Maximum rank =  0   Radius =  0.325 angstrom
                   Q00  =   0.085391

H          x =  2.300591  y =  2.731303  z =  0.614532 angstrom
           Maximum rank =  0   Radius =  0.325 angstrom
                   Q00  =   0.081344

Total multipoles referred to origin at
           x =   0.000000,  y =    0.000000,  z =    0.000000 angstrom
                   Q00  =  -0.000000

Finished at 8:22:45 on 27 Apr 2020

  DMA results are available in the Python driver through the
	  variable('DMA DISTRIBUTED MULTIPOLES')
  and
	  variable('DMA TOTAL MULTIPOLES')
  commands.

    Psi4 stopped on: Monday, 27 April 2020 08:22AM
    Psi4 wall time for execution: 0:00:10.09

*** Psi4 exiting successfully. Buy a developer a beer!
