                               Psi4 1.3.2 release

  ==> Input File <==

--------------------------------------------------------------------------
import numpy as np
set {scf_type pk
basis cc-pvdz
d_convergence 10
gdma_switch   0
gdma_limit    0
gdma_origin   [ 0.0,  0.0,  0.0 ]
}
molecule test {
    units Angstrom
    -1 1
    --
    -1 1
    C                0.079088392080554    -2.257875260374229    -0.551437222920772
    C               -0.468911607919446    -3.050875260374229    -1.726437222920772
    C                1.499088392080554    -2.621875260374229    -0.171437222920772
    H                0.047088392080554    -1.210875260374229    -0.835437222920772
    H               -0.540911607919446    -2.404875260374229     0.332562777079228
    H               -0.289911607919446    -4.115875260374229    -1.569437222920772
    H                0.048088392080554    -2.739875260374229    -2.635437222920772
    H                1.779088392080554    -2.052875260374229     0.717562777079228
    H                1.487088392080554    -3.663875260374229     0.090562777079228
    H               -1.547771607919446    -2.867565260374229    -1.838019222920772
    H                2.210298392080554    -2.393325260374229    -0.978873222920772
    C               -1.604911607919446     2.415124739625771     0.293562777079228
    C               -0.202911607919446     1.950124739625771     0.616562777079228
    O                0.046088392080554     0.730124739625771     0.616562777079228
    O                0.647088392080554     2.816124739625771     0.917562777079228
    H               -1.587911607919446     3.471124739625771     0.014562777079228
    H               -2.214911607919446     2.317124739625771     1.193562777079228
    H               -2.073841607919446     1.831664739625771    -0.512470222920772

}
e, wfn = energy('scf', return_wfn=True)
gdma(wfn)
dmavals = variable('DMA DISTRIBUTED MULTIPOLES')
charges = np.array(dmavals)
print(charges)
np.save('SSI-080ARG-090ASP-1-dimer.npy', np.array(charges))--------------------------------------------------------------------------

*** tstart() called on ds3
*** at Tue Apr 28 15:00:38 2020

   => Loading Basis Set <=

    Name: CC-PVDZ
    Role: ORBITAL
    Keyword: BASIS
    atoms 1-3, 12-13  entry C          line   138 file /theoryfs2/ds/metcalf/miniconda2/envs/tf2gpu/share/psi4/basis/cc-pvdz.gbs
    atoms 4-11, 16-18 entry H          line    22 file /theoryfs2/ds/metcalf/miniconda2/envs/tf2gpu/share/psi4/basis/cc-pvdz.gbs
    atoms 14-15       entry O          line   198 file /theoryfs2/ds/metcalf/miniconda2/envs/tf2gpu/share/psi4/basis/cc-pvdz.gbs

         ---------------------------------------------------------
                                   SCF
               by Justin Turney, Rob Parrish, Andy Simmonett
                          and Daniel G. A. Smith
                              RHF Reference
                        1 Threads,    500 MiB Core
         ---------------------------------------------------------

  ==> Geometry <==

    Molecular point group: c1
    Full point group: C1

    Geometry (in Angstrom), charge = -1, multiplicity = 1:

       Center              X                  Y                   Z               Mass
    ------------   -----------------  -----------------  -----------------  -----------------
         C            0.079088392081    -2.257875260374    -0.551437222921    12.000000000000
         C           -0.468911607919    -3.050875260374    -1.726437222921    12.000000000000
         C            1.499088392081    -2.621875260374    -0.171437222921    12.000000000000
         H            0.047088392081    -1.210875260374    -0.835437222921     1.007825032230
         H           -0.540911607919    -2.404875260374     0.332562777079     1.007825032230
         H           -0.289911607919    -4.115875260374    -1.569437222921     1.007825032230
         H            0.048088392081    -2.739875260374    -2.635437222921     1.007825032230
         H            1.779088392081    -2.052875260374     0.717562777079     1.007825032230
         H            1.487088392081    -3.663875260374     0.090562777079     1.007825032230
         H           -1.547771607919    -2.867565260374    -1.838019222921     1.007825032230
         H            2.210298392081    -2.393325260374    -0.978873222921     1.007825032230
         C           -1.604911607919     2.415124739626     0.293562777079    12.000000000000
         C           -0.202911607919     1.950124739626     0.616562777079    12.000000000000
         O            0.046088392081     0.730124739626     0.616562777079    15.994914619570
         O            0.647088392081     2.816124739626     0.917562777079    15.994914619570
         H           -1.587911607919     3.471124739626     0.014562777079     1.007825032230
         H           -2.214911607919     2.317124739626     1.193562777079     1.007825032230
         H           -2.073841607919     1.831664739626    -0.512470222921     1.007825032230

  Running in c1 symmetry.

  Rotational constants: A =      0.15243  B =      0.02525  C =      0.02238 [cm^-1]
  Rotational constants: A =   4569.76644  B =    756.96957  C =    671.06093 [MHz]
  Nuclear repulsion =  282.870400930288326

  Charge       = -1
  Multiplicity = 1
  Electrons    = 58
  Nalpha       = 29
  Nbeta        = 29

  ==> Algorithm <==

  SCF Algorithm Type is PK.
  DIIS enabled.
  MOM disabled.
  Fractional occupation disabled.
  Guess Type is SAD.
  Energy threshold   = 1.00e-06
  Density threshold  = 1.00e-10
  Integral threshold = 0.00e+00

  ==> Primary Basis <==

  Basis Set: CC-PVDZ
    Blend: CC-PVDZ
    Number of shells: 75
    Number of basis function: 153
    Number of Cartesian functions: 160
    Spherical Harmonics?: true
    Max angular momentum: 2

  ==> Pre-Iterations <==

   -------------------------------------------------------
    Irrep   Nso     Nmo     Nalpha   Nbeta   Ndocc  Nsocc
   -------------------------------------------------------
     A        153     153       0       0       0       0
   -------------------------------------------------------
    Total     153     153      29      29      29       0
   -------------------------------------------------------

  ==> Integral Setup <==

  Using integral reordering PK algorithm.
  Sizing the integral batches needed.
  Building batch lookup table.
   Calculation information:
      Number of atoms:                  18
      Number of AO shells:              75
      Number of primitives:            209
      Number of atomic orbitals:       160
      Number of basis functions:       153

      Integral cutoff                 1.00e-12
      Number of threads:                 1

	Batch   1 pq = [       0,    9405] index = [             0,44231715] size =     44231715
	Batch   2 pq = [    9405,   11781] index = [      44231715,69401871] size =     25170156
  Task number: 7
  Buffer size: 11059200
  Buffer per thread: 2
  We computed 3055161 shell quartets total.
  Whereas there are 4062675 unique shell quartets.

  ==> DiskJK: Disk-Based J/K Matrices <==

    J tasked:                  Yes
    K tasked:                  Yes
    wK tasked:                  No
    Memory [MiB]:              375
    Schwarz Cutoff:          1E-12

    OpenMP threads:              1

  Minimum eigenvalue in the overlap matrix is 5.2834030302E-03.
  Using Symmetric Orthogonalization.

  SCF Guess: Superposition of Atomic Densities via on-the-fly atomic UHF.

  ==> Iterations <==

                        Total Energy        Delta E     RMS |[F,P]|

   @RHF iter SAD:  -343.93581288482653   -3.43936e+02   0.00000e+00
   @RHF iter   1:  -345.21094984397405   -1.27514e+00   4.98935e-03 DIIS
   @RHF iter   2:  -345.44241427036673   -2.31464e-01   2.75210e-03 DIIS
   @RHF iter   3:  -345.50927451406159   -6.68602e-02   4.26893e-04 DIIS
   @RHF iter   4:  -345.51223443332123   -2.95992e-03   1.59604e-04 DIIS
   @RHF iter   5:  -345.51264359546866   -4.09162e-04   2.41245e-05 DIIS
   @RHF iter   6:  -345.51265531788039   -1.17224e-05   6.04974e-06 DIIS
   @RHF iter   7:  -345.51265608523011   -7.67350e-07   1.67531e-06 DIIS
   @RHF iter   8:  -345.51265615103665   -6.58065e-08   4.98361e-07 DIIS
   @RHF iter   9:  -345.51265616062301   -9.58636e-09   2.30470e-07 DIIS
   @RHF iter  10:  -345.51265616225169   -1.62868e-09   9.46897e-08 DIIS
   @RHF iter  11:  -345.51265616257581   -3.24121e-10   3.97099e-08 DIIS
   @RHF iter  12:  -345.51265616261747   -4.16662e-11   6.80055e-09 DIIS
   @RHF iter  13:  -345.51265616261821   -7.38964e-13   2.17504e-09 DIIS
   @RHF iter  14:  -345.51265616261867   -4.54747e-13   6.41756e-10 DIIS
   @RHF iter  15:  -345.51265616261907   -3.97904e-13   1.99933e-10 DIIS
   @RHF iter  16:  -345.51265616261873    3.41061e-13   7.52460e-11 DIIS
  Energy and wave function converged.

  ==> Post-Iterations <==

    Orbital Energies [Eh]
    ---------------------

    Doubly Occupied:

       1A    -20.257909     2A    -20.253839     3A    -11.112662
       4A    -11.106755     5A    -11.092627     6A    -11.081719
       7A    -11.049466     8A     -1.149409     9A     -1.034346
      10A     -0.935354    11A     -0.811322    12A     -0.797137
      13A     -0.669193    14A     -0.510796    15A     -0.500027
      16A     -0.478105    17A     -0.431703    18A     -0.424403
      19A     -0.411252    20A     -0.408163    21A     -0.402048
      22A     -0.352286    23A     -0.346393    24A     -0.345655
      25A     -0.330668    26A     -0.302113    27A     -0.182451
      28A     -0.168793    29A     -0.158717

    Virtual:

      30A      0.292593    31A      0.337774    32A      0.343917
      33A      0.350700    34A      0.360278    35A      0.388569
      36A      0.391714    37A      0.408828    38A      0.409151
      39A      0.417288    40A      0.461786    41A      0.486596
      42A      0.489937    43A      0.551232    44A      0.577226
      45A      0.688634    46A      0.691855    47A      0.710306
      48A      0.726161    49A      0.737978    50A      0.750585
      51A      0.790599    52A      0.821168    53A      0.873973
      54A      0.906085    55A      0.916042    56A      0.943052
      57A      0.972774    58A      0.980007    59A      0.998753
      60A      1.002581    61A      1.007934    62A      1.018198
      63A      1.024575    64A      1.032130    65A      1.033974
      66A      1.036840    67A      1.049170    68A      1.059711
      69A      1.070183    70A      1.080681    71A      1.120823
      72A      1.161484    73A      1.225123    74A      1.242724
      75A      1.248185    76A      1.326990    77A      1.348009
      78A      1.349355    79A      1.438055    80A      1.516242
      81A      1.545734    82A      1.565098    83A      1.575386
      84A      1.591207    85A      1.610989    86A      1.626324
      87A      1.649577    88A      1.684815    89A      1.721609
      90A      1.751949    91A      1.761237    92A      1.791570
      93A      1.803467    94A      1.830219    95A      1.841898
      96A      1.848321    97A      1.976247    98A      1.992601
      99A      2.010448   100A      2.020468   101A      2.046127
     102A      2.054339   103A      2.067612   104A      2.078633
     105A      2.097244   106A      2.102909   107A      2.107613
     108A      2.128825   109A      2.135714   110A      2.148259
     111A      2.158341   112A      2.182216   113A      2.213909
     114A      2.249181   115A      2.264128   116A      2.296723
     117A      2.361512   118A      2.412287   119A      2.417467
     120A      2.422518   121A      2.433693   122A      2.449165
     123A      2.474512   124A      2.565614   125A      2.615970
     126A      2.667087   127A      2.677748   128A      2.703684
     129A      2.715535   130A      2.752116   131A      2.760182
     132A      2.790872   133A      2.867547   134A      2.878035
     135A      2.912593   136A      2.931637   137A      2.935100
     138A      2.965275   139A      2.986429   140A      3.040566
     141A      3.093136   142A      3.098007   143A      3.198762
     144A      3.246334   145A      3.279032   146A      3.298422
     147A      3.364674   148A      3.643035   149A      3.787168
     150A      3.848864   151A      4.066437   152A      4.119705
     153A      4.206936

    Final Occupation by Irrep:
              A
    DOCC [    29 ]

  @RHF Final Energy:  -345.51265616261873

   => Energetics <=

    Nuclear Repulsion Energy =            282.8704009302883264
    One-Electron Energy =               -1042.5554943285108038
    Two-Electron Energy =                 414.1724372356038089
    Total Energy =                       -345.5126561626187254

Computation Completed

Properties will be evaluated at   0.000000,   0.000000,   0.000000 [a0]

Properties computed using the SCF density matrix

  Nuclear Dipole Moment: [e a0]
     X:    -2.5125      Y:   -12.9474      Z:    -5.6370

  Electronic Dipole Moment: [e a0]
     X:     1.6011      Y:    10.2791      Z:     4.4138

  Dipole Moment: [e a0]
     X:    -0.9114      Y:    -2.6683      Z:    -1.2232     Total:     3.0736

  Dipole Moment: [D]
     X:    -2.3164      Y:    -6.7822      Z:    -3.1091     Total:     7.8122

*** tstop() called on ds3 at Tue Apr 28 15:01:35 2020
Module time:
	user time   =      19.99 seconds =       0.33 minutes
	system time =       9.02 seconds =       0.15 minutes
	total time  =         57 seconds =       0.95 minutes
Total time:
	user time   =      19.99 seconds =       0.33 minutes
	system time =       9.02 seconds =       0.15 minutes
	total time  =         57 seconds =       0.95 minutes
                                     G D M A

                                 by Anthony Stone

                           version 2.2.06, 22 June 2011

               Distributed Multipoles from Gaussian wavefunctions

Starting at 15:1:35 on 28 Apr 2020

Using SCF density matrix from file ./SSI/SSI-080ARG-090ASP-1-dimer.test.28328.fchk

                         Distributed Multipole Analysis

Standard DMA

Positions and radii in angstrom
Multipole moments in atomic units, ea_0^k for rank k

C          x =  0.079088  y = -2.257875  z = -0.551437 angstrom
           Maximum rank =  0   Radius =  0.650 angstrom
                   Q00  =  -0.024843

C          x = -0.468912  y = -3.050875  z = -1.726437 angstrom
           Maximum rank =  0   Radius =  0.650 angstrom
                   Q00  =  -0.250718

C          x =  1.499088  y = -2.621875  z = -0.171437 angstrom
           Maximum rank =  0   Radius =  0.650 angstrom
                   Q00  =  -0.231674

H          x =  0.047088  y = -1.210875  z = -0.835437 angstrom
           Maximum rank =  0   Radius =  0.325 angstrom
                   Q00  =   0.085585

H          x = -0.540912  y = -2.404875  z =  0.332563 angstrom
           Maximum rank =  0   Radius =  0.325 angstrom
                   Q00  =   0.033387

H          x = -0.289912  y = -4.115875  z = -1.569437 angstrom
           Maximum rank =  0   Radius =  0.325 angstrom
                   Q00  =   0.041520

H          x =  0.048088  y = -2.739875  z = -2.635437 angstrom
           Maximum rank =  0   Radius =  0.325 angstrom
                   Q00  =   0.062889

H          x =  1.779088  y = -2.052875  z =  0.717563 angstrom
           Maximum rank =  0   Radius =  0.325 angstrom
                   Q00  =   0.105193

H          x =  1.487088  y = -3.663875  z =  0.090563 angstrom
           Maximum rank =  0   Radius =  0.325 angstrom
                   Q00  =   0.032676

H          x = -1.547772  y = -2.867565  z = -1.838019 angstrom
           Maximum rank =  0   Radius =  0.325 angstrom
                   Q00  =   0.070017

H          x =  2.210298  y = -2.393325  z = -0.978873 angstrom
           Maximum rank =  0   Radius =  0.325 angstrom
                   Q00  =   0.060305

C          x = -1.604912  y =  2.415125  z =  0.293563 angstrom
           Maximum rank =  0   Radius =  0.650 angstrom
                   Q00  =  -0.281623

C          x = -0.202912  y =  1.950125  z =  0.616563 angstrom
           Maximum rank =  0   Radius =  0.650 angstrom
                   Q00  =   0.981505

O          x =  0.046088  y =  0.730125  z =  0.616563 angstrom
           Maximum rank =  0   Radius =  0.650 angstrom
                   Q00  =  -0.934724

O          x =  0.647088  y =  2.816125  z =  0.917563 angstrom
           Maximum rank =  0   Radius =  0.650 angstrom
                   Q00  =  -0.933386

H          x = -1.587912  y =  3.471125  z =  0.014563 angstrom
           Maximum rank =  0   Radius =  0.325 angstrom
                   Q00  =   0.051719

H          x = -2.214912  y =  2.317125  z =  1.193563 angstrom
           Maximum rank =  0   Radius =  0.325 angstrom
                   Q00  =   0.078461

H          x = -2.073842  y =  1.831665  z = -0.512470 angstrom
           Maximum rank =  0   Radius =  0.325 angstrom
                   Q00  =   0.053711

Total multipoles referred to origin at
           x =   0.000000,  y =    0.000000,  z =    0.000000 angstrom
                   Q00  =  -1.000000

Finished at 15:1:35 on 28 Apr 2020

  DMA results are available in the Python driver through the
	  variable('DMA DISTRIBUTED MULTIPOLES')
  and
	  variable('DMA TOTAL MULTIPOLES')
  commands.

    Psi4 stopped on: Tuesday, 28 April 2020 03:01PM
    Psi4 wall time for execution: 0:00:57.18

*** Psi4 exiting successfully. Buy a developer a beer!
