                               Psi4 1.3.2 release

  ==> Input File <==

--------------------------------------------------------------------------
import numpy as np
set {scf_type pk
basis cc-pvdz
d_convergence 10
gdma_switch   0
gdma_limit    0
gdma_origin   [ 0.0,  0.0,  0.0 ]
}
molecule test {
    units Angstrom
    0 1
    --
    0 1
    C               -1.026615957726536     1.544175234245959     2.244903401964187
    C               -1.685615957726536     2.041175234245959     3.544903401964187
    O                0.124384042273464     2.303175234245960     1.877903401964186
    H               -0.707615957726536     0.512175234245960     2.376903401964187
    H               -1.754615957726536     1.563175234245959     1.433903401964187
    H               -2.234615957726536     1.194175234245959     3.961903401964187
    H               -0.157615957726536     3.224175234245960     1.715903401964187
    H               -2.394235957726536     2.855645234245960     3.333963401964187
    H               -0.920285957726536     2.336475234245960     4.277743401964186
    C                1.698384042273464     0.905175234245960    -2.111096598035813
    C               -0.874615957726536    -1.146824765754041    -0.224096598035813
    C               -0.151615957726536    -0.061824765754040    -0.721096598035813
    C               -0.541615957726536    -2.441824765754040    -0.617096598035813
    C                0.902384042273464    -0.259824765754040    -1.607096598035813
    C                0.512384042273464    -2.647824765754040    -1.501096598035814
    C                1.235384042273464    -1.555824765754041    -1.993096598035814
    H               -1.700615957726536    -0.981824765754040     0.452903401964187
    H               -0.416615957726536     0.941175234245960    -0.421096598035813
    H               -1.104615957726536    -3.283824765754041    -0.243096598035813
    H                0.769384042273464    -3.649824765754040    -1.818096598035813
    H                2.664384042273464     0.548175234245960    -2.466096598035813
    H                1.904384042273464     1.571175234245960    -1.272096598035813
    H                2.048384042273464    -1.725824765754041    -2.685096598035813
    H                1.215134042273464     1.485365234245959    -2.911005598035813

}
e, wfn = energy('scf', return_wfn=True)
gdma(wfn)
dmavals = variable('DMA DISTRIBUTED MULTIPOLES')
charges = np.array(dmavals)
print(charges)
np.save('SSI-076SER-082PHE-1-dimer.npy', np.array(charges))--------------------------------------------------------------------------

*** tstart() called on ds3
*** at Mon Apr 27 15:49:15 2020

   => Loading Basis Set <=

    Name: CC-PVDZ
    Role: ORBITAL
    Keyword: BASIS
    atoms 1-2, 10-16 entry C          line   138 file /theoryfs2/ds/metcalf/miniconda2/envs/tf2gpu/share/psi4/basis/cc-pvdz.gbs
    atoms 3          entry O          line   198 file /theoryfs2/ds/metcalf/miniconda2/envs/tf2gpu/share/psi4/basis/cc-pvdz.gbs
    atoms 4-9, 17-24 entry H          line    22 file /theoryfs2/ds/metcalf/miniconda2/envs/tf2gpu/share/psi4/basis/cc-pvdz.gbs

         ---------------------------------------------------------
                                   SCF
               by Justin Turney, Rob Parrish, Andy Simmonett
                          and Daniel G. A. Smith
                              RHF Reference
                        1 Threads,    500 MiB Core
         ---------------------------------------------------------

  ==> Geometry <==

    Molecular point group: c1
    Full point group: C1

    Geometry (in Angstrom), charge = 0, multiplicity = 1:

       Center              X                  Y                   Z               Mass
    ------------   -----------------  -----------------  -----------------  -----------------
         C           -1.026615957727     1.544175234246     2.244903401964    12.000000000000
         C           -1.685615957727     2.041175234246     3.544903401964    12.000000000000
         O            0.124384042273     2.303175234246     1.877903401964    15.994914619570
         H           -0.707615957727     0.512175234246     2.376903401964     1.007825032230
         H           -1.754615957727     1.563175234246     1.433903401964     1.007825032230
         H           -2.234615957727     1.194175234246     3.961903401964     1.007825032230
         H           -0.157615957727     3.224175234246     1.715903401964     1.007825032230
         H           -2.394235957727     2.855645234246     3.333963401964     1.007825032230
         H           -0.920285957727     2.336475234246     4.277743401964     1.007825032230
         C            1.698384042273     0.905175234246    -2.111096598036    12.000000000000
         C           -0.874615957727    -1.146824765754    -0.224096598036    12.000000000000
         C           -0.151615957727    -0.061824765754    -0.721096598036    12.000000000000
         C           -0.541615957727    -2.441824765754    -0.617096598036    12.000000000000
         C            0.902384042273    -0.259824765754    -1.607096598036    12.000000000000
         C            0.512384042273    -2.647824765754    -1.501096598036    12.000000000000
         C            1.235384042273    -1.555824765754    -1.993096598036    12.000000000000
         H           -1.700615957727    -0.981824765754     0.452903401964     1.007825032230
         H           -0.416615957727     0.941175234246    -0.421096598036     1.007825032230
         H           -1.104615957727    -3.283824765754    -0.243096598036     1.007825032230
         H            0.769384042273    -3.649824765754    -1.818096598036     1.007825032230
         H            2.664384042273     0.548175234246    -2.466096598036     1.007825032230
         H            1.904384042273     1.571175234246    -1.272096598036     1.007825032230
         H            2.048384042273    -1.725824765754    -2.685096598036     1.007825032230
         H            1.215134042273     1.485365234246    -2.911005598036     1.007825032230

  Running in c1 symmetry.

  Rotational constants: A =      0.06771  B =      0.01891  C =      0.01529 [cm^-1]
  Rotational constants: A =   2029.96483  B =    566.98729  C =    458.26208 [MHz]
  Nuclear repulsion =  486.643022933644204

  Charge       = 0
  Multiplicity = 1
  Electrons    = 76
  Nalpha       = 38
  Nbeta        = 38

  ==> Algorithm <==

  SCF Algorithm Type is PK.
  DIIS enabled.
  MOM disabled.
  Fractional occupation disabled.
  Guess Type is SAD.
  Energy threshold   = 1.00e-06
  Density threshold  = 1.00e-10
  Integral threshold = 0.00e+00

  ==> Primary Basis <==

  Basis Set: CC-PVDZ
    Blend: CC-PVDZ
    Number of shells: 102
    Number of basis function: 210
    Number of Cartesian functions: 220
    Spherical Harmonics?: true
    Max angular momentum: 2

  ==> Pre-Iterations <==

   -------------------------------------------------------
    Irrep   Nso     Nmo     Nalpha   Nbeta   Ndocc  Nsocc
   -------------------------------------------------------
     A        210     210       0       0       0       0
   -------------------------------------------------------
    Total     210     210      38      38      38       0
   -------------------------------------------------------

  ==> Integral Setup <==

  Using integral reordering PK algorithm.
  Sizing the integral batches needed.
  Building batch lookup table.
   Calculation information:
      Number of atoms:                  24
      Number of AO shells:             102
      Number of primitives:            290
      Number of atomic orbitals:       220
      Number of basis functions:       210

      Integral cutoff                 1.00e-12
      Number of threads:                 1

	Batch   1 pq = [       0,    9405] index = [             0,44231715] size =     44231715
	Batch   2 pq = [    9405,   13301] index = [      44231715,88464951] size =     44233236
	Batch   3 pq = [   13301,   16290] index = [      88464951,132690195] size =     44225244
	Batch   4 pq = [   16290,   18810] index = [     132690195,176917455] size =     44227260
	Batch   5 pq = [   18810,   21030] index = [     176917455,221140965] size =     44223510
	Batch   6 pq = [   21030,   22155] index = [     221140965,245433090] size =     24292125
  Task number: 23
  Buffer size: 11059200
  Buffer per thread: 2
  We computed 11210356 shell quartets total.
  Whereas there are 13799631 unique shell quartets.

  ==> DiskJK: Disk-Based J/K Matrices <==

    J tasked:                  Yes
    K tasked:                  Yes
    wK tasked:                  No
    Memory [MiB]:              375
    Schwarz Cutoff:          1E-12

    OpenMP threads:              1

  Minimum eigenvalue in the overlap matrix is 3.0922972922E-04.
  Using Symmetric Orthogonalization.

  SCF Guess: Superposition of Atomic Densities via on-the-fly atomic UHF.

  ==> Iterations <==

                        Total Energy        Delta E     RMS |[F,P]|

   @RHF iter SAD:  -422.57079421316280   -4.22571e+02   0.00000e+00
   @RHF iter   1:  -423.60104950710308   -1.03026e+00   2.93386e-03 DIIS
   @RHF iter   2:  -423.80914778872096   -2.08098e-01   1.31581e-03 DIIS
   @RHF iter   3:  -423.84449235290100   -3.53446e-02   2.90686e-04 DIIS
   @RHF iter   4:  -423.84735913344593   -2.86678e-03   9.34884e-05 DIIS
   @RHF iter   5:  -423.84757266707180   -2.13534e-04   1.91404e-05 DIIS
   @RHF iter   6:  -423.84758476626604   -1.20992e-05   5.66252e-06 DIIS
   @RHF iter   7:  -423.84758595782120   -1.19156e-06   2.10779e-06 DIIS
   @RHF iter   8:  -423.84758612667912   -1.68858e-07   6.28827e-07 DIIS
   @RHF iter   9:  -423.84758615599128   -2.93122e-08   2.86580e-07 DIIS
   @RHF iter  10:  -423.84758616271870   -6.72742e-09   1.19416e-07 DIIS
   @RHF iter  11:  -423.84758616477507   -2.05637e-09   4.51323e-08 DIIS
   @RHF iter  12:  -423.84758616507798   -3.02919e-10   1.65868e-08 DIIS
   @RHF iter  13:  -423.84758616510788   -2.98996e-11   4.95379e-09 DIIS
   @RHF iter  14:  -423.84758616510908   -1.19371e-12   1.55072e-09 DIIS
   @RHF iter  15:  -423.84758616510885    2.27374e-13   6.96945e-10 DIIS
   @RHF iter  16:  -423.84758616510771    1.13687e-12   3.05487e-10 DIIS
   @RHF iter  17:  -423.84758616511124   -3.52429e-12   1.34643e-10 DIIS
   @RHF iter  18:  -423.84758616510879    2.44427e-12   6.20895e-11 DIIS
  Energy and wave function converged.

  ==> Post-Iterations <==

    Orbital Energies [Eh]
    ---------------------

    Doubly Occupied:

       1A    -20.554314     2A    -11.278233     3A    -11.233784
       4A    -11.231670     5A    -11.231331     6A    -11.227550
       7A    -11.227512     8A    -11.226447     9A    -11.223774
      10A    -11.221681    11A     -1.349675    12A     -1.147203
      13A     -1.040003    14A     -1.009308    15A     -1.005248
      16A     -0.925491    17A     -0.845019    18A     -0.820620
      19A     -0.789914    20A     -0.686914    21A     -0.680497
      22A     -0.627372    23A     -0.625484    24A     -0.620328
      25A     -0.601810    26A     -0.576240    27A     -0.570758
      28A     -0.558378    29A     -0.543451    30A     -0.527024
      31A     -0.521560    32A     -0.482605    33A     -0.480828
      34A     -0.477550    35A     -0.474982    36A     -0.436883
      37A     -0.326053    38A     -0.317415

    Virtual:

      39A      0.139968    40A      0.144635    41A      0.170332
      42A      0.195549    43A      0.197695    44A      0.218280
      45A      0.222538    46A      0.235931    47A      0.246434
      48A      0.259875    49A      0.267152    50A      0.279971
      51A      0.283219    52A      0.292341    53A      0.294570
      54A      0.327176    55A      0.366206    56A      0.385311
      57A      0.389725    58A      0.409165    59A      0.462398
      60A      0.465510    61A      0.484732    62A      0.503176
      63A      0.569916    64A      0.599259    65A      0.602857
      66A      0.634912    67A      0.645765    68A      0.672136
      69A      0.685586    70A      0.692145    71A      0.704549
      72A      0.720693    73A      0.739765    74A      0.741531
      75A      0.748561    76A      0.751119    77A      0.762860
      78A      0.767484    79A      0.780457    80A      0.786380
      81A      0.789123    82A      0.824062    83A      0.834421
      84A      0.851901    85A      0.866966    86A      0.872415
      87A      0.880205    88A      0.883711    89A      0.887296
      90A      0.896180    91A      0.899974    92A      0.915165
      93A      0.918420    94A      0.927868    95A      0.946837
      96A      0.950165    97A      0.954419    98A      1.001900
      99A      1.014761   100A      1.037736   101A      1.054241
     102A      1.104878   103A      1.120092   104A      1.132378
     105A      1.156879   106A      1.159866   107A      1.163958
     108A      1.187832   109A      1.199704   110A      1.246924
     111A      1.252048   112A      1.254547   113A      1.264858
     114A      1.283656   115A      1.309593   116A      1.320621
     117A      1.327486   118A      1.329977   119A      1.362737
     120A      1.399489   121A      1.424394   122A      1.473146
     123A      1.502511   124A      1.527990   125A      1.554017
     126A      1.562077   127A      1.597106   128A      1.622444
     129A      1.652540   130A      1.669475   131A      1.690714
     132A      1.706772   133A      1.738070   134A      1.753218
     135A      1.757732   136A      1.764109   137A      1.796680
     138A      1.817702   139A      1.854072   140A      1.868747
     141A      1.871114   142A      1.872271   143A      1.902504
     144A      1.907715   145A      1.910408   146A      1.916787
     147A      1.925339   148A      1.928481   149A      1.948431
     150A      1.956101   151A      1.959302   152A      1.978005
     153A      1.986960   154A      1.995540   155A      2.005679
     156A      2.020577   157A      2.046870   158A      2.048437
     159A      2.063269   160A      2.089178   161A      2.110569
     162A      2.123648   163A      2.145380   164A      2.159118
     165A      2.166384   166A      2.169508   167A      2.189530
     168A      2.194796   169A      2.242753   170A      2.268963
     171A      2.277785   172A      2.302795   173A      2.311009
     174A      2.324600   175A      2.328308   176A      2.346171
     177A      2.396706   178A      2.411797   179A      2.451375
     180A      2.466284   181A      2.490107   182A      2.515710
     183A      2.527994   184A      2.548429   185A      2.566037
     186A      2.634877   187A      2.744587   188A      2.747659
     189A      2.760358   190A      2.770004   191A      2.777726
     192A      2.792479   193A      2.805127   194A      2.837869
     195A      2.863443   196A      2.878265   197A      2.880853
     198A      2.920403   199A      2.982762   200A      3.015514
     201A      3.033512   202A      3.164442   203A      3.209105
     204A      3.299881   205A      3.305724   206A      3.385597
     207A      3.442399   208A      3.633900   209A      3.970526
     210A      4.080804

    Final Occupation by Irrep:
              A
    DOCC [    38 ]

  @RHF Final Energy:  -423.84758616510879

   => Energetics <=

    Nuclear Repulsion Energy =            486.6430229336442039
    One-Electron Energy =               -1539.5314028058910480
    Two-Electron Energy =                 629.0407937071380502
    Total Energy =                       -423.8475861651087371

Computation Completed

Properties will be evaluated at   0.000000,   0.000000,   0.000000 [a0]

Properties computed using the SCF density matrix

  Nuclear Dipole Moment: [e a0]
     X:    -2.6142      Y:     6.1894      Z:     5.3869

  Electronic Dipole Moment: [e a0]
     X:     2.0651      Y:    -5.7877      Z:    -5.2838

  Dipole Moment: [e a0]
     X:    -0.5491      Y:     0.4016      Z:     0.1032     Total:     0.6881

  Dipole Moment: [D]
     X:    -1.3957      Y:     1.0209      Z:     0.2622     Total:     1.7490

*** tstop() called on ds3 at Mon Apr 27 15:51:05 2020
Module time:
	user time   =      77.86 seconds =       1.30 minutes
	system time =      37.10 seconds =       0.62 minutes
	total time  =        110 seconds =       1.83 minutes
Total time:
	user time   =      77.86 seconds =       1.30 minutes
	system time =      37.10 seconds =       0.62 minutes
	total time  =        110 seconds =       1.83 minutes
                                     G D M A

                                 by Anthony Stone

                           version 2.2.06, 22 June 2011

               Distributed Multipoles from Gaussian wavefunctions

Starting at 15:51:5 on 27 Apr 2020

Using SCF density matrix from file ./SSI/SSI-076SER-082PHE-1-dimer.test.20100.fchk

                         Distributed Multipole Analysis

Standard DMA

Positions and radii in angstrom
Multipole moments in atomic units, ea_0^k for rank k

C          x = -1.026616  y =  1.544175  z =  2.244903 angstrom
           Maximum rank =  0   Radius =  0.650 angstrom
                   Q00  =   0.117804

C          x = -1.685616  y =  2.041175  z =  3.544903 angstrom
           Maximum rank =  0   Radius =  0.650 angstrom
                   Q00  =  -0.253022

O          x =  0.124384  y =  2.303175  z =  1.877903 angstrom
           Maximum rank =  0   Radius =  0.650 angstrom
                   Q00  =  -0.618988

H          x = -0.707616  y =  0.512175  z =  2.376903 angstrom
           Maximum rank =  0   Radius =  0.325 angstrom
                   Q00  =   0.095515

H          x = -1.754616  y =  1.563175  z =  1.433903 angstrom
           Maximum rank =  0   Radius =  0.325 angstrom
                   Q00  =   0.025393

H          x = -2.234616  y =  1.194175  z =  3.961903 angstrom
           Maximum rank =  0   Radius =  0.325 angstrom
                   Q00  =   0.090665

H          x = -0.157616  y =  3.224175  z =  1.715903 angstrom
           Maximum rank =  0   Radius =  0.325 angstrom
                   Q00  =   0.379637

H          x = -2.394236  y =  2.855645  z =  3.333963 angstrom
           Maximum rank =  0   Radius =  0.325 angstrom
                   Q00  =   0.077532

H          x = -0.920286  y =  2.336475  z =  4.277743 angstrom
           Maximum rank =  0   Radius =  0.325 angstrom
                   Q00  =   0.096389

C          x =  1.698384  y =  0.905175  z = -2.111097 angstrom
           Maximum rank =  0   Radius =  0.650 angstrom
                   Q00  =  -0.199142

C          x = -0.874616  y = -1.146825  z = -0.224097 angstrom
           Maximum rank =  0   Radius =  0.650 angstrom
                   Q00  =  -0.083402

C          x = -0.151616  y = -0.061825  z = -0.721097 angstrom
           Maximum rank =  0   Radius =  0.650 angstrom
                   Q00  =  -0.013844

C          x = -0.541616  y = -2.441825  z = -0.617097 angstrom
           Maximum rank =  0   Radius =  0.650 angstrom
                   Q00  =  -0.086548

C          x =  0.902384  y = -0.259825  z = -1.607097 angstrom
           Maximum rank =  0   Radius =  0.650 angstrom
                   Q00  =  -0.093192

C          x =  0.512384  y = -2.647825  z = -1.501097 angstrom
           Maximum rank =  0   Radius =  0.650 angstrom
                   Q00  =  -0.071373

C          x =  1.235384  y = -1.555825  z = -1.993097 angstrom
           Maximum rank =  0   Radius =  0.650 angstrom
                   Q00  =  -0.054211

H          x = -1.700616  y = -0.981825  z =  0.452903 angstrom
           Maximum rank =  0   Radius =  0.325 angstrom
                   Q00  =   0.057198

H          x = -0.416616  y =  0.941175  z = -0.421097 angstrom
           Maximum rank =  0   Radius =  0.325 angstrom
                   Q00  =   0.051026

H          x = -1.104616  y = -3.283825  z = -0.243097 angstrom
           Maximum rank =  0   Radius =  0.325 angstrom
                   Q00  =   0.059031

H          x =  0.769384  y = -3.649825  z = -1.818097 angstrom
           Maximum rank =  0   Radius =  0.325 angstrom
                   Q00  =   0.063869

H          x =  2.664384  y =  0.548175  z = -2.466097 angstrom
           Maximum rank =  0   Radius =  0.325 angstrom
                   Q00  =   0.095077

H          x =  1.904384  y =  1.571175  z = -1.272097 angstrom
           Maximum rank =  0   Radius =  0.325 angstrom
                   Q00  =   0.105489

H          x =  2.048384  y = -1.725825  z = -2.685097 angstrom
           Maximum rank =  0   Radius =  0.325 angstrom
                   Q00  =   0.058345

H          x =  1.215134  y =  1.485365  z = -2.911006 angstrom
           Maximum rank =  0   Radius =  0.325 angstrom
                   Q00  =   0.100751

Total multipoles referred to origin at
           x =   0.000000,  y =    0.000000,  z =    0.000000 angstrom
                   Q00  =  -0.000000

Finished at 15:51:5 on 27 Apr 2020

  DMA results are available in the Python driver through the
	  variable('DMA DISTRIBUTED MULTIPOLES')
  and
	  variable('DMA TOTAL MULTIPOLES')
  commands.

    Psi4 stopped on: Monday, 27 April 2020 03:51PM
    Psi4 wall time for execution: 0:01:50.94

*** Psi4 exiting successfully. Buy a developer a beer!
