                               Psi4 1.3.2 release

  ==> Input File <==

--------------------------------------------------------------------------
import numpy as np
set {scf_type pk
basis cc-pvdz
d_convergence 10
gdma_switch   0
gdma_limit    0
gdma_origin   [ 0.0,  0.0,  0.0 ]
}
molecule test {
    units Angstrom
    0 1
    --
    0 1
    C                2.666356807827472    -2.389279908032860    -1.038516377847483
    C                1.610356807827472    -3.445279908032860    -0.769516377847483
    H                2.197356807827472    -1.413279908032860    -1.155516377847483
    H                3.363356807827472    -2.348279908032860    -0.204516377847483
    H                3.215356807827471    -2.639279908032860    -1.945516377847483
    H                2.116356807827472    -4.405279908032860    -0.729516377847483
    H                0.879469807827472    -3.448151908032860    -1.591584377847483
    H                1.119198807827472    -3.296268908032860     0.203396622152517
    C                1.830356807827472     0.570720091967140     1.158483622152517
    C                1.890356807827472     1.471720091967140     2.387483622152518
    C                0.458356807827472     0.583720091967140     0.516483622152517
    C               -0.679643192172528     0.387720091967140     1.292483622152517
    C                0.306356807827472     0.823720091967140    -0.851516377847483
    C               -1.935643192172528     0.410720091967140     0.713483622152517
    C               -0.954643192172528     0.846720091967140    -1.453516377847483
    C               -2.079643192172528     0.648720091967140    -0.661516377847483
    O               -3.336643192172529     0.648720091967140    -1.207516377847483
    H                2.581356807827472     0.898720091967140     0.437483622152517
    H                2.062356807827472    -0.455279908032860     1.448483622152517
    H                1.173356807827472     1.086720091967140     3.110483622152517
    H               -0.597643192172528     0.182720091967140     2.350483622152518
    H                1.183356807827472     0.975720091967140    -1.463516377847483
    H               -2.809643192172528     0.242720091967140     1.326483622152517
    H               -1.062643192172528     1.017720091967140    -2.515516377847482
    H               -4.016643192172528     0.483720091967140    -0.543516377847483
    H                1.628627807827472     2.508890091967140     2.131003622152517
    H                2.860555807827472     1.394360091967140     2.900055622152518

}
e, wfn = energy('scf', return_wfn=True)
gdma(wfn)
dmavals = variable('DMA DISTRIBUTED MULTIPOLES')
charges = np.array(dmavals)
print(charges)
np.save('SSI-048LEU-074TYR-2-dimer.npy', np.array(charges))--------------------------------------------------------------------------

*** tstart() called on ds3
*** at Tue Apr 28 12:03:22 2020

   => Loading Basis Set <=

    Name: CC-PVDZ
    Role: ORBITAL
    Keyword: BASIS
    atoms 1-2, 9-16  entry C          line   138 file /theoryfs2/ds/metcalf/miniconda2/envs/tf2gpu/share/psi4/basis/cc-pvdz.gbs
    atoms 3-8, 18-27 entry H          line    22 file /theoryfs2/ds/metcalf/miniconda2/envs/tf2gpu/share/psi4/basis/cc-pvdz.gbs
    atoms 17         entry O          line   198 file /theoryfs2/ds/metcalf/miniconda2/envs/tf2gpu/share/psi4/basis/cc-pvdz.gbs

         ---------------------------------------------------------
                                   SCF
               by Justin Turney, Rob Parrish, Andy Simmonett
                          and Daniel G. A. Smith
                              RHF Reference
                        1 Threads,    500 MiB Core
         ---------------------------------------------------------

  ==> Geometry <==

    Molecular point group: c1
    Full point group: C1

    Geometry (in Angstrom), charge = 0, multiplicity = 1:

       Center              X                  Y                   Z               Mass
    ------------   -----------------  -----------------  -----------------  -----------------
         C            2.666356807827    -2.389279908033    -1.038516377847    12.000000000000
         C            1.610356807827    -3.445279908033    -0.769516377847    12.000000000000
         H            2.197356807827    -1.413279908033    -1.155516377847     1.007825032230
         H            3.363356807827    -2.348279908033    -0.204516377847     1.007825032230
         H            3.215356807827    -2.639279908033    -1.945516377847     1.007825032230
         H            2.116356807827    -4.405279908033    -0.729516377847     1.007825032230
         H            0.879469807827    -3.448151908033    -1.591584377847     1.007825032230
         H            1.119198807827    -3.296268908033     0.203396622153     1.007825032230
         C            1.830356807827     0.570720091967     1.158483622153    12.000000000000
         C            1.890356807827     1.471720091967     2.387483622153    12.000000000000
         C            0.458356807827     0.583720091967     0.516483622153    12.000000000000
         C           -0.679643192173     0.387720091967     1.292483622153    12.000000000000
         C            0.306356807827     0.823720091967    -0.851516377847    12.000000000000
         C           -1.935643192173     0.410720091967     0.713483622153    12.000000000000
         C           -0.954643192173     0.846720091967    -1.453516377847    12.000000000000
         C           -2.079643192173     0.648720091967    -0.661516377847    12.000000000000
         O           -3.336643192173     0.648720091967    -1.207516377847    15.994914619570
         H            2.581356807827     0.898720091967     0.437483622153     1.007825032230
         H            2.062356807827    -0.455279908033     1.448483622153     1.007825032230
         H            1.173356807827     1.086720091967     3.110483622153     1.007825032230
         H           -0.597643192173     0.182720091967     2.350483622153     1.007825032230
         H            1.183356807827     0.975720091967    -1.463516377847     1.007825032230
         H           -2.809643192173     0.242720091967     1.326483622153     1.007825032230
         H           -1.062643192173     1.017720091967    -2.515516377847     1.007825032230
         H           -4.016643192173     0.483720091967    -0.543516377847     1.007825032230
         H            1.628627807827     2.508890091967     2.131003622153     1.007825032230
         H            2.860555807827     1.394360091967     2.900055622153     1.007825032230

  Running in c1 symmetry.

  Rotational constants: A =      0.03505  B =      0.02148  C =      0.01564 [cm^-1]
  Rotational constants: A =   1050.64716  B =    644.06128  C =    469.00147 [MHz]
  Nuclear repulsion =  587.153652319190428

  Charge       = 0
  Multiplicity = 1
  Electrons    = 84
  Nalpha       = 42
  Nbeta        = 42

  ==> Algorithm <==

  SCF Algorithm Type is PK.
  DIIS enabled.
  MOM disabled.
  Fractional occupation disabled.
  Guess Type is SAD.
  Energy threshold   = 1.00e-06
  Density threshold  = 1.00e-10
  Integral threshold = 0.00e+00

  ==> Primary Basis <==

  Basis Set: CC-PVDZ
    Blend: CC-PVDZ
    Number of shells: 114
    Number of basis function: 234
    Number of Cartesian functions: 245
    Spherical Harmonics?: true
    Max angular momentum: 2

  ==> Pre-Iterations <==

   -------------------------------------------------------
    Irrep   Nso     Nmo     Nalpha   Nbeta   Ndocc  Nsocc
   -------------------------------------------------------
     A        234     234       0       0       0       0
   -------------------------------------------------------
    Total     234     234      42      42      42       0
   -------------------------------------------------------

  ==> Integral Setup <==

  Using integral reordering PK algorithm.
  Sizing the integral batches needed.
  Building batch lookup table.
   Calculation information:
      Number of atoms:                  27
      Number of AO shells:             114
      Number of primitives:            322
      Number of atomic orbitals:       245
      Number of basis functions:       234

      Integral cutoff                 1.00e-12
      Number of threads:                 1

	Batch   1 pq = [       0,    9405] index = [             0,44231715] size =     44231715
	Batch   2 pq = [    9405,   13301] index = [      44231715,88464951] size =     44233236
	Batch   3 pq = [   13301,   16290] index = [      88464951,132690195] size =     44225244
	Batch   4 pq = [   16290,   18810] index = [     132690195,176917455] size =     44227260
	Batch   5 pq = [   18810,   21030] index = [     176917455,221140965] size =     44223510
	Batch   6 pq = [   21030,   23037] index = [     221140965,265363203] size =     44222238
	Batch   7 pq = [   23037,   24883] index = [     265363203,309594286] size =     44231083
	Batch   8 pq = [   24883,   26601] index = [     309594286,353819901] size =     44225615
	Batch   9 pq = [   26601,   27495] index = [     353819901,378001260] size =     24181359
  Task number: 35
  Buffer size: 11059200
  Buffer per thread: 2
  We computed 20713029 shell quartets total.
  Whereas there are 21487290 unique shell quartets.

  ==> DiskJK: Disk-Based J/K Matrices <==

    J tasked:                  Yes
    K tasked:                  Yes
    wK tasked:                  No
    Memory [MiB]:              375
    Schwarz Cutoff:          1E-12

    OpenMP threads:              1

  Minimum eigenvalue in the overlap matrix is 3.2134410837E-04.
  Using Symmetric Orthogonalization.

  SCF Guess: Superposition of Atomic Densities via on-the-fly atomic UHF.

  ==> Iterations <==

                        Total Energy        Delta E     RMS |[F,P]|

   @RHF iter SAD:  -461.71622958341447   -4.61716e+02   0.00000e+00
   @RHF iter   1:  -462.60385836558805   -8.87629e-01   2.82391e-03 DIIS
   @RHF iter   2:  -462.84508778943177   -2.41229e-01   1.21433e-03 DIIS
   @RHF iter   3:  -462.88581066390230   -4.07229e-02   2.78689e-04 DIIS
   @RHF iter   4:  -462.88915573742236   -3.34507e-03   1.21110e-04 DIIS
   @RHF iter   5:  -462.88962431975938   -4.68582e-04   1.93666e-05 DIIS
   @RHF iter   6:  -462.88964420811789   -1.98884e-05   5.50083e-06 DIIS
   @RHF iter   7:  -462.88964573383703   -1.52572e-06   2.04143e-06 DIIS
   @RHF iter   8:  -462.88964596227686   -2.28440e-07   6.90023e-07 DIIS
   @RHF iter   9:  -462.88964599846599   -3.61891e-08   2.41072e-07 DIIS
   @RHF iter  10:  -462.88964600357065   -5.10465e-09   1.06555e-07 DIIS
   @RHF iter  11:  -462.88964600505938   -1.48873e-09   4.95444e-08 DIIS
   @RHF iter  12:  -462.88964600543454   -3.75167e-10   2.40993e-08 DIIS
   @RHF iter  13:  -462.88964600550810   -7.35554e-11   7.98828e-09 DIIS
   @RHF iter  14:  -462.88964600551435   -6.25278e-12   2.00221e-09 DIIS
   @RHF iter  15:  -462.88964600551662   -2.27374e-12   6.64221e-10 DIIS
   @RHF iter  16:  -462.88964600551628    3.41061e-13   2.22942e-10 DIIS
   @RHF iter  17:  -462.88964600551560    6.82121e-13   9.40839e-11 DIIS
  Energy and wave function converged.

  ==> Post-Iterations <==

    Orbital Energies [Eh]
    ---------------------

    Doubly Occupied:

       1A    -20.582491     2A    -11.301116     3A    -11.239293
       4A    -11.238096     5A    -11.234065     6A    -11.231881
       7A    -11.231657     8A    -11.228844     9A    -11.222298
      10A    -11.213320    11A    -11.211088    12A     -1.395654
      13A     -1.152794    14A     -1.059078    15A     -1.019402
      16A     -1.017238    17A     -0.975621    18A     -0.860730
      19A     -0.843911    20A     -0.831164    21A     -0.790394
      22A     -0.731067    23A     -0.673960    24A     -0.642685
      25A     -0.614243    26A     -0.604123    27A     -0.597559
      28A     -0.595206    29A     -0.583087    30A     -0.581910
      31A     -0.576886    32A     -0.536639    33A     -0.519153
      34A     -0.501867    35A     -0.497578    36A     -0.482961
      37A     -0.480632    38A     -0.474661    39A     -0.473413
      40A     -0.464013    41A     -0.339858    42A     -0.301460

    Virtual:

      43A      0.128375    44A      0.152943    45A      0.177108
      46A      0.179596    47A      0.197081    48A      0.204217
      49A      0.215749    50A      0.236224    51A      0.243431
      52A      0.251151    53A      0.258185    54A      0.268717
      55A      0.274134    56A      0.283208    57A      0.292689
      58A      0.319034    59A      0.326904    60A      0.335437
      61A      0.358482    62A      0.387307    63A      0.399634
      64A      0.416573    65A      0.432148    66A      0.466675
      67A      0.491549    68A      0.497796    69A      0.520200
      70A      0.578128    71A      0.601209    72A      0.606074
      73A      0.608569    74A      0.618756    75A      0.631057
      76A      0.650285    77A      0.664156    78A      0.669479
      79A      0.683045    80A      0.698977    81A      0.709935
      82A      0.724701    83A      0.730691    84A      0.737387
      85A      0.752428    86A      0.769804    87A      0.778021
      88A      0.786206    89A      0.816607    90A      0.842639
      91A      0.845801    92A      0.856518    93A      0.863533
      94A      0.867781    95A      0.875025    96A      0.882327
      97A      0.886668    98A      0.892201    99A      0.897821
     100A      0.900211   101A      0.908555   102A      0.916837
     103A      0.925733   104A      0.937289   105A      0.942180
     106A      0.955782   107A      0.956647   108A      0.960210
     109A      0.996166   110A      1.004871   111A      1.023004
     112A      1.029873   113A      1.065116   114A      1.073644
     115A      1.121731   116A      1.139805   117A      1.144737
     118A      1.147918   119A      1.152296   120A      1.176922
     121A      1.203389   122A      1.236536   123A      1.245480
     124A      1.259785   125A      1.281671   126A      1.285998
     127A      1.296545   128A      1.308768   129A      1.329429
     130A      1.341449   131A      1.363330   132A      1.384420
     133A      1.415970   134A      1.465470   135A      1.484734
     136A      1.487647   137A      1.494309   138A      1.517184
     139A      1.537386   140A      1.570710   141A      1.598294
     142A      1.615810   143A      1.625159   144A      1.675489
     145A      1.685659   146A      1.695651   147A      1.700615
     148A      1.732173   149A      1.742751   150A      1.782510
     151A      1.793861   152A      1.810068   153A      1.831767
     154A      1.859838   155A      1.867860   156A      1.879249
     157A      1.884687   158A      1.892368   159A      1.899653
     160A      1.904020   161A      1.919667   162A      1.923214
     163A      1.933662   164A      1.945012   165A      1.951756
     166A      1.955558   167A      1.963627   168A      1.969068
     169A      1.982977   170A      1.989174   171A      1.990438
     172A      1.996775   173A      2.006611   174A      2.021417
     175A      2.041807   176A      2.055723   177A      2.070113
     178A      2.072568   179A      2.083791   180A      2.098297
     181A      2.111353   182A      2.123578   183A      2.135183
     184A      2.155947   185A      2.190708   186A      2.202065
     187A      2.241852   188A      2.255750   189A      2.271792
     190A      2.302280   191A      2.302772   192A      2.317437
     193A      2.319739   194A      2.354094   195A      2.364952
     196A      2.410609   197A      2.453984   198A      2.455731
     199A      2.464593   200A      2.473357   201A      2.489493
     202A      2.522177   203A      2.539328   204A      2.543971
     205A      2.572671   206A      2.592022   207A      2.592648
     208A      2.639340   209A      2.646347   210A      2.743266
     211A      2.763070   212A      2.772398   213A      2.783920
     214A      2.808047   215A      2.812965   216A      2.856300
     217A      2.863861   218A      2.865037   219A      2.881561
     220A      2.917241   221A      2.945528   222A      2.964206
     223A      2.975806   224A      2.993400   225A      3.034584
     226A      3.092198   227A      3.164610   228A      3.247544
     229A      3.282825   230A      3.340914   231A      3.569688
     232A      3.664246   233A      3.970665   234A      4.184143

    Final Occupation by Irrep:
              A
    DOCC [    42 ]

  @RHF Final Energy:  -462.88964600551560

   => Energetics <=

    Nuclear Repulsion Energy =            587.1536523191904280
    One-Electron Energy =               -1791.7804090173112854
    Two-Electron Energy =                 741.7371106926053699
    Total Energy =                       -462.8896460055156012

Computation Completed

Properties will be evaluated at   0.000000,   0.000000,   0.000000 [a0]

Properties computed using the SCF density matrix

  Nuclear Dipole Moment: [e a0]
     X:    14.8842      Y:    -8.6352      Z:     3.5178

  Electronic Dipole Moment: [e a0]
     X:   -14.9477      Y:     8.5403      Z:    -2.9293

  Dipole Moment: [e a0]
     X:    -0.0635      Y:    -0.0949      Z:     0.5885     Total:     0.5995

  Dipole Moment: [D]
     X:    -0.1613      Y:    -0.2412      Z:     1.4958     Total:     1.5237

*** tstop() called on ds3 at Tue Apr 28 12:07:52 2020
Module time:
	user time   =     150.30 seconds =       2.50 minutes
	system time =      51.79 seconds =       0.86 minutes
	total time  =        270 seconds =       4.50 minutes
Total time:
	user time   =     150.30 seconds =       2.50 minutes
	system time =      51.79 seconds =       0.86 minutes
	total time  =        270 seconds =       4.50 minutes
                                     G D M A

                                 by Anthony Stone

                           version 2.2.06, 22 June 2011

               Distributed Multipoles from Gaussian wavefunctions

Starting at 12:7:52 on 28 Apr 2020

Using SCF density matrix from file ./SSI/SSI-048LEU-074TYR-2-dimer.test.32458.fchk

                         Distributed Multipole Analysis

Standard DMA

Positions and radii in angstrom
Multipole moments in atomic units, ea_0^k for rank k

C          x =  2.666357  y = -2.389280  z = -1.038516 angstrom
           Maximum rank =  0   Radius =  0.650 angstrom
                   Q00  =  -0.235716

C          x =  1.610357  y = -3.445280  z = -0.769516 angstrom
           Maximum rank =  0   Radius =  0.650 angstrom
                   Q00  =  -0.231242

H          x =  2.197357  y = -1.413280  z = -1.155516 angstrom
           Maximum rank =  0   Radius =  0.325 angstrom
                   Q00  =   0.084874

H          x =  3.363357  y = -2.348280  z = -0.204516 angstrom
           Maximum rank =  0   Radius =  0.325 angstrom
                   Q00  =   0.073161

H          x =  3.215357  y = -2.639280  z = -1.945516 angstrom
           Maximum rank =  0   Radius =  0.325 angstrom
                   Q00  =   0.076162

H          x =  2.116357  y = -4.405280  z = -0.729516 angstrom
           Maximum rank =  0   Radius =  0.325 angstrom
                   Q00  =   0.071925

H          x =  0.879470  y = -3.448152  z = -1.591584 angstrom
           Maximum rank =  0   Radius =  0.325 angstrom
                   Q00  =   0.080906

H          x =  1.119199  y = -3.296269  z =  0.203397 angstrom
           Maximum rank =  0   Radius =  0.325 angstrom
                   Q00  =   0.079282

C          x =  1.830357  y =  0.570720  z =  1.158484 angstrom
           Maximum rank =  0   Radius =  0.650 angstrom
                   Q00  =  -0.038162

C          x =  1.890357  y =  1.471720  z =  2.387484 angstrom
           Maximum rank =  0   Radius =  0.650 angstrom
                   Q00  =  -0.237931

C          x =  0.458357  y =  0.583720  z =  0.516484 angstrom
           Maximum rank =  0   Radius =  0.650 angstrom
                   Q00  =  -0.139958

C          x = -0.679643  y =  0.387720  z =  1.292484 angstrom
           Maximum rank =  0   Radius =  0.650 angstrom
                   Q00  =  -0.076854

C          x =  0.306357  y =  0.823720  z = -0.851516 angstrom
           Maximum rank =  0   Radius =  0.650 angstrom
                   Q00  =   0.059877

C          x = -1.935643  y =  0.410720  z =  0.713484 angstrom
           Maximum rank =  0   Radius =  0.650 angstrom
                   Q00  =  -0.151855

C          x = -0.954643  y =  0.846720  z = -1.453516 angstrom
           Maximum rank =  0   Radius =  0.650 angstrom
                   Q00  =  -0.124435

C          x = -2.079643  y =  0.648720  z = -0.661516 angstrom
           Maximum rank =  0   Radius =  0.650 angstrom
                   Q00  =   0.280170

O          x = -3.336643  y =  0.648720  z = -1.207516 angstrom
           Maximum rank =  0   Radius =  0.650 angstrom
                   Q00  =  -0.646551

H          x =  2.581357  y =  0.898720  z =  0.437484 angstrom
           Maximum rank =  0   Radius =  0.325 angstrom
                   Q00  =   0.063580

H          x =  2.062357  y = -0.455280  z =  1.448484 angstrom
           Maximum rank =  0   Radius =  0.325 angstrom
                   Q00  =   0.071706

H          x =  1.173357  y =  1.086720  z =  3.110484 angstrom
           Maximum rank =  0   Radius =  0.325 angstrom
                   Q00  =   0.072237

H          x = -0.597643  y =  0.182720  z =  2.350484 angstrom
           Maximum rank =  0   Radius =  0.325 angstrom
                   Q00  =   0.069678

H          x =  1.183357  y =  0.975720  z = -1.463516 angstrom
           Maximum rank =  0   Radius =  0.325 angstrom
                   Q00  =   0.067207

H          x = -2.809643  y =  0.242720  z =  1.326484 angstrom
           Maximum rank =  0   Radius =  0.325 angstrom
                   Q00  =   0.070280

H          x = -1.062643  y =  1.017720  z = -2.515516 angstrom
           Maximum rank =  0   Radius =  0.325 angstrom
                   Q00  =   0.082525

H          x = -4.016643  y =  0.483720  z = -0.543516 angstrom
           Maximum rank =  0   Radius =  0.325 angstrom
                   Q00  =   0.407882

H          x =  1.628628  y =  2.508890  z =  2.131004 angstrom
           Maximum rank =  0   Radius =  0.325 angstrom
                   Q00  =   0.085825

H          x =  2.860556  y =  1.394360  z =  2.900056 angstrom
           Maximum rank =  0   Radius =  0.325 angstrom
                   Q00  =   0.085427

Total multipoles referred to origin at
           x =   0.000000,  y =    0.000000,  z =    0.000000 angstrom
                   Q00  =  -0.000000

Finished at 12:7:52 on 28 Apr 2020

  DMA results are available in the Python driver through the
	  variable('DMA DISTRIBUTED MULTIPOLES')
  and
	  variable('DMA TOTAL MULTIPOLES')
  commands.

    Psi4 stopped on: Tuesday, 28 April 2020 12:07PM
    Psi4 wall time for execution: 0:04:29.97

*** Psi4 exiting successfully. Buy a developer a beer!
