                               Psi4 1.3.2 release

  ==> Input File <==

--------------------------------------------------------------------------
import numpy as np
set {scf_type pk
basis cc-pvdz
d_convergence 10
gdma_switch   0
gdma_limit    0
gdma_origin   [ 0.0,  0.0,  0.0 ]
}
molecule test {
    units Angstrom
    -1 1
    --
    -1 1
    C                2.224803467489465    -0.385751834969443     2.042465275974156
    O                1.267803467489465    -1.149751834969443     1.328465275974157
    H                0.438803467489466    -0.641751834969443     1.229465275974157
    H                1.860803467489465    -0.214751834969443     3.052465275974157
    H                2.369803467489465     0.570248165030557     1.552465275974157
    H                3.182987467489465    -0.922708834969443     2.102127275974157
    C                0.311803467489466     1.045248165030557    -1.260534724025843
    C               -1.001196532510535     0.373248165030557    -0.890534724025843
    O               -1.137196532510535    -0.078751834969443     0.268465275974157
    O               -1.897196532510535     0.298248165030557    -1.761534724025843
    H                0.980803467489465     1.047248165030557    -0.401534724025843
    H                0.108803467489466     2.084248165030557    -1.527534724025843
    H                0.813185467489466     0.544586165030557    -2.101934724025843

}
e, wfn = energy('scf', return_wfn=True)
gdma(wfn)
dmavals = variable('DMA DISTRIBUTED MULTIPOLES')
charges = np.array(dmavals)
print(charges)
np.save('SSI-141SER-144ASP-1-dimer.npy', np.array(charges))--------------------------------------------------------------------------

*** tstart() called on ds3
*** at Sun Apr 26 22:00:36 2020

   => Loading Basis Set <=

    Name: CC-PVDZ
    Role: ORBITAL
    Keyword: BASIS
    atoms 1, 7-8     entry C          line   138 file /theoryfs2/ds/metcalf/miniconda2/envs/tf2gpu/share/psi4/basis/cc-pvdz.gbs
    atoms 2, 9-10    entry O          line   198 file /theoryfs2/ds/metcalf/miniconda2/envs/tf2gpu/share/psi4/basis/cc-pvdz.gbs
    atoms 3-6, 11-13 entry H          line    22 file /theoryfs2/ds/metcalf/miniconda2/envs/tf2gpu/share/psi4/basis/cc-pvdz.gbs

         ---------------------------------------------------------
                                   SCF
               by Justin Turney, Rob Parrish, Andy Simmonett
                          and Daniel G. A. Smith
                              RHF Reference
                        1 Threads,    500 MiB Core
         ---------------------------------------------------------

  ==> Geometry <==

    Molecular point group: c1
    Full point group: C1

    Geometry (in Angstrom), charge = -1, multiplicity = 1:

       Center              X                  Y                   Z               Mass
    ------------   -----------------  -----------------  -----------------  -----------------
         C            2.224803467489    -0.385751834969     2.042465275974    12.000000000000
         O            1.267803467489    -1.149751834969     1.328465275974    15.994914619570
         H            0.438803467489    -0.641751834969     1.229465275974     1.007825032230
         H            1.860803467489    -0.214751834969     3.052465275974     1.007825032230
         H            2.369803467489     0.570248165031     1.552465275974     1.007825032230
         H            3.182987467489    -0.922708834969     2.102127275974     1.007825032230
         C            0.311803467489     1.045248165031    -1.260534724026    12.000000000000
         C           -1.001196532511     0.373248165031    -0.890534724026    12.000000000000
         O           -1.137196532511    -0.078751834969     0.268465275974    15.994914619570
         O           -1.897196532511     0.298248165031    -1.761534724026    15.994914619570
         H            0.980803467489     1.047248165031    -0.401534724026     1.007825032230
         H            0.108803467489     2.084248165031    -1.527534724026     1.007825032230
         H            0.813185467489     0.544586165031    -2.101934724026     1.007825032230

  Running in c1 symmetry.

  Rotational constants: A =      0.25443  B =      0.04530  C =      0.04059 [cm^-1]
  Rotational constants: A =   7627.66857  B =   1358.20970  C =   1216.78392 [MHz]
  Nuclear repulsion =  229.180639458615303

  Charge       = -1
  Multiplicity = 1
  Electrons    = 50
  Nalpha       = 25
  Nbeta        = 25

  ==> Algorithm <==

  SCF Algorithm Type is PK.
  DIIS enabled.
  MOM disabled.
  Fractional occupation disabled.
  Guess Type is SAD.
  Energy threshold   = 1.00e-06
  Density threshold  = 1.00e-10
  Integral threshold = 0.00e+00

  ==> Primary Basis <==

  Basis Set: CC-PVDZ
    Blend: CC-PVDZ
    Number of shells: 57
    Number of basis function: 119
    Number of Cartesian functions: 125
    Spherical Harmonics?: true
    Max angular momentum: 2

  ==> Pre-Iterations <==

   -------------------------------------------------------
    Irrep   Nso     Nmo     Nalpha   Nbeta   Ndocc  Nsocc
   -------------------------------------------------------
     A        119     119       0       0       0       0
   -------------------------------------------------------
    Total     119     119      25      25      25       0
   -------------------------------------------------------

  ==> Integral Setup <==

  Using integral reordering PK algorithm.
  Sizing the integral batches needed.
  Building batch lookup table.
   Calculation information:
      Number of atoms:                  13
      Number of AO shells:              57
      Number of primitives:            167
      Number of atomic orbitals:       125
      Number of basis functions:       119

      Integral cutoff                 1.00e-12
      Number of threads:                 1

	Batch   1 pq = [       0,    7140] index = [             0,25493370] size =     25493370
  Task number: 3
  Buffer size: 11059200
  Buffer per thread: 2
  We computed 1198058 shell quartets total.
  Whereas there are 1367031 unique shell quartets.

  ==> DiskJK: Disk-Based J/K Matrices <==

    J tasked:                  Yes
    K tasked:                  Yes
    wK tasked:                  No
    Memory [MiB]:              375
    Schwarz Cutoff:          1E-12

    OpenMP threads:              1

  Minimum eigenvalue in the overlap matrix is 5.3545345222E-03.
  Using Symmetric Orthogonalization.

  SCF Guess: Superposition of Atomic Densities via on-the-fly atomic UHF.

  ==> Iterations <==

                        Total Energy        Delta E     RMS |[F,P]|

   @RHF iter SAD:  -340.64116514279937   -3.40641e+02   0.00000e+00
   @RHF iter   1:  -342.07130392733154   -1.43014e+00   6.02495e-03 DIIS
   @RHF iter   2:  -342.24584567625749   -1.74542e-01   3.46680e-03 DIIS
   @RHF iter   3:  -342.30503989074617   -5.91942e-02   4.73609e-04 DIIS
   @RHF iter   4:  -342.30713975175308   -2.09986e-03   1.67172e-04 DIIS
   @RHF iter   5:  -342.30742094817538   -2.81196e-04   3.45597e-05 DIIS
   @RHF iter   6:  -342.30743242355862   -1.14754e-05   1.39804e-05 DIIS
   @RHF iter   7:  -342.30743397488430   -1.55133e-06   3.38230e-06 DIIS
   @RHF iter   8:  -342.30743413523891   -1.60355e-07   1.36523e-06 DIIS
   @RHF iter   9:  -342.30743415489337   -1.96545e-08   5.14987e-07 DIIS
   @RHF iter  10:  -342.30743416027178   -5.37841e-09   1.80206e-07 DIIS
   @RHF iter  11:  -342.30743416100626   -7.34474e-10   4.74529e-08 DIIS
   @RHF iter  12:  -342.30743416105383   -4.75779e-11   1.62749e-08 DIIS
   @RHF iter  13:  -342.30743416105793   -4.09273e-12   4.54784e-09 DIIS
   @RHF iter  14:  -342.30743416105878   -8.52651e-13   1.28264e-09 DIIS
   @RHF iter  15:  -342.30743416105895   -1.70530e-13   4.34790e-10 DIIS
   @RHF iter  16:  -342.30743416105918   -2.27374e-13   1.00536e-10 DIIS
   @RHF iter  17:  -342.30743416105878    3.97904e-13   3.85382e-11 DIIS
  Energy and wave function converged.

  ==> Post-Iterations <==

    Orbital Energies [Eh]
    ---------------------

    Doubly Occupied:

       1A    -20.386602     2A    -20.277838     3A    -20.264175
       4A    -11.147057     5A    -11.126626     6A    -11.054945
       7A     -1.189862     8A     -1.160119     9A     -1.047159
      10A     -0.802530    11A     -0.788641    12A     -0.537336
      13A     -0.507834    14A     -0.483845    15A     -0.452893
      16A     -0.417564    17A     -0.414296    18A     -0.412488
      19A     -0.352451    20A     -0.345181    21A     -0.314041
      22A     -0.291489    23A     -0.195986    24A     -0.181578
      25A     -0.172932

    Virtual:

      26A      0.307112    27A      0.350929    28A      0.373658
      29A      0.383251    30A      0.390157    31A      0.430595
      32A      0.477747    33A      0.515156    34A      0.548027
      35A      0.577431    36A      0.693149    37A      0.737857
      38A      0.758483    39A      0.776336    40A      0.827172
      41A      0.855577    42A      0.882822    43A      0.942612
      44A      0.954387    45A      0.965246    46A      0.994515
      47A      1.018169    48A      1.029834    49A      1.034103
      50A      1.050274    51A      1.058323    52A      1.087418
      53A      1.133264    54A      1.211662    55A      1.259818
      56A      1.304377    57A      1.330631    58A      1.339014
      59A      1.358428    60A      1.387941    61A      1.476472
      62A      1.514912    63A      1.522670    64A      1.595000
      65A      1.598430    66A      1.600785    67A      1.664276
      68A      1.680328    69A      1.710997    70A      1.730807
      71A      1.793591    72A      1.821159    73A      1.838438
      74A      1.844654    75A      1.908644    76A      1.990516
      77A      2.026664    78A      2.038908    79A      2.061505
      80A      2.081224    81A      2.089781    82A      2.112371
      83A      2.130425    84A      2.180456    85A      2.221553
      86A      2.294698    87A      2.305433    88A      2.320861
      89A      2.377317    90A      2.429536    91A      2.448857
      92A      2.492999    93A      2.544993    94A      2.581581
      95A      2.641338    96A      2.678355    97A      2.744264
      98A      2.808483    99A      2.892159   100A      2.900777
     101A      2.912011   102A      2.942196   103A      2.962172
     104A      3.015905   105A      3.237629   106A      3.268497
     107A      3.288745   108A      3.354933   109A      3.458479
     110A      3.558018   111A      3.591928   112A      3.623888
     113A      3.765749   114A      3.775516   115A      3.819828
     116A      4.048245   117A      4.088068   118A      4.187509
     119A      4.261820

    Final Occupation by Irrep:
              A
    DOCC [    25 ]

  @RHF Final Energy:  -342.30743416105878

   => Energetics <=

    Nuclear Repulsion Energy =            229.1806394586153033
    One-Electron Energy =                -934.3252124825555711
    Two-Electron Energy =                 362.8371388628814316
    Total Energy =                       -342.3074341610587794

Computation Completed

Properties will be evaluated at   0.000000,   0.000000,   0.000000 [a0]

Properties computed using the SCF density matrix

  Nuclear Dipole Moment: [e a0]
     X:     9.1367      Y:     2.3084      Z:     3.6605

  Electronic Dipole Moment: [e a0]
     X:    -6.6576      Y:    -1.6556      Z:    -2.4888

  Dipole Moment: [e a0]
     X:     2.4791      Y:     0.6527      Z:     1.1717     Total:     2.8187

  Dipole Moment: [D]
     X:     6.3013      Y:     1.6591      Z:     2.9782     Total:     7.1644

*** tstop() called on ds3 at Sun Apr 26 22:00:51 2020
Module time:
	user time   =      10.21 seconds =       0.17 minutes
	system time =       3.76 seconds =       0.06 minutes
	total time  =         15 seconds =       0.25 minutes
Total time:
	user time   =      10.21 seconds =       0.17 minutes
	system time =       3.76 seconds =       0.06 minutes
	total time  =         15 seconds =       0.25 minutes
                                     G D M A

                                 by Anthony Stone

                           version 2.2.06, 22 June 2011

               Distributed Multipoles from Gaussian wavefunctions

Starting at 22:0:51 on 26 Apr 2020

Using SCF density matrix from file ./SSI/SSI-141SER-144ASP-1-dimer.test.22164.fchk

                         Distributed Multipole Analysis

Standard DMA

Positions and radii in angstrom
Multipole moments in atomic units, ea_0^k for rank k

C          x =  2.224803  y = -0.385752  z =  2.042465 angstrom
           Maximum rank =  0   Radius =  0.650 angstrom
                   Q00  =   0.030847

O          x =  1.267803  y = -1.149752  z =  1.328465 angstrom
           Maximum rank =  0   Radius =  0.650 angstrom
                   Q00  =  -0.656193

H          x =  0.438803  y = -0.641752  z =  1.229465 angstrom
           Maximum rank =  0   Radius =  0.325 angstrom
                   Q00  =   0.491057

H          x =  1.860803  y = -0.214752  z =  3.052465 angstrom
           Maximum rank =  0   Radius =  0.325 angstrom
                   Q00  =   0.033472

H          x =  2.369803  y =  0.570248  z =  1.552465 angstrom
           Maximum rank =  0   Radius =  0.325 angstrom
                   Q00  =   0.030094

H          x =  3.182987  y = -0.922709  z =  2.102127 angstrom
           Maximum rank =  0   Radius =  0.325 angstrom
                   Q00  =   0.067711

C          x =  0.311803  y =  1.045248  z = -1.260535 angstrom
           Maximum rank =  0   Radius =  0.650 angstrom
                   Q00  =  -0.276099

C          x = -1.001197  y =  0.373248  z = -0.890535 angstrom
           Maximum rank =  0   Radius =  0.650 angstrom
                   Q00  =   0.956279

O          x = -1.137197  y = -0.078752  z =  0.268465 angstrom
           Maximum rank =  0   Radius =  0.650 angstrom
                   Q00  =  -0.945429

O          x = -1.897197  y =  0.298248  z = -1.761535 angstrom
           Maximum rank =  0   Radius =  0.650 angstrom
                   Q00  =  -0.915290

H          x =  0.980803  y =  1.047248  z = -0.401535 angstrom
           Maximum rank =  0   Radius =  0.325 angstrom
                   Q00  =   0.034981

H          x =  0.108803  y =  2.084248  z = -1.527535 angstrom
           Maximum rank =  0   Radius =  0.325 angstrom
                   Q00  =   0.068936

H          x =  0.813185  y =  0.544586  z = -2.101935 angstrom
           Maximum rank =  0   Radius =  0.325 angstrom
                   Q00  =   0.079636

Total multipoles referred to origin at
           x =   0.000000,  y =    0.000000,  z =    0.000000 angstrom
                   Q00  =  -1.000000

Finished at 22:0:51 on 26 Apr 2020

  DMA results are available in the Python driver through the
	  variable('DMA DISTRIBUTED MULTIPOLES')
  and
	  variable('DMA TOTAL MULTIPOLES')
  commands.

    Psi4 stopped on: Sunday, 26 April 2020 10:00PM
    Psi4 wall time for execution: 0:00:15.46

*** Psi4 exiting successfully. Buy a developer a beer!
