                               Psi4 1.3.2 release

  ==> Input File <==

--------------------------------------------------------------------------
import numpy as np
set {scf_type pk
basis cc-pvdz
d_convergence 10
gdma_switch   0
gdma_limit    0
gdma_origin   [ 0.0,  0.0,  0.0 ]
}
molecule test {
    units Angstrom
    0 1
    --
    0 1
    C               -1.098712973623573     0.994371970959904     0.650538002296163
    C               -2.509712973623574     0.459371970959904     0.868538002296163
    C               -0.080712973623574     0.558371970959904     1.715538002296163
    H               -0.798712973623574     0.722371970959904    -0.348461997703837
    H               -1.150712973623573     2.082371970959905     0.692538002296163
    H               -2.789712973623574     0.632371970959904     1.907538002296163
    H                0.038287026376426    -0.522628029040096     1.678538002296163
    H                0.878287026376426     1.013371970959904     1.465538002296163
    H               -2.532955973623574    -0.619568029040096     0.655599002296163
    H               -3.210876973623574     1.016431970959904     0.229747002296163
    H               -0.346753973623574     0.854711970959904     2.740918002296163
    C                1.653287026376426    -0.558628029040096    -0.976461997703837
    C                1.945287026376427    -1.401628029040095    -2.211461997703836
    H                2.546287026376426     0.023371970959904    -0.745461997703837
    H                0.880287026376426     0.151371970959904    -1.218461997703837
    H                1.461287026376427    -1.144628029040095    -0.086461997703837
    H                2.737287026376427    -2.107628029040095    -1.961461997703837
    H                1.064007026376427    -1.969852029040095    -2.543818997703836
    H                2.302337026376426    -0.749558029040096    -3.022216997703837

}
e, wfn = energy('scf', return_wfn=True)
gdma(wfn)
dmavals = variable('DMA DISTRIBUTED MULTIPOLES')
charges = np.array(dmavals)
print(charges)
np.save('SSI-099MET-126VAL-1-dimer.npy', np.array(charges))--------------------------------------------------------------------------

*** tstart() called on ds3
*** at Tue Apr 28 13:23:40 2020

   => Loading Basis Set <=

    Name: CC-PVDZ
    Role: ORBITAL
    Keyword: BASIS
    atoms 1-3, 12-13  entry C          line   138 file /theoryfs2/ds/metcalf/miniconda2/envs/tf2gpu/share/psi4/basis/cc-pvdz.gbs
    atoms 4-11, 14-19 entry H          line    22 file /theoryfs2/ds/metcalf/miniconda2/envs/tf2gpu/share/psi4/basis/cc-pvdz.gbs

         ---------------------------------------------------------
                                   SCF
               by Justin Turney, Rob Parrish, Andy Simmonett
                          and Daniel G. A. Smith
                              RHF Reference
                        1 Threads,    500 MiB Core
         ---------------------------------------------------------

  ==> Geometry <==

    Molecular point group: c1
    Full point group: C1

    Geometry (in Angstrom), charge = 0, multiplicity = 1:

       Center              X                  Y                   Z               Mass
    ------------   -----------------  -----------------  -----------------  -----------------
         C           -1.098712973624     0.994371970960     0.650538002296    12.000000000000
         C           -2.509712973624     0.459371970960     0.868538002296    12.000000000000
         C           -0.080712973624     0.558371970960     1.715538002296    12.000000000000
         H           -0.798712973624     0.722371970960    -0.348461997704     1.007825032230
         H           -1.150712973624     2.082371970960     0.692538002296     1.007825032230
         H           -2.789712973624     0.632371970960     1.907538002296     1.007825032230
         H            0.038287026376    -0.522628029040     1.678538002296     1.007825032230
         H            0.878287026376     1.013371970960     1.465538002296     1.007825032230
         H           -2.532955973624    -0.619568029040     0.655599002296     1.007825032230
         H           -3.210876973624     1.016431970960     0.229747002296     1.007825032230
         H           -0.346753973624     0.854711970960     2.740918002296     1.007825032230
         C            1.653287026376    -0.558628029040    -0.976461997704    12.000000000000
         C            1.945287026376    -1.401628029040    -2.211461997704    12.000000000000
         H            2.546287026376     0.023371970960    -0.745461997704     1.007825032230
         H            0.880287026376     0.151371970960    -1.218461997704     1.007825032230
         H            1.461287026376    -1.144628029040    -0.086461997704     1.007825032230
         H            2.737287026376    -2.107628029040    -1.961461997704     1.007825032230
         H            1.064007026376    -1.969852029040    -2.543818997704     1.007825032230
         H            2.302337026376    -0.749558029040    -3.022216997704     1.007825032230

  Running in c1 symmetry.

  Rotational constants: A =      0.24564  B =      0.04346  C =      0.03933 [cm^-1]
  Rotational constants: A =   7364.17011  B =   1302.92993  C =   1179.17359 [MHz]
  Nuclear repulsion =  181.536231854321642

  Charge       = 0
  Multiplicity = 1
  Electrons    = 44
  Nalpha       = 22
  Nbeta        = 22

  ==> Algorithm <==

  SCF Algorithm Type is PK.
  DIIS enabled.
  MOM disabled.
  Fractional occupation disabled.
  Guess Type is SAD.
  Energy threshold   = 1.00e-06
  Density threshold  = 1.00e-10
  Integral threshold = 0.00e+00

  ==> Primary Basis <==

  Basis Set: CC-PVDZ
    Blend: CC-PVDZ
    Number of shells: 72
    Number of basis function: 140
    Number of Cartesian functions: 145
    Spherical Harmonics?: true
    Max angular momentum: 2

  ==> Pre-Iterations <==

   -------------------------------------------------------
    Irrep   Nso     Nmo     Nalpha   Nbeta   Ndocc  Nsocc
   -------------------------------------------------------
     A        140     140       0       0       0       0
   -------------------------------------------------------
    Total     140     140      22      22      22       0
   -------------------------------------------------------

  ==> Integral Setup <==

  Using integral reordering PK algorithm.
  Sizing the integral batches needed.
  Building batch lookup table.
   Calculation information:
      Number of atoms:                  19
      Number of AO shells:              72
      Number of primitives:            180
      Number of atomic orbitals:       145
      Number of basis functions:       140

      Integral cutoff                 1.00e-12
      Number of threads:                 1

	Batch   1 pq = [       0,    9405] index = [             0,44231715] size =     44231715
	Batch   2 pq = [    9405,    9870] index = [      44231715,48713385] size =      4481670
  Task number: 5
  Buffer size: 11059200
  Buffer per thread: 2
  We computed 2944042 shell quartets total.
  Whereas there are 3454506 unique shell quartets.

  ==> DiskJK: Disk-Based J/K Matrices <==

    J tasked:                  Yes
    K tasked:                  Yes
    wK tasked:                  No
    Memory [MiB]:              375
    Schwarz Cutoff:          1E-12

    OpenMP threads:              1

  Minimum eigenvalue in the overlap matrix is 5.3204620284E-03.
  Using Symmetric Orthogonalization.

  SCF Guess: Superposition of Atomic Densities via on-the-fly atomic UHF.

  ==> Iterations <==

                        Total Energy        Delta E     RMS |[F,P]|

   @RHF iter SAD:  -196.42656728680234   -1.96427e+02   0.00000e+00
   @RHF iter   1:  -197.30443557678237   -8.77868e-01   3.80794e-03 DIIS
   @RHF iter   2:  -197.46570891033730   -1.61273e-01   1.62854e-03 DIIS
   @RHF iter   3:  -197.49377601938068   -2.80671e-02   3.27429e-04 DIIS
   @RHF iter   4:  -197.49601204879482   -2.23603e-03   4.87367e-05 DIIS
   @RHF iter   5:  -197.49605115206870   -3.91033e-05   1.49075e-05 DIIS
   @RHF iter   6:  -197.49605450907831   -3.35701e-06   2.45579e-06 DIIS
   @RHF iter   7:  -197.49605461642187   -1.07344e-07   4.51973e-07 DIIS
   @RHF iter   8:  -197.49605462067080   -4.24893e-09   1.11233e-07 DIIS
   @RHF iter   9:  -197.49605462091105   -2.40249e-10   3.47111e-08 DIIS
   @RHF iter  10:  -197.49605462093845   -2.73985e-11   7.19239e-09 DIIS
   @RHF iter  11:  -197.49605462093893   -4.83169e-13   1.40926e-09 DIIS
   @RHF iter  12:  -197.49605462093990   -9.66338e-13   3.01543e-10 DIIS
   @RHF iter  13:  -197.49605462093956    3.41061e-13   8.03394e-11 DIIS
  Energy and wave function converged.

  ==> Post-Iterations <==

    Orbital Energies [Eh]
    ---------------------

    Doubly Occupied:

       1A    -11.218502     2A    -11.216349     3A    -11.215566
       4A    -11.215141     5A    -11.212925     6A     -1.051847
       7A     -1.020202     8A     -0.924479     9A     -0.838291
      10A     -0.795892    11A     -0.627545    12A     -0.606178
      13A     -0.593605    14A     -0.590236    15A     -0.550049
      16A     -0.534869    17A     -0.502054    18A     -0.494139
      19A     -0.481259    20A     -0.469909    21A     -0.464152
      22A     -0.459274

    Virtual:

      23A      0.175298    24A      0.195528    25A      0.220924
      26A      0.226329    27A      0.236583    28A      0.251068
      29A      0.258900    30A      0.274127    31A      0.277125
      32A      0.285030    33A      0.291810    34A      0.302460
      35A      0.330068    36A      0.368893    37A      0.374121
      38A      0.406327    39A      0.432840    40A      0.567117
      41A      0.576456    42A      0.595473    43A      0.601897
      44A      0.613328    45A      0.631965    46A      0.642791
      47A      0.674855    48A      0.696652    49A      0.773778
      50A      0.800282    51A      0.819047    52A      0.853195
      53A      0.865809    54A      0.881706    55A      0.888977
      56A      0.891601    57A      0.897272    58A      0.900371
      59A      0.902862    60A      0.919035    61A      0.921378
      62A      0.933598    63A      0.941209    64A      0.961673
      65A      0.971434    66A      0.979975    67A      0.993367
      68A      1.035916    69A      1.116629    70A      1.121684
      71A      1.140680    72A      1.178538    73A      1.195760
      74A      1.294636    75A      1.384579    76A      1.444719
      77A      1.470595    78A      1.486614    79A      1.501955
      80A      1.532261    81A      1.594051    82A      1.650658
      83A      1.667036    84A      1.681913    85A      1.690486
      86A      1.699580    87A      1.712665    88A      1.835419
      89A      1.861934    90A      1.877085    91A      1.882123
      92A      1.890512    93A      1.910258    94A      1.917943
      95A      1.931390    96A      1.938899    97A      1.946041
      98A      1.954273    99A      1.962101   100A      1.972049
     101A      1.987439   102A      1.988314   103A      2.001180
     104A      2.016018   105A      2.032864   106A      2.051738
     107A      2.065303   108A      2.106275   109A      2.128911
     110A      2.142832   111A      2.178296   112A      2.282857
     113A      2.294343   114A      2.307508   115A      2.331285
     116A      2.360912   117A      2.369037   118A      2.458544
     119A      2.475244   120A      2.502352   121A      2.534791
     122A      2.563293   123A      2.572806   124A      2.605985
     125A      2.609623   126A      2.653292   127A      2.760216
     128A      2.763991   129A      2.765554   130A      2.790768
     131A      2.810059   132A      2.826324   133A      2.841516
     134A      2.880879   135A      2.926792   136A      2.966651
     137A      2.975549   138A      2.987172   139A      3.003195
     140A      3.074835

    Final Occupation by Irrep:
              A
    DOCC [    22 ]

  @RHF Final Energy:  -197.49605462093956

   => Energetics <=

    Nuclear Repulsion Energy =            181.5362318543216418
    One-Electron Energy =                -623.8996493765436071
    Two-Electron Energy =                 244.8673629012824335
    Total Energy =                       -197.4960546209395602

Computation Completed

Properties will be evaluated at   0.000000,   0.000000,   0.000000 [a0]

Properties computed using the SCF density matrix

  Nuclear Dipole Moment: [e a0]
     X:     1.0109      Y:    -0.5789      Z:    -0.5212

  Electronic Dipole Moment: [e a0]
     X:    -0.9696      Y:     0.6183      Z:     0.5090

  Dipole Moment: [e a0]
     X:     0.0414      Y:     0.0394      Z:    -0.0121     Total:     0.0584

  Dipole Moment: [D]
     X:     0.1051      Y:     0.1001      Z:    -0.0309     Total:     0.1484

*** tstop() called on ds3 at Tue Apr 28 13:24:03 2020
Module time:
	user time   =      16.28 seconds =       0.27 minutes
	system time =       6.23 seconds =       0.10 minutes
	total time  =         23 seconds =       0.38 minutes
Total time:
	user time   =      16.28 seconds =       0.27 minutes
	system time =       6.23 seconds =       0.10 minutes
	total time  =         23 seconds =       0.38 minutes
                                     G D M A

                                 by Anthony Stone

                           version 2.2.06, 22 June 2011

               Distributed Multipoles from Gaussian wavefunctions

Starting at 13:24:3 on 28 Apr 2020

Using SCF density matrix from file ./SSI/SSI-099MET-126VAL-1-dimer.test.16014.fchk

                         Distributed Multipole Analysis

Standard DMA

Positions and radii in angstrom
Multipole moments in atomic units, ea_0^k for rank k

C          x = -1.098713  y =  0.994372  z =  0.650538 angstrom
           Maximum rank =  0   Radius =  0.650 angstrom
                   Q00  =  -0.078832

C          x = -2.509713  y =  0.459372  z =  0.868538 angstrom
           Maximum rank =  0   Radius =  0.650 angstrom
                   Q00  =  -0.237814

C          x = -0.080713  y =  0.558372  z =  1.715538 angstrom
           Maximum rank =  0   Radius =  0.650 angstrom
                   Q00  =  -0.255667

H          x = -0.798713  y =  0.722372  z = -0.348462 angstrom
           Maximum rank =  0   Radius =  0.325 angstrom
                   Q00  =   0.057096

H          x = -1.150713  y =  2.082372  z =  0.692538 angstrom
           Maximum rank =  0   Radius =  0.325 angstrom
                   Q00  =   0.039731

H          x = -2.789713  y =  0.632372  z =  1.907538 angstrom
           Maximum rank =  0   Radius =  0.325 angstrom
                   Q00  =   0.073958

H          x =  0.038287  y = -0.522628  z =  1.678538 angstrom
           Maximum rank =  0   Radius =  0.325 angstrom
                   Q00  =   0.073687

H          x =  0.878287  y =  1.013372  z =  1.465538 angstrom
           Maximum rank =  0   Radius =  0.325 angstrom
                   Q00  =   0.085297

H          x = -2.532956  y = -0.619568  z =  0.655599 angstrom
           Maximum rank =  0   Radius =  0.325 angstrom
                   Q00  =   0.075758

H          x = -3.210877  y =  1.016432  z =  0.229747 angstrom
           Maximum rank =  0   Radius =  0.325 angstrom
                   Q00  =   0.082272

H          x = -0.346754  y =  0.854712  z =  2.740918 angstrom
           Maximum rank =  0   Radius =  0.325 angstrom
                   Q00  =   0.083431

C          x =  1.653287  y = -0.558628  z = -0.976462 angstrom
           Maximum rank =  0   Radius =  0.650 angstrom
                   Q00  =  -0.237209

C          x =  1.945287  y = -1.401628  z = -2.211462 angstrom
           Maximum rank =  0   Radius =  0.650 angstrom
                   Q00  =  -0.221143

H          x =  2.546287  y =  0.023372  z = -0.745462 angstrom
           Maximum rank =  0   Radius =  0.325 angstrom
                   Q00  =   0.073354

H          x =  0.880287  y =  0.151372  z = -1.218462 angstrom
           Maximum rank =  0   Radius =  0.325 angstrom
                   Q00  =   0.068562

H          x =  1.461287  y = -1.144628  z = -0.086462 angstrom
           Maximum rank =  0   Radius =  0.325 angstrom
                   Q00  =   0.083106

H          x =  2.737287  y = -2.107628  z = -1.961462 angstrom
           Maximum rank =  0   Radius =  0.325 angstrom
                   Q00  =   0.077331

H          x =  1.064007  y = -1.969852  z = -2.543819 angstrom
           Maximum rank =  0   Radius =  0.325 angstrom
                   Q00  =   0.078089

H          x =  2.302337  y = -0.749558  z = -3.022217 angstrom
           Maximum rank =  0   Radius =  0.325 angstrom
                   Q00  =   0.078993

Total multipoles referred to origin at
           x =   0.000000,  y =    0.000000,  z =    0.000000 angstrom
                   Q00  =  -0.000000

Finished at 13:24:3 on 28 Apr 2020

  DMA results are available in the Python driver through the
	  variable('DMA DISTRIBUTED MULTIPOLES')
  and
	  variable('DMA TOTAL MULTIPOLES')
  commands.

    Psi4 stopped on: Tuesday, 28 April 2020 01:24PM
    Psi4 wall time for execution: 0:00:22.65

*** Psi4 exiting successfully. Buy a developer a beer!
