                               Psi4 1.3.2 release

  ==> Input File <==

--------------------------------------------------------------------------
import numpy as np
set {scf_type pk
basis cc-pvdz
d_convergence 10
gdma_switch   0
gdma_limit    0
gdma_origin   [ 0.0,  0.0,  0.0 ]
}
molecule test {
    units Angstrom
    0 1
    --
    0 1
    C                0.354456432705639     1.495717916372651     0.435564400015623
    C                0.764456432705639     2.766717916372651     1.186564400015623
    H                1.106456432705639     0.718717916372650     0.575564400015623
    H               -0.600543567294361     1.139717916372651     0.823564400015623
    H                0.227456432705639     1.695717916372651    -0.628435599984377
    H                0.041456432705639     3.547717916372651     0.945564400015623
    H                1.764996432705640     3.091354116372651     0.864804400015623
    H                0.758736432705639     2.645166406372651     2.279814400015623
    C               -0.423543567294361    -2.077282083627349    -0.062435599984377
    C               -0.688543567294361    -2.193282083627349    -1.559435599984377
    H                0.525456432705639    -1.585282083627350     0.142564400015623
    H               -1.220543567294361    -1.488282083627350     0.393564400015623
    H               -0.434543567294361    -3.066282083627350     0.388564400015623
    H               -0.826543567294361    -1.182282083627349    -1.945435599984377
    H                0.175526432705639    -2.649297083627349    -2.064845599984376
    H               -1.599183567294361    -2.770184083627349    -1.778355599984377

}
e, wfn = energy('scf', return_wfn=True)
gdma(wfn)
dmavals = variable('DMA DISTRIBUTED MULTIPOLES')
charges = np.array(dmavals)
print(charges)
np.save('SSI-130VAL-162VAL-1-dimer.npy', np.array(charges))--------------------------------------------------------------------------

*** tstart() called on ds3
*** at Mon Apr 27 17:44:08 2020

   => Loading Basis Set <=

    Name: CC-PVDZ
    Role: ORBITAL
    Keyword: BASIS
    atoms 1-2, 9-10  entry C          line   138 file /theoryfs2/ds/metcalf/miniconda2/envs/tf2gpu/share/psi4/basis/cc-pvdz.gbs
    atoms 3-8, 11-16 entry H          line    22 file /theoryfs2/ds/metcalf/miniconda2/envs/tf2gpu/share/psi4/basis/cc-pvdz.gbs

         ---------------------------------------------------------
                                   SCF
               by Justin Turney, Rob Parrish, Andy Simmonett
                          and Daniel G. A. Smith
                              RHF Reference
                        1 Threads,    500 MiB Core
         ---------------------------------------------------------

  ==> Geometry <==

    Molecular point group: c1
    Full point group: C1

    Geometry (in Angstrom), charge = 0, multiplicity = 1:

       Center              X                  Y                   Z               Mass
    ------------   -----------------  -----------------  -----------------  -----------------
         C            0.354456432706     1.495717916373     0.435564400016    12.000000000000
         C            0.764456432706     2.766717916373     1.186564400016    12.000000000000
         H            1.106456432706     0.718717916373     0.575564400016     1.007825032230
         H           -0.600543567294     1.139717916373     0.823564400016     1.007825032230
         H            0.227456432706     1.695717916373    -0.628435599984     1.007825032230
         H            0.041456432706     3.547717916373     0.945564400016     1.007825032230
         H            1.764996432706     3.091354116373     0.864804400016     1.007825032230
         H            0.758736432706     2.645166406373     2.279814400016     1.007825032230
         C           -0.423543567294    -2.077282083627    -0.062435599984    12.000000000000
         C           -0.688543567294    -2.193282083627    -1.559435599984    12.000000000000
         H            0.525456432706    -1.585282083627     0.142564400016     1.007825032230
         H           -1.220543567294    -1.488282083627     0.393564400016     1.007825032230
         H           -0.434543567294    -3.066282083627     0.388564400016     1.007825032230
         H           -0.826543567294    -1.182282083627    -1.945435599984     1.007825032230
         H            0.175526432706    -2.649297083627    -2.064845599984     1.007825032230
         H           -1.599183567294    -2.770184083627    -1.778355599984     1.007825032230

  Running in c1 symmetry.

  Rotational constants: A =      0.60713  B =      0.04597  C =      0.04417 [cm^-1]
  Rotational constants: A =  18201.20639  B =   1378.01296  C =   1324.06703 [MHz]
  Nuclear repulsion =  121.728204402480586

  Charge       = 0
  Multiplicity = 1
  Electrons    = 36
  Nalpha       = 18
  Nbeta        = 18

  ==> Algorithm <==

  SCF Algorithm Type is PK.
  DIIS enabled.
  MOM disabled.
  Fractional occupation disabled.
  Guess Type is SAD.
  Energy threshold   = 1.00e-06
  Density threshold  = 1.00e-10
  Integral threshold = 0.00e+00

  ==> Primary Basis <==

  Basis Set: CC-PVDZ
    Blend: CC-PVDZ
    Number of shells: 60
    Number of basis function: 116
    Number of Cartesian functions: 120
    Spherical Harmonics?: true
    Max angular momentum: 2

  ==> Pre-Iterations <==

   -------------------------------------------------------
    Irrep   Nso     Nmo     Nalpha   Nbeta   Ndocc  Nsocc
   -------------------------------------------------------
     A        116     116       0       0       0       0
   -------------------------------------------------------
    Total     116     116      18      18      18       0
   -------------------------------------------------------

  ==> Integral Setup <==

  Using integral reordering PK algorithm.
  Sizing the integral batches needed.
  Building batch lookup table.
   Calculation information:
      Number of atoms:                  16
      Number of AO shells:              60
      Number of primitives:            148
      Number of atomic orbitals:       120
      Number of basis functions:       116

      Integral cutoff                 1.00e-12
      Number of threads:                 1

	Batch   1 pq = [       0,    6786] index = [             0,23028291] size =     23028291
  Task number: 3
  Buffer size: 11059200
  Buffer per thread: 2
  We computed 1403442 shell quartets total.
  Whereas there are 1675365 unique shell quartets.

  ==> DiskJK: Disk-Based J/K Matrices <==

    J tasked:                  Yes
    K tasked:                  Yes
    wK tasked:                  No
    Memory [MiB]:              375
    Schwarz Cutoff:          1E-12

    OpenMP threads:              1

  Minimum eigenvalue in the overlap matrix is 6.7967292238E-03.
  Using Symmetric Orthogonalization.

  SCF Guess: Superposition of Atomic Densities via on-the-fly atomic UHF.

  ==> Iterations <==

                        Total Energy        Delta E     RMS |[F,P]|

   @RHF iter SAD:  -157.34469421648564   -1.57345e+02   0.00000e+00
   @RHF iter   1:  -158.30712808394748   -9.62434e-01   4.21493e-03 DIIS
   @RHF iter   2:  -158.44071628092578   -1.33588e-01   1.80083e-03 DIIS
   @RHF iter   3:  -158.46423891284019   -2.35226e-02   3.49313e-04 DIIS
   @RHF iter   4:  -158.46606625721836   -1.82734e-03   3.83090e-05 DIIS
   @RHF iter   5:  -158.46608917321538   -2.29160e-05   6.28763e-06 DIIS
   @RHF iter   6:  -158.46608976237962   -5.89164e-07   9.82418e-07 DIIS
   @RHF iter   7:  -158.46608977235195   -9.97233e-09   2.94843e-07 DIIS
   @RHF iter   8:  -158.46608977312110   -7.69148e-10   4.27843e-08 DIIS
   @RHF iter   9:  -158.46608977314929   -2.81943e-11   9.01391e-09 DIIS
   @RHF iter  10:  -158.46608977315097   -1.67688e-12   2.23603e-09 DIIS
   @RHF iter  11:  -158.46608977315071    2.55795e-13   5.16707e-10 DIIS
   @RHF iter  12:  -158.46608977315057    1.42109e-13   1.67803e-10 DIIS
   @RHF iter  13:  -158.46608977315049    8.52651e-14   2.58415e-11 DIIS
  Energy and wave function converged.

  ==> Post-Iterations <==

    Orbital Energies [Eh]
    ---------------------

    Doubly Occupied:

       1A    -11.219914     2A    -11.218197     3A    -11.218070
       4A    -11.214751     5A     -1.018962     6A     -1.016398
       7A     -0.839759     8A     -0.834271     9A     -0.601076
      10A     -0.598331    11A     -0.594864    12A     -0.594157
      13A     -0.506372    14A     -0.500713    15A     -0.489316
      16A     -0.486179    17A     -0.481038    18A     -0.478306

    Virtual:

      19A      0.172926    20A      0.194618    21A      0.227587
      22A      0.228527    23A      0.233118    24A      0.259188
      25A      0.267329    26A      0.275403    27A      0.279030
      28A      0.304755    29A      0.311896    30A      0.361491
      31A      0.395196    32A      0.401310    33A      0.565237
      34A      0.587328    35A      0.594549    36A      0.602362
      37A      0.605788    38A      0.633718    39A      0.683088
      40A      0.689077    41A      0.694470    42A      0.775020
      43A      0.846750    44A      0.856407    45A      0.885924
      46A      0.888621    47A      0.893011    48A      0.893941
      49A      0.902646    50A      0.909424    51A      0.914128
      52A      0.926864    53A      0.957661    54A      0.959033
      55A      0.974663    56A      0.990054    57A      1.118941
      58A      1.125842    59A      1.133452    60A      1.146317
      61A      1.213731    62A      1.261686    63A      1.461169
      64A      1.468655    65A      1.485594    66A      1.495005
      67A      1.575992    68A      1.589365    69A      1.683073
      70A      1.684972    71A      1.693262    72A      1.704058
      73A      1.854391    74A      1.860201    75A      1.870303
      76A      1.880078    77A      1.897617    78A      1.912829
      79A      1.927349    80A      1.928525    81A      1.942372
      82A      1.944407    83A      1.949465    84A      1.955174
      85A      1.962786    86A      1.970581    87A      1.980621
      88A      2.056515    89A      2.085763    90A      2.102064
      91A      2.121439    92A      2.141422    93A      2.299313
      94A      2.306301    95A      2.309065    96A      2.350010
      97A      2.445306    98A      2.448114    99A      2.465704
     100A      2.468965   101A      2.545554   102A      2.556338
     103A      2.577541   104A      2.587432   105A      2.756779
     106A      2.761806   107A      2.779741   108A      2.799404
     109A      2.846970   110A      2.854862   111A      2.862312
     112A      2.872320   113A      2.940103   114A      2.949747
     115A      2.968741   116A      2.976612

    Final Occupation by Irrep:
              A
    DOCC [    18 ]

  @RHF Final Energy:  -158.46608977315049

   => Energetics <=

    Nuclear Repulsion Energy =            121.7282044024805856
    One-Electron Energy =                -452.5672434888270459
    Two-Electron Energy =                 172.3729493131959885
    Total Energy =                       -158.4660897731504861

Computation Completed

Properties will be evaluated at   0.000000,   0.000000,   0.000000 [a0]

Properties computed using the SCF density matrix

  Nuclear Dipole Moment: [e a0]
     X:    -0.0762      Y:     0.0907      Z:    -0.0029

  Electronic Dipole Moment: [e a0]
     X:     0.0668      Y:    -0.0747      Z:     0.0105

  Dipole Moment: [e a0]
     X:    -0.0094      Y:     0.0160      Z:     0.0077     Total:     0.0201

  Dipole Moment: [D]
     X:    -0.0238      Y:     0.0407      Z:     0.0195     Total:     0.0510

*** tstop() called on ds3 at Mon Apr 27 17:44:19 2020
Module time:
	user time   =       7.95 seconds =       0.13 minutes
	system time =       3.35 seconds =       0.06 minutes
	total time  =         11 seconds =       0.18 minutes
Total time:
	user time   =       7.95 seconds =       0.13 minutes
	system time =       3.35 seconds =       0.06 minutes
	total time  =         11 seconds =       0.18 minutes
                                     G D M A

                                 by Anthony Stone

                           version 2.2.06, 22 June 2011

               Distributed Multipoles from Gaussian wavefunctions

Starting at 17:44:19 on 27 Apr 2020

Using SCF density matrix from file ./SSI/SSI-130VAL-162VAL-1-dimer.test.4942.fchk

                         Distributed Multipole Analysis

Standard DMA

Positions and radii in angstrom
Multipole moments in atomic units, ea_0^k for rank k

C          x =  0.354456  y =  1.495718  z =  0.435564 angstrom
           Maximum rank =  0   Radius =  0.650 angstrom
                   Q00  =  -0.235174

C          x =  0.764456  y =  2.766718  z =  1.186564 angstrom
           Maximum rank =  0   Radius =  0.650 angstrom
                   Q00  =  -0.242508

H          x =  1.106456  y =  0.718718  z =  0.575564 angstrom
           Maximum rank =  0   Radius =  0.325 angstrom
                   Q00  =   0.078805

H          x = -0.600544  y =  1.139718  z =  0.823564 angstrom
           Maximum rank =  0   Radius =  0.325 angstrom
                   Q00  =   0.079115

H          x =  0.227456  y =  1.695718  z = -0.628436 angstrom
           Maximum rank =  0   Radius =  0.325 angstrom
                   Q00  =   0.081928

H          x =  0.041456  y =  3.547718  z =  0.945564 angstrom
           Maximum rank =  0   Radius =  0.325 angstrom
                   Q00  =   0.077400

H          x =  1.764996  y =  3.091354  z =  0.864804 angstrom
           Maximum rank =  0   Radius =  0.325 angstrom
                   Q00  =   0.079006

H          x =  0.758736  y =  2.645166  z =  2.279814 angstrom
           Maximum rank =  0   Radius =  0.325 angstrom
                   Q00  =   0.081748

C          x = -0.423544  y = -2.077282  z = -0.062436 angstrom
           Maximum rank =  0   Radius =  0.650 angstrom
                   Q00  =  -0.228295

C          x = -0.688544  y = -2.193282  z = -1.559436 angstrom
           Maximum rank =  0   Radius =  0.650 angstrom
                   Q00  =  -0.242133

H          x =  0.525456  y = -1.585282  z =  0.142564 angstrom
           Maximum rank =  0   Radius =  0.325 angstrom
                   Q00  =   0.083659

H          x = -1.220544  y = -1.488282  z =  0.393564 angstrom
           Maximum rank =  0   Radius =  0.325 angstrom
                   Q00  =   0.076124

H          x = -0.434544  y = -3.066282  z =  0.388564 angstrom
           Maximum rank =  0   Radius =  0.325 angstrom
                   Q00  =   0.076593

H          x = -0.826544  y = -1.182282  z = -1.945436 angstrom
           Maximum rank =  0   Radius =  0.325 angstrom
                   Q00  =   0.075516

H          x =  0.175526  y = -2.649297  z = -2.064846 angstrom
           Maximum rank =  0   Radius =  0.325 angstrom
                   Q00  =   0.077499

H          x = -1.599184  y = -2.770184  z = -1.778356 angstrom
           Maximum rank =  0   Radius =  0.325 angstrom
                   Q00  =   0.080719

Total multipoles referred to origin at
           x =   0.000000,  y =    0.000000,  z =    0.000000 angstrom
                   Q00  =  -0.000000

Finished at 17:44:19 on 27 Apr 2020

  DMA results are available in the Python driver through the
	  variable('DMA DISTRIBUTED MULTIPOLES')
  and
	  variable('DMA TOTAL MULTIPOLES')
  commands.

    Psi4 stopped on: Monday, 27 April 2020 05:44PM
    Psi4 wall time for execution: 0:00:11.30

*** Psi4 exiting successfully. Buy a developer a beer!
