                               Psi4 1.3.2 release

  ==> Input File <==

--------------------------------------------------------------------------
import numpy as np
set {scf_type pk
basis cc-pvdz
d_convergence 10
gdma_switch   0
gdma_limit    0
gdma_origin   [ 0.0,  0.0,  0.0 ]
}
molecule test {
    units Angstrom
    0 1
    --
    0 1
    C               -1.145402166435798    -0.708556878261053     0.334553943232391
    C               -2.444402166435799    -0.027556878261053     0.788553943232391
    C               -1.571402166435798    -1.922556878261052    -0.461446056767609
    H               -0.539402166435799    -0.979556878261053     1.201553943232391
    H               -0.617402166435799    -0.031556878261053    -0.327446056767609
    H               -2.315402166435799     0.486443121738947     1.741553943232391
    H               -2.766402166435799     0.680443121738947     0.027553943232391
    H               -1.449402166435799    -1.770556878261053    -1.533446056767609
    H               -3.177292166435799    -0.844079878261053     0.867051943232391
    H               -2.626292166435799    -2.068293878261052    -0.185830056767609
    H               -1.026212166435799    -2.806981878261053    -0.100122056767609
    C                1.856597833564202     1.166443121738947    -0.625446056767609
    C                3.238597833564202     1.439443121738948    -0.017446056767609
    H                1.268597833564202     0.657443121738947     0.127553943232391
    H                1.371597833564201     2.109443121738948    -0.873446056767609
    H                1.942597833564201     0.558443121738947    -1.522446056767609
    H                3.115597833564201     2.078443121738947     0.858553943232391
    H                3.787597833564202     2.013443121738947    -0.761446056767609
    H                3.817797833564201     0.545419121738947     0.256872943232391

}
e, wfn = energy('scf', return_wfn=True)
gdma(wfn)
dmavals = variable('DMA DISTRIBUTED MULTIPOLES')
charges = np.array(dmavals)
print(charges)
np.save('SSI-105PRO-128ILE-1-dimer.npy', np.array(charges))--------------------------------------------------------------------------

*** tstart() called on ds3
*** at Mon Apr 27 23:25:57 2020

   => Loading Basis Set <=

    Name: CC-PVDZ
    Role: ORBITAL
    Keyword: BASIS
    atoms 1-3, 12-13  entry C          line   138 file /theoryfs2/ds/metcalf/miniconda2/envs/tf2gpu/share/psi4/basis/cc-pvdz.gbs
    atoms 4-11, 14-19 entry H          line    22 file /theoryfs2/ds/metcalf/miniconda2/envs/tf2gpu/share/psi4/basis/cc-pvdz.gbs

         ---------------------------------------------------------
                                   SCF
               by Justin Turney, Rob Parrish, Andy Simmonett
                          and Daniel G. A. Smith
                              RHF Reference
                        1 Threads,    500 MiB Core
         ---------------------------------------------------------

  ==> Geometry <==

    Molecular point group: c1
    Full point group: C1

    Geometry (in Angstrom), charge = 0, multiplicity = 1:

       Center              X                  Y                   Z               Mass
    ------------   -----------------  -----------------  -----------------  -----------------
         C           -1.145402166436    -0.708556878261     0.334553943232    12.000000000000
         C           -2.444402166436    -0.027556878261     0.788553943232    12.000000000000
         C           -1.571402166436    -1.922556878261    -0.461446056768    12.000000000000
         H           -0.539402166436    -0.979556878261     1.201553943232     1.007825032230
         H           -0.617402166436    -0.031556878261    -0.327446056768     1.007825032230
         H           -2.315402166436     0.486443121739     1.741553943232     1.007825032230
         H           -2.766402166436     0.680443121739     0.027553943232     1.007825032230
         H           -1.449402166436    -1.770556878261    -1.533446056768     1.007825032230
         H           -3.177292166436    -0.844079878261     0.867051943232     1.007825032230
         H           -2.626292166436    -2.068293878261    -0.185830056768     1.007825032230
         H           -1.026212166436    -2.806981878261    -0.100122056768     1.007825032230
         C            1.856597833564     1.166443121739    -0.625446056768    12.000000000000
         C            3.238597833564     1.439443121739    -0.017446056768    12.000000000000
         H            1.268597833564     0.657443121739     0.127553943232     1.007825032230
         H            1.371597833564     2.109443121739    -0.873446056768     1.007825032230
         H            1.942597833564     0.558443121739    -1.522446056768     1.007825032230
         H            3.115597833564     2.078443121739     0.858553943232     1.007825032230
         H            3.787597833564     2.013443121739    -0.761446056768     1.007825032230
         H            3.817797833564     0.545419121739     0.256872943232     1.007825032230

  Running in c1 symmetry.

  Rotational constants: A =      0.24886  B =      0.03640  C =      0.03359 [cm^-1]
  Rotational constants: A =   7460.66144  B =   1091.24287  C =   1006.96287 [MHz]
  Nuclear repulsion =  177.175943883823891

  Charge       = 0
  Multiplicity = 1
  Electrons    = 44
  Nalpha       = 22
  Nbeta        = 22

  ==> Algorithm <==

  SCF Algorithm Type is PK.
  DIIS enabled.
  MOM disabled.
  Fractional occupation disabled.
  Guess Type is SAD.
  Energy threshold   = 1.00e-06
  Density threshold  = 1.00e-10
  Integral threshold = 0.00e+00

  ==> Primary Basis <==

  Basis Set: CC-PVDZ
    Blend: CC-PVDZ
    Number of shells: 72
    Number of basis function: 140
    Number of Cartesian functions: 145
    Spherical Harmonics?: true
    Max angular momentum: 2

  ==> Pre-Iterations <==

   -------------------------------------------------------
    Irrep   Nso     Nmo     Nalpha   Nbeta   Ndocc  Nsocc
   -------------------------------------------------------
     A        140     140       0       0       0       0
   -------------------------------------------------------
    Total     140     140      22      22      22       0
   -------------------------------------------------------

  ==> Integral Setup <==

  Using integral reordering PK algorithm.
  Sizing the integral batches needed.
  Building batch lookup table.
   Calculation information:
      Number of atoms:                  19
      Number of AO shells:              72
      Number of primitives:            180
      Number of atomic orbitals:       145
      Number of basis functions:       140

      Integral cutoff                 1.00e-12
      Number of threads:                 1

	Batch   1 pq = [       0,    9405] index = [             0,44231715] size =     44231715
	Batch   2 pq = [    9405,    9870] index = [      44231715,48713385] size =      4481670
  Task number: 5
  Buffer size: 11059200
  Buffer per thread: 2
  We computed 2743137 shell quartets total.
  Whereas there are 3454506 unique shell quartets.

  ==> DiskJK: Disk-Based J/K Matrices <==

    J tasked:                  Yes
    K tasked:                  Yes
    wK tasked:                  No
    Memory [MiB]:              375
    Schwarz Cutoff:          1E-12

    OpenMP threads:              1

  Minimum eigenvalue in the overlap matrix is 4.5921437561E-03.
  Using Symmetric Orthogonalization.

  SCF Guess: Superposition of Atomic Densities via on-the-fly atomic UHF.

  ==> Iterations <==

                        Total Energy        Delta E     RMS |[F,P]|

   @RHF iter SAD:  -196.49113842913053   -1.96491e+02   0.00000e+00
   @RHF iter   1:  -197.28750827103880   -7.96370e-01   3.83746e-03 DIIS
   @RHF iter   2:  -197.44848297357572   -1.60975e-01   1.65207e-03 DIIS
   @RHF iter   3:  -197.47723357841193   -2.87506e-02   3.26879e-04 DIIS
   @RHF iter   4:  -197.47943772454244   -2.20415e-03   4.95701e-05 DIIS
   @RHF iter   5:  -197.47947904983661   -4.13253e-05   1.54555e-05 DIIS
   @RHF iter   6:  -197.47948283423844   -3.78440e-06   2.64833e-06 DIIS
   @RHF iter   7:  -197.47948296763104   -1.33393e-07   5.03706e-07 DIIS
   @RHF iter   8:  -197.47948297305427   -5.42323e-09   1.15825e-07 DIIS
   @RHF iter   9:  -197.47948297334389   -2.89617e-10   3.70208e-08 DIIS
   @RHF iter  10:  -197.47948297337339   -2.95017e-11   8.54205e-09 DIIS
   @RHF iter  11:  -197.47948297337501   -1.62004e-12   1.79775e-09 DIIS
   @RHF iter  12:  -197.47948297337507   -5.68434e-14   3.93935e-10 DIIS
   @RHF iter  13:  -197.47948297337450    5.68434e-13   8.25127e-11 DIIS
  Energy and wave function converged.

  ==> Post-Iterations <==

    Orbital Energies [Eh]
    ---------------------

    Doubly Occupied:

       1A    -11.217282     2A    -11.214844     3A    -11.213128
       4A    -11.212552     5A    -11.211506     6A     -1.061912
       7A     -1.017781     8A     -0.914738     9A     -0.838418
      10A     -0.797376    11A     -0.634644    12A     -0.610964
      13A     -0.599691    14A     -0.596906    15A     -0.541624
      16A     -0.515888    17A     -0.503357    18A     -0.491282
      19A     -0.487437    20A     -0.472987    21A     -0.460143
      22A     -0.454364

    Virtual:

      23A      0.177716    24A      0.192803    25A      0.210605
      26A      0.229815    27A      0.230941    28A      0.249646
      29A      0.255933    30A      0.264883    31A      0.278349
      32A      0.285510    33A      0.291605    34A      0.314778
      35A      0.324294    36A      0.339477    37A      0.383719
      38A      0.429007    39A      0.439533    40A      0.566128
      41A      0.581777    42A      0.603952    43A      0.606068
      44A      0.623834    45A      0.654729    46A      0.659316
      47A      0.662089    48A      0.696691    49A      0.754886
      50A      0.780684    51A      0.810517    52A      0.852878
      53A      0.860910    54A      0.867027    55A      0.883874
      56A      0.890348    57A      0.894530    58A      0.899553
      59A      0.903043    60A      0.911501    61A      0.913677
      62A      0.921520    63A      0.926310    64A      0.942939
      65A      0.952302    66A      0.959234    67A      0.997347
      68A      1.026483    69A      1.075218    70A      1.095384
      71A      1.129390    72A      1.141271    73A      1.196256
      74A      1.277689    75A      1.403253    76A      1.457774
      77A      1.479272    78A      1.498671    79A      1.508482
      80A      1.586735    81A      1.598267    82A      1.628990
      83A      1.652190    84A      1.683828    85A      1.695704
      86A      1.719815    87A      1.731604    88A      1.795128
      89A      1.847841    90A      1.871446    91A      1.873850
      92A      1.877479    93A      1.890685    94A      1.899877
      95A      1.922760    96A      1.935348    97A      1.938650
      98A      1.950631    99A      1.959149   100A      1.960292
     101A      1.979482   102A      1.987017   103A      2.017782
     104A      2.021381   105A      2.045772   106A      2.052956
     107A      2.059231   108A      2.101588   109A      2.148570
     110A      2.190349   111A      2.242914   112A      2.278578
     113A      2.295992   114A      2.325290   115A      2.333187
     116A      2.358094   117A      2.405380   118A      2.408651
     119A      2.455927   120A      2.484952   121A      2.511198
     122A      2.547065   123A      2.563602   124A      2.600320
     125A      2.663435   126A      2.711238   127A      2.757864
     128A      2.770291   129A      2.773627   130A      2.792686
     131A      2.803987   132A      2.826965   133A      2.834270
     134A      2.854734   135A      2.866723   136A      2.904157
     137A      2.934371   138A      2.947042   139A      2.975264
     140A      3.074986

    Final Occupation by Irrep:
              A
    DOCC [    22 ]

  @RHF Final Energy:  -197.47948297337450

   => Energetics <=

    Nuclear Repulsion Energy =            177.1759438838238907
    One-Electron Energy =                -615.1732053551369290
    Two-Electron Energy =                 240.5177784979385365
    Total Energy =                       -197.4794829733745019

Computation Completed

Properties will be evaluated at   0.000000,   0.000000,   0.000000 [a0]

Properties computed using the SCF density matrix

  Nuclear Dipole Moment: [e a0]
     X:     0.7368      Y:     0.5892      Z:    -0.2095

  Electronic Dipole Moment: [e a0]
     X:    -0.7131      Y:    -0.5626      Z:     0.2101

  Dipole Moment: [e a0]
     X:     0.0237      Y:     0.0266      Z:     0.0005     Total:     0.0357

  Dipole Moment: [D]
     X:     0.0603      Y:     0.0677      Z:     0.0014     Total:     0.0907

*** tstop() called on ds3 at Mon Apr 27 23:26:24 2020
Module time:
	user time   =      19.56 seconds =       0.33 minutes
	system time =       8.56 seconds =       0.14 minutes
	total time  =         27 seconds =       0.45 minutes
Total time:
	user time   =      19.56 seconds =       0.33 minutes
	system time =       8.56 seconds =       0.14 minutes
	total time  =         27 seconds =       0.45 minutes
                                     G D M A

                                 by Anthony Stone

                           version 2.2.06, 22 June 2011

               Distributed Multipoles from Gaussian wavefunctions

Starting at 23:26:24 on 27 Apr 2020

Using SCF density matrix from file ./SSI/SSI-105PRO-128ILE-1-dimer.test.2783.fchk

                         Distributed Multipole Analysis

Standard DMA

Positions and radii in angstrom
Multipole moments in atomic units, ea_0^k for rank k

C          x = -1.145402  y = -0.708557  z =  0.334554 angstrom
           Maximum rank =  0   Radius =  0.650 angstrom
                   Q00  =  -0.133951

C          x = -2.444402  y = -0.027557  z =  0.788554 angstrom
           Maximum rank =  0   Radius =  0.650 angstrom
                   Q00  =  -0.207505

C          x = -1.571402  y = -1.922557  z = -0.461446 angstrom
           Maximum rank =  0   Radius =  0.650 angstrom
                   Q00  =  -0.236308

H          x = -0.539402  y = -0.979557  z =  1.201554 angstrom
           Maximum rank =  0   Radius =  0.325 angstrom
                   Q00  =   0.053674

H          x = -0.617402  y = -0.031557  z = -0.327446 angstrom
           Maximum rank =  0   Radius =  0.325 angstrom
                   Q00  =   0.065217

H          x = -2.315402  y =  0.486443  z =  1.741554 angstrom
           Maximum rank =  0   Radius =  0.325 angstrom
                   Q00  =   0.081061

H          x = -2.766402  y =  0.680443  z =  0.027554 angstrom
           Maximum rank =  0   Radius =  0.325 angstrom
                   Q00  =   0.084652

H          x = -1.449402  y = -1.770557  z = -1.533446 angstrom
           Maximum rank =  0   Radius =  0.325 angstrom
                   Q00  =   0.089071

H          x = -3.177292  y = -0.844080  z =  0.867052 angstrom
           Maximum rank =  0   Radius =  0.325 angstrom
                   Q00  =   0.052319

H          x = -2.626292  y = -2.068294  z = -0.185830 angstrom
           Maximum rank =  0   Radius =  0.325 angstrom
                   Q00  =   0.064258

H          x = -1.026212  y = -2.806982  z = -0.100122 angstrom
           Maximum rank =  0   Radius =  0.325 angstrom
                   Q00  =   0.083714

C          x =  1.856598  y =  1.166443  z = -0.625446 angstrom
           Maximum rank =  0   Radius =  0.650 angstrom
                   Q00  =  -0.241749

C          x =  3.238598  y =  1.439443  z = -0.017446 angstrom
           Maximum rank =  0   Radius =  0.650 angstrom
                   Q00  =  -0.233206

H          x =  1.268598  y =  0.657443  z =  0.127554 angstrom
           Maximum rank =  0   Radius =  0.325 angstrom
                   Q00  =   0.082274

H          x =  1.371598  y =  2.109443  z = -0.873446 angstrom
           Maximum rank =  0   Radius =  0.325 angstrom
                   Q00  =   0.080108

H          x =  1.942598  y =  0.558443  z = -1.522446 angstrom
           Maximum rank =  0   Radius =  0.325 angstrom
                   Q00  =   0.079859

H          x =  3.115598  y =  2.078443  z =  0.858554 angstrom
           Maximum rank =  0   Radius =  0.325 angstrom
                   Q00  =   0.078269

H          x =  3.787598  y =  2.013443  z = -0.761446 angstrom
           Maximum rank =  0   Radius =  0.325 angstrom
                   Q00  =   0.074138

H          x =  3.817798  y =  0.545419  z =  0.256873 angstrom
           Maximum rank =  0   Radius =  0.325 angstrom
                   Q00  =   0.084107

Total multipoles referred to origin at
           x =   0.000000,  y =    0.000000,  z =    0.000000 angstrom
                   Q00  =  -0.000000

Finished at 23:26:24 on 27 Apr 2020

  DMA results are available in the Python driver through the
	  variable('DMA DISTRIBUTED MULTIPOLES')
  and
	  variable('DMA TOTAL MULTIPOLES')
  commands.

    Psi4 stopped on: Monday, 27 April 2020 11:26PM
    Psi4 wall time for execution: 0:00:27.32

*** Psi4 exiting successfully. Buy a developer a beer!
