                               Psi4 1.3.2 release

  ==> Input File <==

--------------------------------------------------------------------------
import numpy as np
set {scf_type pk
basis cc-pvdz
d_convergence 10
gdma_switch   0
gdma_limit    0
gdma_origin   [ 0.0,  0.0,  0.0 ]
}
molecule test {
    units Angstrom
    0 1
    --
    0 1
    C               -0.448542524286075    -2.701200557776620     1.104975046982658
    C               -1.090542524286075    -0.322200557776620     0.487975046982658
    C               -0.212542524286075    -1.245200557776621     0.935975046982658
    C                0.808457475713925     0.808799442223380     0.880975046982658
    C                1.016457475713925    -0.544200557776620     1.216975046982658
    C                1.795457475713925     1.770799442223379     1.039975046982658
    C                2.275457475713925    -0.942200557776620     1.673975046982658
    C                3.017457475713925     1.355799442223380     1.508975046982658
    C                3.262457475713925     0.016799442223380     1.827975046982658
    N               -0.486542524286075     0.908799442223380     0.459975046982658
    H               -2.112542524286075    -0.506200557776621     0.182975046982658
    H               -0.956542524286075     1.774799442223380     0.178975046982658
    H               -0.312542524286075    -2.943200557776620     2.158975046982658
    H                0.321457475713925    -3.228200557776621     0.540975046982658
    H                1.607457475713925     2.803799442223379     0.786975046982658
    H                2.464457475713925    -1.978200557776620     1.913975046982658
    H                3.813457475713925     2.078799442223380     1.624975046982658
    H                4.243457475713925    -0.277200557776620     2.177975046982658
    H               -1.433412524286074    -3.060710557776620     0.772125046982658
    C               -2.921542524286075     0.534799442223380    -2.762024953017342
    C               -2.181542524286075    -0.767200557776620    -3.074024953017342
    C               -3.483542524286075     1.216799442223379    -4.008024953017342
    H               -3.729542524286075     0.333799442223380    -2.057024953017342
    H               -2.220542524286075     1.215799442223380    -2.276024953017342
    H               -1.795542524286075    -1.173200557776621    -2.139024953017342
    H               -1.327542524286075    -0.544200557776620    -3.715024953017342
    H               -2.668542524286075     1.507799442223379    -4.674024953017343
    H               -4.157542524286074     0.540799442223380    -4.535024953017342
    H               -2.801782524286075    -1.531240557776621    -3.565494953017342
    H               -4.052692524286075     2.104209442223380    -3.694064953017342

}
e, wfn = energy('scf', return_wfn=True)
gdma(wfn)
dmavals = variable('DMA DISTRIBUTED MULTIPOLES')
charges = np.array(dmavals)
print(charges)
np.save('SSI-097TRP-145LYS-1-dimer.npy', np.array(charges))--------------------------------------------------------------------------

*** tstart() called on ds3
*** at Mon Apr 27 12:49:56 2020

   => Loading Basis Set <=

    Name: CC-PVDZ
    Role: ORBITAL
    Keyword: BASIS
    atoms 1-9, 20-22   entry C          line   138 file /theoryfs2/ds/metcalf/miniconda2/envs/tf2gpu/share/psi4/basis/cc-pvdz.gbs
    atoms 10           entry N          line   168 file /theoryfs2/ds/metcalf/miniconda2/envs/tf2gpu/share/psi4/basis/cc-pvdz.gbs
    atoms 11-19, 23-30 entry H          line    22 file /theoryfs2/ds/metcalf/miniconda2/envs/tf2gpu/share/psi4/basis/cc-pvdz.gbs

         ---------------------------------------------------------
                                   SCF
               by Justin Turney, Rob Parrish, Andy Simmonett
                          and Daniel G. A. Smith
                              RHF Reference
                        1 Threads,    500 MiB Core
         ---------------------------------------------------------

  ==> Geometry <==

    Molecular point group: c1
    Full point group: C1

    Geometry (in Angstrom), charge = 0, multiplicity = 1:

       Center              X                  Y                   Z               Mass
    ------------   -----------------  -----------------  -----------------  -----------------
         C           -0.448542524286    -2.701200557777     1.104975046983    12.000000000000
         C           -1.090542524286    -0.322200557777     0.487975046983    12.000000000000
         C           -0.212542524286    -1.245200557777     0.935975046983    12.000000000000
         C            0.808457475714     0.808799442223     0.880975046983    12.000000000000
         C            1.016457475714    -0.544200557777     1.216975046983    12.000000000000
         C            1.795457475714     1.770799442223     1.039975046983    12.000000000000
         C            2.275457475714    -0.942200557777     1.673975046983    12.000000000000
         C            3.017457475714     1.355799442223     1.508975046983    12.000000000000
         C            3.262457475714     0.016799442223     1.827975046983    12.000000000000
         N           -0.486542524286     0.908799442223     0.459975046983    14.003074004430
         H           -2.112542524286    -0.506200557777     0.182975046983     1.007825032230
         H           -0.956542524286     1.774799442223     0.178975046983     1.007825032230
         H           -0.312542524286    -2.943200557777     2.158975046983     1.007825032230
         H            0.321457475714    -3.228200557777     0.540975046983     1.007825032230
         H            1.607457475714     2.803799442223     0.786975046983     1.007825032230
         H            2.464457475714    -1.978200557777     1.913975046983     1.007825032230
         H            3.813457475714     2.078799442223     1.624975046983     1.007825032230
         H            4.243457475714    -0.277200557777     2.177975046983     1.007825032230
         H           -1.433412524286    -3.060710557777     0.772125046983     1.007825032230
         C           -2.921542524286     0.534799442223    -2.762024953017    12.000000000000
         C           -2.181542524286    -0.767200557777    -3.074024953017    12.000000000000
         C           -3.483542524286     1.216799442223    -4.008024953017    12.000000000000
         H           -3.729542524286     0.333799442223    -2.057024953017     1.007825032230
         H           -2.220542524286     1.215799442223    -2.276024953017     1.007825032230
         H           -1.795542524286    -1.173200557777    -2.139024953017     1.007825032230
         H           -1.327542524286    -0.544200557777    -3.715024953017     1.007825032230
         H           -2.668542524286     1.507799442223    -4.674024953017     1.007825032230
         H           -4.157542524286     0.540799442223    -4.535024953017     1.007825032230
         H           -2.801782524286    -1.531240557777    -3.565494953017     1.007825032230
         H           -4.052692524286     2.104209442223    -3.694064953017     1.007825032230

  Running in c1 symmetry.

  Rotational constants: A =      0.04336  B =      0.01154  C =      0.00985 [cm^-1]
  Rotational constants: A =   1299.87567  B =    345.82232  C =    295.34184 [MHz]
  Nuclear repulsion =  735.284451729911780

  Charge       = 0
  Multiplicity = 1
  Electrons    = 96
  Nalpha       = 48
  Nbeta        = 48

  ==> Algorithm <==

  SCF Algorithm Type is PK.
  DIIS enabled.
  MOM disabled.
  Fractional occupation disabled.
  Guess Type is SAD.
  Energy threshold   = 1.00e-06
  Density threshold  = 1.00e-10
  Integral threshold = 0.00e+00

  ==> Primary Basis <==

  Basis Set: CC-PVDZ
    Blend: CC-PVDZ
    Number of shells: 129
    Number of basis function: 267
    Number of Cartesian functions: 280
    Spherical Harmonics?: true
    Max angular momentum: 2

  ==> Pre-Iterations <==

   -------------------------------------------------------
    Irrep   Nso     Nmo     Nalpha   Nbeta   Ndocc  Nsocc
   -------------------------------------------------------
     A        267     267       0       0       0       0
   -------------------------------------------------------
    Total     267     267      48      48      48       0
   -------------------------------------------------------

  ==> Integral Setup <==

  Using integral reordering PK algorithm.
  Sizing the integral batches needed.
  Building batch lookup table.
   Calculation information:
      Number of atoms:                  30
      Number of AO shells:             129
      Number of primitives:            371
      Number of atomic orbitals:       280
      Number of basis functions:       267

      Integral cutoff                 1.00e-12
      Number of threads:                 1

	Batch   1 pq = [       0,    9405] index = [             0,44231715] size =     44231715
	Batch   2 pq = [    9405,   13301] index = [      44231715,88464951] size =     44233236
	Batch   3 pq = [   13301,   16290] index = [      88464951,132690195] size =     44225244
	Batch   4 pq = [   16290,   18810] index = [     132690195,176917455] size =     44227260
	Batch   5 pq = [   18810,   21030] index = [     176917455,221140965] size =     44223510
	Batch   6 pq = [   21030,   23037] index = [     221140965,265363203] size =     44222238
	Batch   7 pq = [   23037,   24883] index = [     265363203,309594286] size =     44231083
	Batch   8 pq = [   24883,   26601] index = [     309594286,353819901] size =     44225615
	Batch   9 pq = [   26601,   28214] index = [     353819901,398029005] size =     44209104
	Batch  10 pq = [   28214,   29740] index = [     398029005,442248670] size =     44219665
	Batch  11 pq = [   29740,   31191] index = [     442248670,486454836] size =     44206166
	Batch  12 pq = [   31191,   32578] index = [     486454836,530679331] size =     44224495
	Batch  13 pq = [   32578,   33908] index = [     530679331,574893186] size =     44213855
	Batch  14 pq = [   33908,   35188] index = [     574893186,619115266] size =     44222080
	Batch  15 pq = [   35188,   35778] index = [     619115266,640050531] size =     20935265
  Task number: 58
  Buffer size: 11059200
  Buffer per thread: 2
  We computed 30376627 shell quartets total.
  Whereas there are 35158305 unique shell quartets.

  ==> DiskJK: Disk-Based J/K Matrices <==

    J tasked:                  Yes
    K tasked:                  Yes
    wK tasked:                  No
    Memory [MiB]:              375
    Schwarz Cutoff:          1E-12

    OpenMP threads:              1

  Minimum eigenvalue in the overlap matrix is 2.3880068248E-04.
  Using Symmetric Orthogonalization.

  SCF Guess: Superposition of Atomic Densities via on-the-fly atomic UHF.

  ==> Iterations <==

                        Total Energy        Delta E     RMS |[F,P]|

   @RHF iter SAD:  -518.15660560928802   -5.18157e+02   0.00000e+00
   @RHF iter   1:  -518.49182653844423   -3.35221e-01   2.51932e-03 DIIS
   @RHF iter   2:  -518.75393182352059   -2.62105e-01   1.12330e-03 DIIS
   @RHF iter   3:  -518.80145394581757   -4.75221e-02   2.82734e-04 DIIS
   @RHF iter   4:  -518.80557184417739   -4.11790e-03   1.28466e-04 DIIS
   @RHF iter   5:  -518.80622916676134   -6.57323e-04   1.94961e-05 DIIS
   @RHF iter   6:  -518.80626008481954   -3.09181e-05   8.50332e-06 DIIS
   @RHF iter   7:  -518.80626619240900   -6.10759e-06   3.38967e-06 DIIS
   @RHF iter   8:  -518.80626777772864   -1.58532e-06   1.40428e-06 DIIS
   @RHF iter   9:  -518.80626810743888   -3.29710e-07   6.11874e-07 DIIS
   @RHF iter  10:  -518.80626817289021   -6.54513e-08   2.67312e-07 DIIS
   @RHF iter  11:  -518.80626818839642   -1.55062e-08   1.03862e-07 DIIS
   @RHF iter  12:  -518.80626819057045   -2.17403e-09   3.64079e-08 DIIS
   @RHF iter  13:  -518.80626819074462   -1.74168e-10   9.39834e-09 DIIS
   @RHF iter  14:  -518.80626819074928   -4.66116e-12   3.20158e-09 DIIS
   @RHF iter  15:  -518.80626819075121   -1.93268e-12   1.57403e-09 DIIS
   @RHF iter  16:  -518.80626819075678   -5.57066e-12   8.64896e-10 DIIS
   @RHF iter  17:  -518.80626819075439    2.38742e-12   3.28955e-10 DIIS
   @RHF iter  18:  -518.80626819075189    2.50111e-12   1.29213e-10 DIIS
   @RHF iter  19:  -518.80626819075712   -5.22959e-12   4.55468e-11 DIIS
  Energy and wave function converged.

  ==> Post-Iterations <==

    Orbital Energies [Eh]
    ---------------------

    Doubly Occupied:

       1A    -15.599184     2A    -11.261830     3A    -11.259812
       4A    -11.229765     5A    -11.228807     6A    -11.227286
       7A    -11.226090     8A    -11.224912     9A    -11.220632
      10A    -11.219457    11A    -11.218183    12A    -11.216569
      13A    -11.215320    14A     -1.296639    15A     -1.131686
      16A     -1.074843    17A     -1.057378    18A     -0.999262
      19A     -0.989491    20A     -0.932335    21A     -0.927642
      22A     -0.840978    23A     -0.803077    24A     -0.800714
      25A     -0.753034    26A     -0.717973    27A     -0.662439
      28A     -0.644129    29A     -0.629833    30A     -0.603403
      31A     -0.598839    32A     -0.592393    33A     -0.590717
      34A     -0.571846    35A     -0.554220    36A     -0.551484
      37A     -0.536608    38A     -0.535087    39A     -0.526274
      40A     -0.494983    41A     -0.477771    42A     -0.473982
      43A     -0.472669    44A     -0.469214    45A     -0.463299
      46A     -0.371342    47A     -0.295324    48A     -0.277043

    Virtual:

      49A      0.127327    50A      0.162935    51A      0.169948
      52A      0.181820    53A      0.192981    54A      0.203253
      55A      0.213288    56A      0.224462    57A      0.231888
      58A      0.236847    59A      0.242678    60A      0.260176
      61A      0.263055    62A      0.270038    63A      0.283264
      64A      0.285828    65A      0.292228    66A      0.301073
      67A      0.313765    68A      0.325980    69A      0.363926
      70A      0.380450    71A      0.387340    72A      0.411504
      73A      0.419038    74A      0.430239    75A      0.446976
      76A      0.474834    77A      0.483482    78A      0.497360
      79A      0.510978    80A      0.572701    81A      0.596098
      82A      0.600764    83A      0.609198    84A      0.613019
      85A      0.623859    86A      0.629836    87A      0.649938
      88A      0.675485    89A      0.677485    90A      0.689046
      91A      0.710704    92A      0.720724    93A      0.733150
      94A      0.739946    95A      0.741126    96A      0.748955
      97A      0.752180    98A      0.765447    99A      0.779258
     100A      0.784249   101A      0.796835   102A      0.801532
     103A      0.821271   104A      0.822188   105A      0.834070
     106A      0.837655   107A      0.866542   108A      0.868501
     109A      0.874994   110A      0.878074   111A      0.890462
     112A      0.892991   113A      0.895109   114A      0.897322
     115A      0.900894   116A      0.904848   117A      0.912592
     118A      0.918673   119A      0.924353   120A      0.937448
     121A      0.948598   122A      0.962295   123A      0.967025
     124A      0.979798   125A      0.985193   126A      0.998248
     127A      1.022793   128A      1.032440   129A      1.070196
     130A      1.094187   131A      1.100564   132A      1.115370
     133A      1.125812   134A      1.132252   135A      1.140792
     136A      1.161112   137A      1.164856   138A      1.172931
     139A      1.206741   140A      1.212217   141A      1.233837
     142A      1.235532   143A      1.253753   144A      1.258198
     145A      1.277158   146A      1.301851   147A      1.308988
     148A      1.332315   149A      1.337515   150A      1.365744
     151A      1.373069   152A      1.382822   153A      1.413195
     154A      1.443718   155A      1.459998   156A      1.476540
     157A      1.526236   158A      1.534377   159A      1.574225
     160A      1.585413   161A      1.601079   162A      1.628711
     163A      1.642878   164A      1.649752   165A      1.661116
     166A      1.678604   167A      1.683005   168A      1.689055
     169A      1.690757   170A      1.697216   171A      1.750076
     172A      1.764440   173A      1.784555   174A      1.791030
     175A      1.813404   176A      1.828242   177A      1.836460
     178A      1.853590   179A      1.878884   180A      1.880506
     181A      1.883908   182A      1.887022   183A      1.893064
     184A      1.909585   185A      1.914904   186A      1.922750
     187A      1.930352   188A      1.936996   189A      1.940495
     190A      1.947017   191A      1.958293   192A      1.971703
     193A      1.974015   194A      1.982708   195A      1.985070
     196A      1.996065   197A      2.004565   198A      2.009074
     199A      2.017153   200A      2.038927   201A      2.043695
     202A      2.050513   203A      2.082479   204A      2.093176
     205A      2.107191   206A      2.110440   207A      2.118243
     208A      2.137784   209A      2.141778   210A      2.145684
     211A      2.150150   212A      2.155139   213A      2.171157
     214A      2.187575   215A      2.225254   216A      2.229385
     217A      2.289784   218A      2.305154   219A      2.309085
     220A      2.317306   221A      2.323876   222A      2.330443
     223A      2.342418   224A      2.347853   225A      2.352556
     226A      2.400329   227A      2.444620   228A      2.456549
     229A      2.470648   230A      2.487014   231A      2.524605
     232A      2.540228   233A      2.579235   234A      2.588870
     235A      2.602478   236A      2.610960   237A      2.619900
     238A      2.659021   239A      2.662331   240A      2.687057
     241A      2.711284   242A      2.754203   243A      2.763025
     244A      2.769560   245A      2.777338   246A      2.782384
     247A      2.794844   248A      2.806978   249A      2.820624
     250A      2.840152   251A      2.872624   252A      2.877372
     253A      2.907008   254A      2.920942   255A      2.973447
     256A      2.982215   257A      2.986121   258A      3.044069
     259A      3.051337   260A      3.073322   261A      3.098639
     262A      3.135535   263A      3.216762   264A      3.325710
     265A      3.396231   266A      3.748508   267A      3.970492

    Final Occupation by Irrep:
              A
    DOCC [    48 ]

  @RHF Final Energy:  -518.80626819075712

   => Energetics <=

    Nuclear Repulsion Energy =            735.2844517299117797
    One-Electron Energy =               -2160.0498443522546950
    Two-Electron Energy =                 905.9591244315857921
    Total Energy =                       -518.8062681907571232

Computation Completed

Properties will be evaluated at   0.000000,   0.000000,   0.000000 [a0]

Properties computed using the SCF density matrix

  Nuclear Dipole Moment: [e a0]
     X:   -14.1717      Y:    -2.7049      Z:   -15.2988

  Electronic Dipole Moment: [e a0]
     X:    13.5682      Y:     3.0356      Z:    15.0506

  Dipole Moment: [e a0]
     X:    -0.6035      Y:     0.3307      Z:    -0.2481     Total:     0.7315

  Dipole Moment: [D]
     X:    -1.5340      Y:     0.8405      Z:    -0.6307     Total:     1.8594

*** tstop() called on ds3 at Mon Apr 27 12:56:06 2020
Module time:
	user time   =     264.30 seconds =       4.41 minutes
	system time =     122.26 seconds =       2.04 minutes
	total time  =        370 seconds =       6.17 minutes
Total time:
	user time   =     264.30 seconds =       4.41 minutes
	system time =     122.26 seconds =       2.04 minutes
	total time  =        370 seconds =       6.17 minutes
                                     G D M A

                                 by Anthony Stone

                           version 2.2.06, 22 June 2011

               Distributed Multipoles from Gaussian wavefunctions

Starting at 12:56:6 on 27 Apr 2020

Using SCF density matrix from file ./SSI/SSI-097TRP-145LYS-1-dimer.test.4265.fchk

                         Distributed Multipole Analysis

Standard DMA

Positions and radii in angstrom
Multipole moments in atomic units, ea_0^k for rank k

C          x = -0.448543  y = -2.701201  z =  1.104975 angstrom
           Maximum rank =  0   Radius =  0.650 angstrom
                   Q00  =  -0.203189

C          x = -1.090543  y = -0.322201  z =  0.487975 angstrom
           Maximum rank =  0   Radius =  0.650 angstrom
                   Q00  =   0.071356

C          x = -0.212543  y = -1.245201  z =  0.935975 angstrom
           Maximum rank =  0   Radius =  0.650 angstrom
                   Q00  =  -0.118944

C          x =  0.808457  y =  0.808799  z =  0.880975 angstrom
           Maximum rank =  0   Radius =  0.650 angstrom
                   Q00  =   0.256363

C          x =  1.016457  y = -0.544201  z =  1.216975 angstrom
           Maximum rank =  0   Radius =  0.650 angstrom
                   Q00  =  -0.064729

C          x =  1.795457  y =  1.770799  z =  1.039975 angstrom
           Maximum rank =  0   Radius =  0.650 angstrom
                   Q00  =  -0.118402

C          x =  2.275457  y = -0.942201  z =  1.673975 angstrom
           Maximum rank =  0   Radius =  0.650 angstrom
                   Q00  =  -0.095523

C          x =  3.017457  y =  1.355799  z =  1.508975 angstrom
           Maximum rank =  0   Radius =  0.650 angstrom
                   Q00  =  -0.001286

C          x =  3.262457  y =  0.016799  z =  1.827975 angstrom
           Maximum rank =  0   Radius =  0.650 angstrom
                   Q00  =  -0.099580

N          x = -0.486543  y =  0.908799  z =  0.459975 angstrom
           Maximum rank =  0   Radius =  0.650 angstrom
                   Q00  =  -0.507592

H          x = -2.112543  y = -0.506201  z =  0.182975 angstrom
           Maximum rank =  0   Radius =  0.325 angstrom
                   Q00  =   0.103155

H          x = -0.956543  y =  1.774799  z =  0.178975 angstrom
           Maximum rank =  0   Radius =  0.325 angstrom
                   Q00  =   0.215948

H          x = -0.312543  y = -2.943201  z =  2.158975 angstrom
           Maximum rank =  0   Radius =  0.325 angstrom
                   Q00  =   0.095297

H          x =  0.321457  y = -3.228201  z =  0.540975 angstrom
           Maximum rank =  0   Radius =  0.325 angstrom
                   Q00  =   0.097137

H          x =  1.607457  y =  2.803799  z =  0.786975 angstrom
           Maximum rank =  0   Radius =  0.325 angstrom
                   Q00  =   0.072092

H          x =  2.464457  y = -1.978201  z =  1.913975 angstrom
           Maximum rank =  0   Radius =  0.325 angstrom
                   Q00  =   0.070429

H          x =  3.813457  y =  2.078799  z =  1.624975 angstrom
           Maximum rank =  0   Radius =  0.325 angstrom
                   Q00  =   0.062717

H          x =  4.243457  y = -0.277201  z =  2.177975 angstrom
           Maximum rank =  0   Radius =  0.325 angstrom
                   Q00  =   0.059383

H          x = -1.433413  y = -3.060711  z =  0.772125 angstrom
           Maximum rank =  0   Radius =  0.325 angstrom
                   Q00  =   0.105326

C          x = -2.921543  y =  0.534799  z = -2.762025 angstrom
           Maximum rank =  0   Radius =  0.650 angstrom
                   Q00  =  -0.073763

C          x = -2.181543  y = -0.767201  z = -3.074025 angstrom
           Maximum rank =  0   Radius =  0.650 angstrom
                   Q00  =  -0.240533

C          x = -3.483543  y =  1.216799  z = -4.008025 angstrom
           Maximum rank =  0   Radius =  0.650 angstrom
                   Q00  =  -0.249028

H          x = -3.729543  y =  0.333799  z = -2.057025 angstrom
           Maximum rank =  0   Radius =  0.325 angstrom
                   Q00  =   0.042489

H          x = -2.220543  y =  1.215799  z = -2.276025 angstrom
           Maximum rank =  0   Radius =  0.325 angstrom
                   Q00  =   0.034403

H          x = -1.795543  y = -1.173201  z = -2.139025 angstrom
           Maximum rank =  0   Radius =  0.325 angstrom
                   Q00  =   0.089310

H          x = -1.327543  y = -0.544201  z = -3.715025 angstrom
           Maximum rank =  0   Radius =  0.325 angstrom
                   Q00  =   0.079250

H          x = -2.668543  y =  1.507799  z = -4.674025 angstrom
           Maximum rank =  0   Radius =  0.325 angstrom
                   Q00  =   0.080278

H          x = -4.157543  y =  0.540799  z = -4.535025 angstrom
           Maximum rank =  0   Radius =  0.325 angstrom
                   Q00  =   0.079904

H          x = -2.801783  y = -1.531241  z = -3.565495 angstrom
           Maximum rank =  0   Radius =  0.325 angstrom
                   Q00  =   0.077628

H          x = -4.052693  y =  2.104209  z = -3.694065 angstrom
           Maximum rank =  0   Radius =  0.325 angstrom
                   Q00  =   0.080107

Total multipoles referred to origin at
           x =   0.000000,  y =    0.000000,  z =    0.000000 angstrom
                   Q00  =  -0.000000

Finished at 12:56:6 on 27 Apr 2020

  DMA results are available in the Python driver through the
	  variable('DMA DISTRIBUTED MULTIPOLES')
  and
	  variable('DMA TOTAL MULTIPOLES')
  commands.

    Psi4 stopped on: Monday, 27 April 2020 12:56PM
    Psi4 wall time for execution: 0:06:09.98

*** Psi4 exiting successfully. Buy a developer a beer!
