                               Psi4 1.3.2 release

  ==> Input File <==

--------------------------------------------------------------------------
import numpy as np
set {scf_type pk
basis cc-pvdz
d_convergence 10
gdma_switch   0
gdma_limit    0
gdma_origin   [ 0.0,  0.0,  0.0 ]
}
molecule test {
    units Angstrom
    0 1
    --
    0 1
    C               -2.603621132824559    -0.269307201694292     0.667715946732377
    C               -1.196621132824559    -0.786307201694292     0.609715946732377
    C               -0.617621132824559    -1.125307201694292    -0.611284053267623
    C               -0.459621132824559    -0.989307201694292     1.767715946732377
    C                0.654378867175441    -1.684307201694292    -0.658284053267624
    C                0.810378867175441    -1.544307201694292     1.709715946732377
    C                1.354378867175441    -1.897307201694292     0.505715946732377
    H               -2.823621132824560     0.247692798305708    -0.267284053267623
    H               -2.681621132824559     0.471692798305708     1.463715946732377
    H               -1.151621132824559    -0.942307201694292    -1.523284053267624
    H               -0.884621132824559    -0.731307201694292     2.727715946732376
    H                1.089378867175441    -1.963307201694292    -1.608284053267623
    H                1.357378867175441    -1.716307201694292     2.623715946732376
    H                2.318378867175441    -2.369307201694292     0.461715946732376
    H               -3.359251132824559    -1.053949201694292     0.820535946732377
    C                0.307378867175441     2.102692798305708    -1.132284053267623
    C                1.446378867175441     2.178692798305708    -0.085284053267624
    C                0.331378867175441     3.035692798305708    -2.365284053267624
    H                0.300378867175441     1.084692798305708    -1.515284053267623
    H               -0.632621132824559     2.260692798305708    -0.599284053267624
    H                1.258378867175441     1.441692798305708     0.696715946732377
    H                1.451378867175441     3.172692798305708     0.364715946732377
    H                0.282378867175441     4.076692798305708    -2.028284053267623
    H                1.265378867175441     2.896692798305708    -2.918284053267624
    H                2.422478867175441     1.983622798305708    -0.553454053267623
    H               -0.531121132824559     2.797962798305708    -3.005274053267624

}
e, wfn = energy('scf', return_wfn=True)
gdma(wfn)
dmavals = variable('DMA DISTRIBUTED MULTIPOLES')
charges = np.array(dmavals)
print(charges)
np.save('SSI-194PHE-201LYS-1-dimer.npy', np.array(charges))--------------------------------------------------------------------------

*** tstart() called on ds3
*** at Tue Apr 28 13:30:28 2020

   => Loading Basis Set <=

    Name: CC-PVDZ
    Role: ORBITAL
    Keyword: BASIS
    atoms 1-7, 16-18  entry C          line   138 file /theoryfs2/ds/metcalf/miniconda2/envs/tf2gpu/share/psi4/basis/cc-pvdz.gbs
    atoms 8-15, 19-26 entry H          line    22 file /theoryfs2/ds/metcalf/miniconda2/envs/tf2gpu/share/psi4/basis/cc-pvdz.gbs

         ---------------------------------------------------------
                                   SCF
               by Justin Turney, Rob Parrish, Andy Simmonett
                          and Daniel G. A. Smith
                              RHF Reference
                        1 Threads,    500 MiB Core
         ---------------------------------------------------------

  ==> Geometry <==

    Molecular point group: c1
    Full point group: C1

    Geometry (in Angstrom), charge = 0, multiplicity = 1:

       Center              X                  Y                   Z               Mass
    ------------   -----------------  -----------------  -----------------  -----------------
         C           -2.603621132825    -0.269307201694     0.667715946732    12.000000000000
         C           -1.196621132825    -0.786307201694     0.609715946732    12.000000000000
         C           -0.617621132825    -1.125307201694    -0.611284053268    12.000000000000
         C           -0.459621132825    -0.989307201694     1.767715946732    12.000000000000
         C            0.654378867175    -1.684307201694    -0.658284053268    12.000000000000
         C            0.810378867175    -1.544307201694     1.709715946732    12.000000000000
         C            1.354378867175    -1.897307201694     0.505715946732    12.000000000000
         H           -2.823621132825     0.247692798306    -0.267284053268     1.007825032230
         H           -2.681621132825     0.471692798306     1.463715946732     1.007825032230
         H           -1.151621132825    -0.942307201694    -1.523284053268     1.007825032230
         H           -0.884621132825    -0.731307201694     2.727715946732     1.007825032230
         H            1.089378867175    -1.963307201694    -1.608284053268     1.007825032230
         H            1.357378867175    -1.716307201694     2.623715946732     1.007825032230
         H            2.318378867175    -2.369307201694     0.461715946732     1.007825032230
         H           -3.359251132825    -1.053949201694     0.820535946732     1.007825032230
         C            0.307378867175     2.102692798306    -1.132284053268    12.000000000000
         C            1.446378867175     2.178692798306    -0.085284053268    12.000000000000
         C            0.331378867175     3.035692798306    -2.365284053268    12.000000000000
         H            0.300378867175     1.084692798306    -1.515284053268     1.007825032230
         H           -0.632621132825     2.260692798306    -0.599284053268     1.007825032230
         H            1.258378867175     1.441692798306     0.696715946732     1.007825032230
         H            1.451378867175     3.172692798306     0.364715946732     1.007825032230
         H            0.282378867175     4.076692798306    -2.028284053268     1.007825032230
         H            1.265378867175     2.896692798306    -2.918284053268     1.007825032230
         H            2.422478867175     1.983622798306    -0.553454053268     1.007825032230
         H           -0.531121132825     2.797962798306    -3.005274053268     1.007825032230

  Running in c1 symmetry.

  Rotational constants: A =      0.05346  B =      0.02534  C =      0.02185 [cm^-1]
  Rotational constants: A =   1602.62262  B =    759.77189  C =    655.15076 [MHz]
  Nuclear repulsion =  505.143449256447354

  Charge       = 0
  Multiplicity = 1
  Electrons    = 76
  Nalpha       = 38
  Nbeta        = 38

  ==> Algorithm <==

  SCF Algorithm Type is PK.
  DIIS enabled.
  MOM disabled.
  Fractional occupation disabled.
  Guess Type is SAD.
  Energy threshold   = 1.00e-06
  Density threshold  = 1.00e-10
  Integral threshold = 0.00e+00

  ==> Primary Basis <==

  Basis Set: CC-PVDZ
    Blend: CC-PVDZ
    Number of shells: 108
    Number of basis function: 220
    Number of Cartesian functions: 230
    Spherical Harmonics?: true
    Max angular momentum: 2

  ==> Pre-Iterations <==

   -------------------------------------------------------
    Irrep   Nso     Nmo     Nalpha   Nbeta   Ndocc  Nsocc
   -------------------------------------------------------
     A        220     220       0       0       0       0
   -------------------------------------------------------
    Total     220     220      38      38      38       0
   -------------------------------------------------------

  ==> Integral Setup <==

  Using integral reordering PK algorithm.
  Sizing the integral batches needed.
  Building batch lookup table.
   Calculation information:
      Number of atoms:                  26
      Number of AO shells:             108
      Number of primitives:            300
      Number of atomic orbitals:       230
      Number of basis functions:       220

      Integral cutoff                 1.00e-12
      Number of threads:                 1

	Batch   1 pq = [       0,    9405] index = [             0,44231715] size =     44231715
	Batch   2 pq = [    9405,   13301] index = [      44231715,88464951] size =     44233236
	Batch   3 pq = [   13301,   16290] index = [      88464951,132690195] size =     44225244
	Batch   4 pq = [   16290,   18810] index = [     132690195,176917455] size =     44227260
	Batch   5 pq = [   18810,   21030] index = [     176917455,221140965] size =     44223510
	Batch   6 pq = [   21030,   23037] index = [     221140965,265363203] size =     44222238
	Batch   7 pq = [   23037,   24310] index = [     265363203,295500205] size =     30137002
  Task number: 27
  Buffer size: 11059200
  Buffer per thread: 2
  We computed 17648469 shell quartets total.
  Whereas there are 17325441 unique shell quartets.
     1.86 percent of shell quartets recomputed by reordering.

  ==> DiskJK: Disk-Based J/K Matrices <==

    J tasked:                  Yes
    K tasked:                  Yes
    wK tasked:                  No
    Memory [MiB]:              375
    Schwarz Cutoff:          1E-12

    OpenMP threads:              1

  Minimum eigenvalue in the overlap matrix is 2.9036830530E-04.
  Using Symmetric Orthogonalization.

  SCF Guess: Superposition of Atomic Densities via on-the-fly atomic UHF.

  ==> Iterations <==

                        Total Energy        Delta E     RMS |[F,P]|

   @RHF iter SAD:  -386.94812278421642   -3.86948e+02   0.00000e+00
   @RHF iter   1:  -387.76770116766801   -8.19578e-01   2.75077e-03 DIIS
   @RHF iter   2:  -387.98685087079343   -2.19150e-01   1.14933e-03 DIIS
   @RHF iter   3:  -388.02161434056524   -3.47635e-02   2.49433e-04 DIIS
   @RHF iter   4:  -388.02448148376124   -2.86714e-03   5.12167e-05 DIIS
   @RHF iter   5:  -388.02457083433126   -8.93506e-05   1.48856e-05 DIIS
   @RHF iter   6:  -388.02457846464858   -7.63032e-06   4.39322e-06 DIIS
   @RHF iter   7:  -388.02457918520469   -7.20556e-07   1.44450e-06 DIIS
   @RHF iter   8:  -388.02457929100257   -1.05798e-07   4.66226e-07 DIIS
   @RHF iter   9:  -388.02457931660763   -2.56051e-08   2.28469e-07 DIIS
   @RHF iter  10:  -388.02457932326882   -6.66120e-09   9.61466e-08 DIIS
   @RHF iter  11:  -388.02457932462869   -1.35987e-09   3.09098e-08 DIIS
   @RHF iter  12:  -388.02457932472413   -9.54401e-11   1.04727e-08 DIIS
   @RHF iter  13:  -388.02457932473419   -1.00613e-11   3.81197e-09 DIIS
   @RHF iter  14:  -388.02457932473396    2.27374e-13   9.93948e-10 DIIS
   @RHF iter  15:  -388.02457932473612   -2.16005e-12   2.97606e-10 DIIS
   @RHF iter  16:  -388.02457932473590    2.27374e-13   8.75369e-11 DIIS
  Energy and wave function converged.

  ==> Post-Iterations <==

    Orbital Energies [Eh]
    ---------------------

    Doubly Occupied:

       1A    -11.239063     2A    -11.232794     3A    -11.231805
       4A    -11.229516     5A    -11.229446     6A    -11.229251
       7A    -11.226454     8A    -11.214470     9A    -11.211207
      10A    -11.208536    11A     -1.159203    12A     -1.049669
      13A     -1.036425    14A     -1.014123    15A     -0.934207
      16A     -0.919140    17A     -0.828636    18A     -0.797093
      19A     -0.785746    20A     -0.695728    21A     -0.635096
      22A     -0.630057    23A     -0.613699    24A     -0.586134
      25A     -0.582832    26A     -0.576029    27A     -0.565370
      28A     -0.544442    29A     -0.535579    30A     -0.527444
      31A     -0.492740    32A     -0.485180    33A     -0.481825
      34A     -0.466311    35A     -0.459357    36A     -0.451286
      37A     -0.331862    38A     -0.325449

    Virtual:

      39A      0.135894    40A      0.140863    41A      0.171960
      42A      0.196019    43A      0.199709    44A      0.211919
      45A      0.232879    46A      0.242426    47A      0.251854
      48A      0.257031    49A      0.261708    50A      0.270181
      51A      0.275534    52A      0.287949    53A      0.297166
      54A      0.305500    55A      0.305891    56A      0.328313
      57A      0.364503    58A      0.371530    59A      0.383056
      60A      0.433794    61A      0.456984    62A      0.466745
      63A      0.488124    64A      0.495423    65A      0.561884
      66A      0.566665    67A      0.593996    68A      0.598826
      69A      0.606192    70A      0.614035    71A      0.628889
      72A      0.677496    73A      0.684606    74A      0.696205
      75A      0.705516    76A      0.735447    77A      0.741950
      78A      0.745415    79A      0.756572    80A      0.766143
      81A      0.781253    82A      0.784597    83A      0.798621
      84A      0.805082    85A      0.823132    86A      0.841903
      87A      0.857604    88A      0.860744    89A      0.874078
      90A      0.878062    91A      0.879672    92A      0.896829
      93A      0.898076    94A      0.903228    95A      0.905987
      96A      0.913397    97A      0.919785    98A      0.922261
      99A      0.932734   100A      0.944352   101A      0.953743
     102A      0.975832   103A      0.989270   104A      1.001378
     105A      1.004440   106A      1.018529   107A      1.061763
     108A      1.087675   109A      1.120738   110A      1.134536
     111A      1.139304   112A      1.154559   113A      1.161117
     114A      1.178464   115A      1.188476   116A      1.230362
     117A      1.245135   118A      1.251440   119A      1.261023
     120A      1.297852   121A      1.307611   122A      1.315828
     123A      1.328444   124A      1.335365   125A      1.372146
     126A      1.418543   127A      1.474409   128A      1.495454
     129A      1.513721   130A      1.528092   131A      1.549805
     132A      1.566543   133A      1.610918   134A      1.640107
     135A      1.677179   136A      1.683795   137A      1.690439
     138A      1.695395   139A      1.706231   140A      1.745490
     141A      1.760014   142A      1.770213   143A      1.788872
     144A      1.818785   145A      1.854809   146A      1.870248
     147A      1.878659   148A      1.885340   149A      1.904105
     150A      1.906157   151A      1.916239   152A      1.921499
     153A      1.922564   154A      1.933687   155A      1.937091
     156A      1.940632   157A      1.956415   158A      1.962961
     159A      1.973257   160A      1.974934   161A      1.979927
     162A      1.992507   163A      1.999951   164A      2.006736
     165A      2.017779   166A      2.038417   167A      2.046627
     168A      2.061248   169A      2.083824   170A      2.095203
     171A      2.117906   172A      2.137212   173A      2.154352
     174A      2.169353   175A      2.177821   176A      2.185334
     177A      2.190563   178A      2.197421   179A      2.264162
     180A      2.283773   181A      2.288580   182A      2.294238
     183A      2.299408   184A      2.310394   185A      2.329538
     186A      2.332434   187A      2.343563   188A      2.371056
     189A      2.469488   190A      2.493755   191A      2.510443
     192A      2.513746   193A      2.537635   194A      2.549324
     195A      2.607039   196A      2.625290   197A      2.630516
     198A      2.636421   199A      2.749056   200A      2.752954
     201A      2.768300   202A      2.774749   203A      2.778461
     204A      2.786393   205A      2.808183   206A      2.824970
     207A      2.835977   208A      2.852638   209A      2.887845
     210A      2.931772   211A      2.964175   212A      2.968338
     213A      3.015937   214A      3.042771   215A      3.051245
     216A      3.090955   217A      3.172090   218A      3.225233
     219A      3.323076   220A      4.009016

    Final Occupation by Irrep:
              A
    DOCC [    38 ]

  @RHF Final Energy:  -388.02457932473590

   => Energetics <=

    Nuclear Repulsion Energy =            505.1434492564473544
    One-Electron Energy =               -1524.8096501804589025
    Two-Electron Energy =                 631.6416215992755951
    Total Energy =                       -388.0245793247358961

Computation Completed

Properties will be evaluated at   0.000000,   0.000000,   0.000000 [a0]

Properties computed using the SCF density matrix

  Nuclear Dipole Moment: [e a0]
     X:    -0.2990      Y:    10.9287      Z:    -4.5560

  Electronic Dipole Moment: [e a0]
     X:     0.1434      Y:   -11.0408      Z:     4.6149

  Dipole Moment: [e a0]
     X:    -0.1556      Y:    -0.1121      Z:     0.0589     Total:     0.2007

  Dipole Moment: [D]
     X:    -0.3956      Y:    -0.2851      Z:     0.1497     Total:     0.5101

*** tstop() called on ds3 at Tue Apr 28 13:33:40 2020
Module time:
	user time   =     125.29 seconds =       2.09 minutes
	system time =      43.89 seconds =       0.73 minutes
	total time  =        192 seconds =       3.20 minutes
Total time:
	user time   =     125.29 seconds =       2.09 minutes
	system time =      43.89 seconds =       0.73 minutes
	total time  =        192 seconds =       3.20 minutes
                                     G D M A

                                 by Anthony Stone

                           version 2.2.06, 22 June 2011

               Distributed Multipoles from Gaussian wavefunctions

Starting at 13:33:40 on 28 Apr 2020

Using SCF density matrix from file ./SSI/SSI-194PHE-201LYS-1-dimer.test.16253.fchk

                         Distributed Multipole Analysis

Standard DMA

Positions and radii in angstrom
Multipole moments in atomic units, ea_0^k for rank k

C          x = -2.603621  y = -0.269307  z =  0.667716 angstrom
           Maximum rank =  0   Radius =  0.650 angstrom
                   Q00  =  -0.205913

C          x = -1.196621  y = -0.786307  z =  0.609716 angstrom
           Maximum rank =  0   Radius =  0.650 angstrom
                   Q00  =  -0.105159

C          x = -0.617621  y = -1.125307  z = -0.611284 angstrom
           Maximum rank =  0   Radius =  0.650 angstrom
                   Q00  =  -0.074267

C          x = -0.459621  y = -0.989307  z =  1.767716 angstrom
           Maximum rank =  0   Radius =  0.650 angstrom
                   Q00  =  -0.037987

C          x =  0.654379  y = -1.684307  z = -0.658284 angstrom
           Maximum rank =  0   Radius =  0.650 angstrom
                   Q00  =  -0.033728

C          x =  0.810379  y = -1.544307  z =  1.709716 angstrom
           Maximum rank =  0   Radius =  0.650 angstrom
                   Q00  =  -0.049899

C          x =  1.354379  y = -1.897307  z =  0.505716 angstrom
           Maximum rank =  0   Radius =  0.650 angstrom
                   Q00  =  -0.078096

H          x = -2.823621  y =  0.247693  z = -0.267284 angstrom
           Maximum rank =  0   Radius =  0.325 angstrom
                   Q00  =   0.096874

H          x = -2.681621  y =  0.471693  z =  1.463716 angstrom
           Maximum rank =  0   Radius =  0.325 angstrom
                   Q00  =   0.098268

H          x = -1.151621  y = -0.942307  z = -1.523284 angstrom
           Maximum rank =  0   Radius =  0.325 angstrom
                   Q00  =   0.055473

H          x = -0.884621  y = -0.731307  z =  2.727716 angstrom
           Maximum rank =  0   Radius =  0.325 angstrom
                   Q00  =   0.054513

H          x =  1.089379  y = -1.963307  z = -1.608284 angstrom
           Maximum rank =  0   Radius =  0.325 angstrom
                   Q00  =   0.062130

H          x =  1.357379  y = -1.716307  z =  2.623716 angstrom
           Maximum rank =  0   Radius =  0.325 angstrom
                   Q00  =   0.061128

H          x =  2.318379  y = -2.369307  z =  0.461716 angstrom
           Maximum rank =  0   Radius =  0.325 angstrom
                   Q00  =   0.056831

H          x = -3.359251  y = -1.053949  z =  0.820536 angstrom
           Maximum rank =  0   Radius =  0.325 angstrom
                   Q00  =   0.106868

C          x =  0.307379  y =  2.102693  z = -1.132284 angstrom
           Maximum rank =  0   Radius =  0.650 angstrom
                   Q00  =  -0.088773

C          x =  1.446379  y =  2.178693  z = -0.085284 angstrom
           Maximum rank =  0   Radius =  0.650 angstrom
                   Q00  =  -0.244187

C          x =  0.331379  y =  3.035693  z = -2.365284 angstrom
           Maximum rank =  0   Radius =  0.650 angstrom
                   Q00  =  -0.240372

H          x =  0.300379  y =  1.084693  z = -1.515284 angstrom
           Maximum rank =  0   Radius =  0.325 angstrom
                   Q00  =   0.045272

H          x = -0.632621  y =  2.260693  z = -0.599284 angstrom
           Maximum rank =  0   Radius =  0.325 angstrom
                   Q00  =   0.038025

H          x =  1.258379  y =  1.441693  z =  0.696716 angstrom
           Maximum rank =  0   Radius =  0.325 angstrom
                   Q00  =   0.102499

H          x =  1.451379  y =  3.172693  z =  0.364716 angstrom
           Maximum rank =  0   Radius =  0.325 angstrom
                   Q00  =   0.070250

H          x =  0.282379  y =  4.076693  z = -2.028284 angstrom
           Maximum rank =  0   Radius =  0.325 angstrom
                   Q00  =   0.074567

H          x =  1.265379  y =  2.896693  z = -2.918284 angstrom
           Maximum rank =  0   Radius =  0.325 angstrom
                   Q00  =   0.077572

H          x =  2.422479  y =  1.983623  z = -0.553454 angstrom
           Maximum rank =  0   Radius =  0.325 angstrom
                   Q00  =   0.074674

H          x = -0.531121  y =  2.797963  z = -3.005274 angstrom
           Maximum rank =  0   Radius =  0.325 angstrom
                   Q00  =   0.083437

Total multipoles referred to origin at
           x =   0.000000,  y =    0.000000,  z =    0.000000 angstrom
                   Q00  =  -0.000000

Finished at 13:33:40 on 28 Apr 2020

  DMA results are available in the Python driver through the
	  variable('DMA DISTRIBUTED MULTIPOLES')
  and
	  variable('DMA TOTAL MULTIPOLES')
  commands.

    Psi4 stopped on: Tuesday, 28 April 2020 01:33PM
    Psi4 wall time for execution: 0:03:12.23

*** Psi4 exiting successfully. Buy a developer a beer!
