                               Psi4 1.3.2 release

  ==> Input File <==

--------------------------------------------------------------------------
import numpy as np
set {scf_type pk
basis cc-pvdz
d_convergence 10
gdma_switch   0
gdma_limit    0
gdma_origin   [ 0.0,  0.0,  0.0 ]
}
molecule test {
    units Angstrom
    0 1
    --
    0 1
    C               -0.569448877639510     2.069902263584369    -1.945060342735443
    C               -0.030448877639510     0.224902263584369     1.396939657264557
    C                0.214551122360490     0.994902263584369     0.235939657264557
    C               -1.327448877639510    -0.189097736415631     1.681939657264557
    C               -0.834448877639510     1.279902263584369    -0.662060342735443
    C               -2.380448877639510     0.065902263584369     0.799939657264557
    C               -2.143448877639510     0.846902263584369    -0.351060342735443
    H                0.777551122360490    -0.006097736415631     2.077939657264557
    H                1.215551122360490     1.330902263584369     0.012939657264557
    H               -1.513448877639510    -0.757097736415631     2.581939657264557
    H               -3.375448877639510    -0.291097736415631     1.013939657264557
    H               -1.244448877639510     1.684902263584369    -2.703060342735442
    H                0.444551122360490     1.851902263584369    -2.284060342735442
    H               -2.960448877639511     1.067902263584369    -1.023060342735443
    H               -0.684912877639510     3.160712263584369    -1.862586342735443
    C                2.703551122360490    -1.726097736415631    -0.439060342735443
    C                3.438551122360489    -3.042097736415631    -0.334060342735443
    H                3.406551122360490    -0.904097736415631    -0.320060342735443
    H                2.232551122360489    -1.631097736415631    -1.412060342735443
    H                1.940551122360490    -1.671097736415631     0.338939657264557
    H                2.700551122360489    -3.843097736415631    -0.329060342735443
    H                4.058007522360490    -3.089197736415631     0.573714657264557
    H                4.064761922360490    -3.155957736415631    -1.231220342735443

}
e, wfn = energy('scf', return_wfn=True)
gdma(wfn)
dmavals = variable('DMA DISTRIBUTED MULTIPOLES')
charges = np.array(dmavals)
print(charges)
np.save('SSI-041PHE-077LEU-1-dimer.npy', np.array(charges))--------------------------------------------------------------------------

*** tstart() called on ds3
*** at Tue Apr 28 17:12:50 2020

   => Loading Basis Set <=

    Name: CC-PVDZ
    Role: ORBITAL
    Keyword: BASIS
    atoms 1-7, 16-17  entry C          line   138 file /theoryfs2/ds/metcalf/miniconda2/envs/tf2gpu/share/psi4/basis/cc-pvdz.gbs
    atoms 8-15, 18-23 entry H          line    22 file /theoryfs2/ds/metcalf/miniconda2/envs/tf2gpu/share/psi4/basis/cc-pvdz.gbs

         ---------------------------------------------------------
                                   SCF
               by Justin Turney, Rob Parrish, Andy Simmonett
                          and Daniel G. A. Smith
                              RHF Reference
                        1 Threads,    500 MiB Core
         ---------------------------------------------------------

  ==> Geometry <==

    Molecular point group: c1
    Full point group: C1

    Geometry (in Angstrom), charge = 0, multiplicity = 1:

       Center              X                  Y                   Z               Mass
    ------------   -----------------  -----------------  -----------------  -----------------
         C           -0.569448877640     2.069902263584    -1.945060342735    12.000000000000
         C           -0.030448877640     0.224902263584     1.396939657265    12.000000000000
         C            0.214551122360     0.994902263584     0.235939657265    12.000000000000
         C           -1.327448877640    -0.189097736416     1.681939657265    12.000000000000
         C           -0.834448877640     1.279902263584    -0.662060342735    12.000000000000
         C           -2.380448877640     0.065902263584     0.799939657265    12.000000000000
         C           -2.143448877640     0.846902263584    -0.351060342735    12.000000000000
         H            0.777551122360    -0.006097736416     2.077939657265     1.007825032230
         H            1.215551122360     1.330902263584     0.012939657265     1.007825032230
         H           -1.513448877640    -0.757097736416     2.581939657265     1.007825032230
         H           -3.375448877640    -0.291097736416     1.013939657265     1.007825032230
         H           -1.244448877640     1.684902263584    -2.703060342735     1.007825032230
         H            0.444551122360     1.851902263584    -2.284060342735     1.007825032230
         H           -2.960448877640     1.067902263584    -1.023060342735     1.007825032230
         H           -0.684912877640     3.160712263584    -1.862586342735     1.007825032230
         C            2.703551122360    -1.726097736416    -0.439060342735    12.000000000000
         C            3.438551122360    -3.042097736416    -0.334060342735    12.000000000000
         H            3.406551122360    -0.904097736416    -0.320060342735     1.007825032230
         H            2.232551122360    -1.631097736416    -1.412060342735     1.007825032230
         H            1.940551122360    -1.671097736416     0.338939657265     1.007825032230
         H            2.700551122360    -3.843097736416    -0.329060342735     1.007825032230
         H            4.058007522360    -3.089197736416     0.573714657265     1.007825032230
         H            4.064761922360    -3.155957736416    -1.231220342735     1.007825032230

  Running in c1 symmetry.

  Rotational constants: A =      0.06663  B =      0.02324  C =      0.01912 [cm^-1]
  Rotational constants: A =   1997.54807  B =    696.57711  C =    573.30318 [MHz]
  Nuclear repulsion =  400.374369657480827

  Charge       = 0
  Multiplicity = 1
  Electrons    = 68
  Nalpha       = 34
  Nbeta        = 34

  ==> Algorithm <==

  SCF Algorithm Type is PK.
  DIIS enabled.
  MOM disabled.
  Fractional occupation disabled.
  Guess Type is SAD.
  Energy threshold   = 1.00e-06
  Density threshold  = 1.00e-10
  Integral threshold = 0.00e+00

  ==> Primary Basis <==

  Basis Set: CC-PVDZ
    Blend: CC-PVDZ
    Number of shells: 96
    Number of basis function: 196
    Number of Cartesian functions: 205
    Spherical Harmonics?: true
    Max angular momentum: 2

  ==> Pre-Iterations <==

   -------------------------------------------------------
    Irrep   Nso     Nmo     Nalpha   Nbeta   Ndocc  Nsocc
   -------------------------------------------------------
     A        196     196       0       0       0       0
   -------------------------------------------------------
    Total     196     196      34      34      34       0
   -------------------------------------------------------

  ==> Integral Setup <==

  Using integral reordering PK algorithm.
  Sizing the integral batches needed.
  Building batch lookup table.
   Calculation information:
      Number of atoms:                  23
      Number of AO shells:              96
      Number of primitives:            268
      Number of atomic orbitals:       205
      Number of basis functions:       196

      Integral cutoff                 1.00e-12
      Number of threads:                 1

	Batch   1 pq = [       0,    9405] index = [             0,44231715] size =     44231715
	Batch   2 pq = [    9405,   13301] index = [      44231715,88464951] size =     44233236
	Batch   3 pq = [   13301,   16290] index = [      88464951,132690195] size =     44225244
	Batch   4 pq = [   16290,   18810] index = [     132690195,176917455] size =     44227260
	Batch   5 pq = [   18810,   19306] index = [     176917455,186370471] size =      9453016
  Task number: 17
  Buffer size: 11059200
  Buffer per thread: 2
  We computed 8988140 shell quartets total.
  Whereas there are 10841496 unique shell quartets.

  ==> DiskJK: Disk-Based J/K Matrices <==

    J tasked:                  Yes
    K tasked:                  Yes
    wK tasked:                  No
    Memory [MiB]:              375
    Schwarz Cutoff:          1E-12

    OpenMP threads:              1

  Minimum eigenvalue in the overlap matrix is 3.6209168404E-04.
  Using Symmetric Orthogonalization.

  SCF Guess: Superposition of Atomic Densities via on-the-fly atomic UHF.

  ==> Iterations <==

                        Total Energy        Delta E     RMS |[F,P]|

   @RHF iter SAD:  -347.71101609447391   -3.47711e+02   0.00000e+00
   @RHF iter   1:  -348.76736669177586   -1.05635e+00   2.86735e-03 DIIS
   @RHF iter   2:  -348.95730970339440   -1.89943e-01   1.17801e-03 DIIS
   @RHF iter   3:  -348.98646608889709   -2.91564e-02   2.54564e-04 DIIS
   @RHF iter   4:  -348.98891615431342   -2.45007e-03   4.54624e-05 DIIS
   @RHF iter   5:  -348.98897545285053   -5.92985e-05   1.43190e-05 DIIS
   @RHF iter   6:  -348.98898096668114   -5.51383e-06   3.27748e-06 DIIS
   @RHF iter   7:  -348.98898131256044   -3.45879e-07   1.35060e-06 DIIS
   @RHF iter   8:  -348.98898137076003   -5.81996e-08   3.72518e-07 DIIS
   @RHF iter   9:  -348.98898138194050   -1.11805e-08   1.83336e-07 DIIS
   @RHF iter  10:  -348.98898138505615   -3.11564e-09   8.51520e-08 DIIS
   @RHF iter  11:  -348.98898138606688   -1.01073e-09   2.83668e-08 DIIS
   @RHF iter  12:  -348.98898138616295   -9.60654e-11   1.10176e-08 DIIS
   @RHF iter  13:  -348.98898138617221   -9.26548e-12   3.93114e-09 DIIS
   @RHF iter  14:  -348.98898138617363   -1.42109e-12   1.16792e-09 DIIS
   @RHF iter  15:  -348.98898138617426   -6.25278e-13   6.04830e-10 DIIS
   @RHF iter  16:  -348.98898138617420    5.68434e-14   2.77242e-10 DIIS
   @RHF iter  17:  -348.98898138617380    3.97904e-13   9.86054e-11 DIIS
  Energy and wave function converged.

  ==> Post-Iterations <==

    Orbital Energies [Eh]
    ---------------------

    Doubly Occupied:

       1A    -11.246545     2A    -11.238682     3A    -11.238404
       4A    -11.235863     5A    -11.235322     6A    -11.232581
       7A    -11.231078     8A    -11.214858     9A    -11.210201
      10A     -1.143424    11A     -1.038667    12A     -1.020187
      13A     -1.005941    14A     -0.928803    15A     -0.831159
      16A     -0.823941    17A     -0.791598    18A     -0.687795
      19A     -0.633157    20A     -0.624836    21A     -0.598258
      22A     -0.598036    23A     -0.581646    24A     -0.575197
      25A     -0.557016    26A     -0.535295    27A     -0.500409
      28A     -0.487081    29A     -0.485350    30A     -0.481750
      31A     -0.477352    32A     -0.475664    33A     -0.327397
      34A     -0.321131

    Virtual:

      35A      0.130335    36A      0.138763    37A      0.175023
      38A      0.194313    39A      0.200816    40A      0.214608
      41A      0.235950    42A      0.244297    43A      0.255157
      44A      0.258999    45A      0.268531    46A      0.276020
      47A      0.278859    48A      0.286501    49A      0.306384
      50A      0.317812    51A      0.360425    52A      0.371538
      53A      0.408493    54A      0.451624    55A      0.458277
      56A      0.473025    57A      0.484202    58A      0.558446
      59A      0.581246    60A      0.598587    61A      0.607238
      62A      0.610892    63A      0.651203    64A      0.663701
      65A      0.673456    66A      0.675512    67A      0.696184
      68A      0.702308    69A      0.721661    70A      0.733157
      71A      0.738860    72A      0.745821    73A      0.754687
      74A      0.772990    75A      0.778352    76A      0.803312
      77A      0.826597    78A      0.854491    79A      0.866327
      80A      0.867557    81A      0.877893    82A      0.886182
      83A      0.891745    84A      0.893410    85A      0.898125
      86A      0.909432    87A      0.913679    88A      0.917597
      89A      0.924349    90A      0.939633    91A      0.954396
      92A      0.967612    93A      0.986693    94A      0.994891
      95A      1.014737    96A      1.055059    97A      1.110157
      98A      1.124163    99A      1.128662   100A      1.131695
     101A      1.155531   102A      1.163544   103A      1.178370
     104A      1.222790   105A      1.236731   106A      1.239826
     107A      1.246999   108A      1.258546   109A      1.288118
     110A      1.312095   111A      1.319286   112A      1.336222
     113A      1.414124   114A      1.481388   115A      1.495757
     116A      1.508502   117A      1.509975   118A      1.545591
     119A      1.589702   120A      1.594798   121A      1.680229
     122A      1.686012   123A      1.697937   124A      1.700152
     125A      1.727273   126A      1.747439   127A      1.755732
     128A      1.783312   129A      1.798275   130A      1.849212
     131A      1.850859   132A      1.864859   133A      1.875527
     134A      1.882680   135A      1.901397   136A      1.903569
     137A      1.919475   138A      1.925378   139A      1.936199
     140A      1.938854   141A      1.946414   142A      1.952750
     143A      1.960682   144A      1.962861   145A      1.969263
     146A      1.986004   147A      1.987929   148A      2.013572
     149A      2.031509   150A      2.046460   151A      2.060045
     152A      2.108289   153A      2.114527   154A      2.137749
     155A      2.139226   156A      2.140565   157A      2.152482
     158A      2.162107   159A      2.167562   160A      2.241802
     161A      2.267092   162A      2.281631   163A      2.292226
     164A      2.297406   165A      2.311761   166A      2.317307
     167A      2.346194   168A      2.452198   169A      2.456331
     170A      2.470141   171A      2.472612   172A      2.477167
     173A      2.529310   174A      2.572849   175A      2.592332
     176A      2.600420   177A      2.735135   178A      2.737010
     179A      2.766461   180A      2.768210   181A      2.770986
     182A      2.793832   183A      2.807175   184A      2.847107
     185A      2.847370   186A      2.862586   187A      2.870918
     188A      2.949091   189A      2.957758   190A      2.967545
     191A      2.982020   192A      2.991674   193A      3.121056
     194A      3.168891   195A      3.269552   196A      3.912721

    Final Occupation by Irrep:
              A
    DOCC [    34 ]

  @RHF Final Energy:  -348.98898138617380

   => Energetics <=

    Nuclear Repulsion Energy =            400.3743696574808268
    One-Electron Energy =               -1263.4974542617710540
    Two-Electron Energy =                 514.1341032181163655
    Total Energy =                       -348.9889813861738048

Computation Completed

Properties will be evaluated at   0.000000,   0.000000,   0.000000 [a0]

Properties computed using the SCF density matrix

  Nuclear Dipole Moment: [e a0]
     X:    10.3702      Y:    -5.8615      Z:    -4.2803

  Electronic Dipole Moment: [e a0]
     X:   -10.3950      Y:     5.9356      Z:     4.1661

  Dipole Moment: [e a0]
     X:    -0.0248      Y:     0.0740      Z:    -0.1142     Total:     0.1383

  Dipole Moment: [D]
     X:    -0.0631      Y:     0.1881      Z:    -0.2903     Total:     0.3516

*** tstop() called on ds3 at Tue Apr 28 17:14:45 2020
Module time:
	user time   =      61.51 seconds =       1.03 minutes
	system time =      25.40 seconds =       0.42 minutes
	total time  =        115 seconds =       1.92 minutes
Total time:
	user time   =      61.51 seconds =       1.03 minutes
	system time =      25.40 seconds =       0.42 minutes
	total time  =        115 seconds =       1.92 minutes
                                     G D M A

                                 by Anthony Stone

                           version 2.2.06, 22 June 2011

               Distributed Multipoles from Gaussian wavefunctions

Starting at 17:14:45 on 28 Apr 2020

Using SCF density matrix from file ./SSI/SSI-041PHE-077LEU-1-dimer.test.28367.fchk

                         Distributed Multipole Analysis

Standard DMA

Positions and radii in angstrom
Multipole moments in atomic units, ea_0^k for rank k

C          x = -0.569449  y =  2.069902  z = -1.945060 angstrom
           Maximum rank =  0   Radius =  0.650 angstrom
                   Q00  =  -0.201720

C          x = -0.030449  y =  0.224902  z =  1.396940 angstrom
           Maximum rank =  0   Radius =  0.650 angstrom
                   Q00  =  -0.075139

C          x =  0.214551  y =  0.994902  z =  0.235940 angstrom
           Maximum rank =  0   Radius =  0.650 angstrom
                   Q00  =  -0.049341

C          x = -1.327449  y = -0.189098  z =  1.681940 angstrom
           Maximum rank =  0   Radius =  0.650 angstrom
                   Q00  =  -0.028323

C          x = -0.834449  y =  1.279902  z = -0.662060 angstrom
           Maximum rank =  0   Radius =  0.650 angstrom
                   Q00  =  -0.113419

C          x = -2.380449  y =  0.065902  z =  0.799940 angstrom
           Maximum rank =  0   Radius =  0.650 angstrom
                   Q00  =  -0.070124

C          x = -2.143449  y =  0.846902  z = -0.351060 angstrom
           Maximum rank =  0   Radius =  0.650 angstrom
                   Q00  =  -0.091950

H          x =  0.777551  y = -0.006098  z =  2.077940 angstrom
           Maximum rank =  0   Radius =  0.325 angstrom
                   Q00  =   0.069090

H          x =  1.215551  y =  1.330902  z =  0.012940 angstrom
           Maximum rank =  0   Radius =  0.325 angstrom
                   Q00  =   0.064452

H          x = -1.513449  y = -0.757098  z =  2.581940 angstrom
           Maximum rank =  0   Radius =  0.325 angstrom
                   Q00  =   0.060520

H          x = -3.375449  y = -0.291098  z =  1.013940 angstrom
           Maximum rank =  0   Radius =  0.325 angstrom
                   Q00  =   0.068807

H          x = -1.244449  y =  1.684902  z = -2.703060 angstrom
           Maximum rank =  0   Radius =  0.325 angstrom
                   Q00  =   0.099386

H          x =  0.444551  y =  1.851902  z = -2.284060 angstrom
           Maximum rank =  0   Radius =  0.325 angstrom
                   Q00  =   0.098984

H          x = -2.960449  y =  1.067902  z = -1.023060 angstrom
           Maximum rank =  0   Radius =  0.325 angstrom
                   Q00  =   0.062199

H          x = -0.684913  y =  3.160712  z = -1.862586 angstrom
           Maximum rank =  0   Radius =  0.325 angstrom
                   Q00  =   0.106271

C          x =  2.703551  y = -1.726098  z = -0.439060 angstrom
           Maximum rank =  0   Radius =  0.650 angstrom
                   Q00  =  -0.228634

C          x =  3.438551  y = -3.042098  z = -0.334060 angstrom
           Maximum rank =  0   Radius =  0.650 angstrom
                   Q00  =  -0.230522

H          x =  3.406551  y = -0.904098  z = -0.320060 angstrom
           Maximum rank =  0   Radius =  0.325 angstrom
                   Q00  =   0.069439

H          x =  2.232551  y = -1.631098  z = -1.412060 angstrom
           Maximum rank =  0   Radius =  0.325 angstrom
                   Q00  =   0.080128

H          x =  1.940551  y = -1.671098  z =  0.338940 angstrom
           Maximum rank =  0   Radius =  0.325 angstrom
                   Q00  =   0.082045

H          x =  2.700551  y = -3.843098  z = -0.329060 angstrom
           Maximum rank =  0   Radius =  0.325 angstrom
                   Q00  =   0.077303

H          x =  4.058008  y = -3.089198  z =  0.573715 angstrom
           Maximum rank =  0   Radius =  0.325 angstrom
                   Q00  =   0.077882

H          x =  4.064762  y = -3.155958  z = -1.231220 angstrom
           Maximum rank =  0   Radius =  0.325 angstrom
                   Q00  =   0.072667

Total multipoles referred to origin at
           x =   0.000000,  y =    0.000000,  z =    0.000000 angstrom
                   Q00  =  -0.000000

Finished at 17:14:45 on 28 Apr 2020

  DMA results are available in the Python driver through the
	  variable('DMA DISTRIBUTED MULTIPOLES')
  and
	  variable('DMA TOTAL MULTIPOLES')
  commands.

    Psi4 stopped on: Tuesday, 28 April 2020 05:14PM
    Psi4 wall time for execution: 0:01:55.06

*** Psi4 exiting successfully. Buy a developer a beer!
