                               Psi4 1.3.2 release

  ==> Input File <==

--------------------------------------------------------------------------
import numpy as np
set {scf_type pk
basis cc-pvdz
d_convergence 10
gdma_switch   0
gdma_limit    0
gdma_origin   [ 0.0,  0.0,  0.0 ]
}
molecule test {
    units Angstrom
    0 1
    --
    0 1
    C               -0.245181464029148     1.905552236008875    -4.476196890062313
    C                0.607818535970852     1.864552236008875    -2.019196890062315
    C                0.048818535970852     2.520552236008875    -3.167196890062315
    C                0.709818535970851     2.841552236008875    -0.994196890062315
    C               -0.149181464029148     3.817552236008875    -2.815196890062315
    C                1.563818535970852     0.270552236008875    -0.482196890062315
    C                1.641818535970851     1.261552236008875     0.507803109937685
    C                1.045818535970852     0.557552236008875    -1.751196890062315
    C                1.216818535970852     2.553552236008874     0.259803109937685
    N                0.245818535970852     4.019552236008876    -1.515196890062315
    H                1.889818535970851    -0.730447763991125    -0.254196890062315
    H                2.046818535970852     1.014552236008875     1.478803109937685
    H                1.000818535970852    -0.202447763991125    -2.516196890062315
    H                1.275818535970852     3.317552236008875     1.018803109937685
    H               -1.034181464029148     2.471552236008875    -4.975196890062315
    H               -0.628181464029148     0.902552236008875    -4.289196890062315
    H               -0.558181464029148     4.583552236008876    -3.468196890062315
    H                0.225818535970852     4.915552236008875    -1.040196890062315
    H                0.633627635970852     1.837008036008875    -5.134216890062315
    C                0.888818535970851    -2.272447763991125     4.416803109937685
    C               -0.934181464029148    -1.585447763991125     1.133803109937685
    C               -1.582181464029148    -2.801447763991125     0.916803109937685
    C               -0.134181464029148    -1.419447763991125     2.270803109937685
    C                0.044818535970852    -2.464447763991125     3.179803109937685
    C               -1.414181464029148    -3.850447763991125     1.820803109937685
    C               -0.615181464029148    -3.672447763991125     2.949803109937685
    O               -2.374181464029149    -2.979447763991125    -0.179196890062315
    H               -1.061181464029148    -0.776447763991125     0.428803109937685
    H                0.359818535970852    -0.472447763991125     2.434803109937685
    H               -1.885181464029149    -4.803447763991125     1.639803109937685
    H               -2.805181464029149    -3.840447763991125    -0.181196890062315
    H                0.382818535970852    -2.774447763991125     5.237803109937686
    H                0.943818535970852    -1.216447763991125     4.663803109937685
    H               -0.514181464029148    -4.487447763991124     3.652803109937685
    H                1.913441835970851    -2.667474763991125     4.352763109937685

}
e, wfn = energy('scf', return_wfn=True)
gdma(wfn)
dmavals = variable('DMA DISTRIBUTED MULTIPOLES')
charges = np.array(dmavals)
print(charges)
np.save('SSI-047TRP-083TYR-1-dimer.npy', np.array(charges))--------------------------------------------------------------------------

*** tstart() called on ds3
*** at Tue Apr 28 00:50:39 2020

   => Loading Basis Set <=

    Name: CC-PVDZ
    Role: ORBITAL
    Keyword: BASIS
    atoms 1-9, 20-26   entry C          line   138 file /theoryfs2/ds/metcalf/miniconda2/envs/tf2gpu/share/psi4/basis/cc-pvdz.gbs
    atoms 10           entry N          line   168 file /theoryfs2/ds/metcalf/miniconda2/envs/tf2gpu/share/psi4/basis/cc-pvdz.gbs
    atoms 11-19, 28-35 entry H          line    22 file /theoryfs2/ds/metcalf/miniconda2/envs/tf2gpu/share/psi4/basis/cc-pvdz.gbs
    atoms 27           entry O          line   198 file /theoryfs2/ds/metcalf/miniconda2/envs/tf2gpu/share/psi4/basis/cc-pvdz.gbs

         ---------------------------------------------------------
                                   SCF
               by Justin Turney, Rob Parrish, Andy Simmonett
                          and Daniel G. A. Smith
                              RHF Reference
                        1 Threads,    500 MiB Core
         ---------------------------------------------------------

  ==> Geometry <==

    Molecular point group: c1
    Full point group: C1

    Geometry (in Angstrom), charge = 0, multiplicity = 1:

       Center              X                  Y                   Z               Mass
    ------------   -----------------  -----------------  -----------------  -----------------
         C           -0.245181464029     1.905552236009    -4.476196890062    12.000000000000
         C            0.607818535971     1.864552236009    -2.019196890062    12.000000000000
         C            0.048818535971     2.520552236009    -3.167196890062    12.000000000000
         C            0.709818535971     2.841552236009    -0.994196890062    12.000000000000
         C           -0.149181464029     3.817552236009    -2.815196890062    12.000000000000
         C            1.563818535971     0.270552236009    -0.482196890062    12.000000000000
         C            1.641818535971     1.261552236009     0.507803109938    12.000000000000
         C            1.045818535971     0.557552236009    -1.751196890062    12.000000000000
         C            1.216818535971     2.553552236009     0.259803109938    12.000000000000
         N            0.245818535971     4.019552236009    -1.515196890062    14.003074004430
         H            1.889818535971    -0.730447763991    -0.254196890062     1.007825032230
         H            2.046818535971     1.014552236009     1.478803109938     1.007825032230
         H            1.000818535971    -0.202447763991    -2.516196890062     1.007825032230
         H            1.275818535971     3.317552236009     1.018803109938     1.007825032230
         H           -1.034181464029     2.471552236009    -4.975196890062     1.007825032230
         H           -0.628181464029     0.902552236009    -4.289196890062     1.007825032230
         H           -0.558181464029     4.583552236009    -3.468196890062     1.007825032230
         H            0.225818535971     4.915552236009    -1.040196890062     1.007825032230
         H            0.633627635971     1.837008036009    -5.134216890062     1.007825032230
         C            0.888818535971    -2.272447763991     4.416803109938    12.000000000000
         C           -0.934181464029    -1.585447763991     1.133803109938    12.000000000000
         C           -1.582181464029    -2.801447763991     0.916803109938    12.000000000000
         C           -0.134181464029    -1.419447763991     2.270803109938    12.000000000000
         C            0.044818535971    -2.464447763991     3.179803109938    12.000000000000
         C           -1.414181464029    -3.850447763991     1.820803109938    12.000000000000
         C           -0.615181464029    -3.672447763991     2.949803109938    12.000000000000
         O           -2.374181464029    -2.979447763991    -0.179196890062    15.994914619570
         H           -1.061181464029    -0.776447763991     0.428803109938     1.007825032230
         H            0.359818535971    -0.472447763991     2.434803109938     1.007825032230
         H           -1.885181464029    -4.803447763991     1.639803109938     1.007825032230
         H           -2.805181464029    -3.840447763991    -0.181196890062     1.007825032230
         H            0.382818535971    -2.774447763991     5.237803109938     1.007825032230
         H            0.943818535971    -1.216447763991     4.663803109938     1.007825032230
         H           -0.514181464029    -4.487447763991     3.652803109938     1.007825032230
         H            1.913441835971    -2.667474763991     4.352763109938     1.007825032230

  Running in c1 symmetry.

  Rotational constants: A =      0.02520  B =      0.00608  C =      0.00521 [cm^-1]
  Rotational constants: A =    755.39130  B =    182.21991  C =    156.18662 [MHz]
  Nuclear repulsion = 1167.010307202953527

  Charge       = 0
  Multiplicity = 1
  Electrons    = 128
  Nalpha       = 64
  Nbeta        = 64

  ==> Algorithm <==

  SCF Algorithm Type is PK.
  DIIS enabled.
  MOM disabled.
  Fractional occupation disabled.
  Guess Type is SAD.
  Energy threshold   = 1.00e-06
  Density threshold  = 1.00e-10
  Integral threshold = 0.00e+00

  ==> Primary Basis <==

  Basis Set: CC-PVDZ
    Blend: CC-PVDZ
    Number of shells: 159
    Number of basis function: 337
    Number of Cartesian functions: 355
    Spherical Harmonics?: true
    Max angular momentum: 2

  ==> Pre-Iterations <==

   -------------------------------------------------------
    Irrep   Nso     Nmo     Nalpha   Nbeta   Ndocc  Nsocc
   -------------------------------------------------------
     A        337     337       0       0       0       0
   -------------------------------------------------------
    Total     337     337      64      64      64       0
   -------------------------------------------------------

  ==> Integral Setup <==

  Using integral reordering PK algorithm.
  Sizing the integral batches needed.
  Building batch lookup table.
   Calculation information:
      Number of atoms:                  35
      Number of AO shells:             159
      Number of primitives:            481
      Number of atomic orbitals:       355
      Number of basis functions:       337

      Integral cutoff                 1.00e-12
      Number of threads:                 1

	Batch   1 pq = [       0,    9405] index = [             0,44231715] size =     44231715
	Batch   2 pq = [    9405,   13301] index = [      44231715,88464951] size =     44233236
	Batch   3 pq = [   13301,   16290] index = [      88464951,132690195] size =     44225244
	Batch   4 pq = [   16290,   18810] index = [     132690195,176917455] size =     44227260
	Batch   5 pq = [   18810,   21030] index = [     176917455,221140965] size =     44223510
	Batch   6 pq = [   21030,   23037] index = [     221140965,265363203] size =     44222238
	Batch   7 pq = [   23037,   24883] index = [     265363203,309594286] size =     44231083
	Batch   8 pq = [   24883,   26601] index = [     309594286,353819901] size =     44225615
	Batch   9 pq = [   26601,   28214] index = [     353819901,398029005] size =     44209104
	Batch  10 pq = [   28214,   29740] index = [     398029005,442248670] size =     44219665
	Batch  11 pq = [   29740,   31191] index = [     442248670,486454836] size =     44206166
	Batch  12 pq = [   31191,   32578] index = [     486454836,530679331] size =     44224495
	Batch  13 pq = [   32578,   33908] index = [     530679331,574893186] size =     44213855
	Batch  14 pq = [   33908,   35188] index = [     574893186,619115266] size =     44222080
	Batch  15 pq = [   35188,   36423] index = [     619115266,663335676] size =     44220410
	Batch  16 pq = [   36423,   37617] index = [     663335676,707538153] size =     44202477
	Batch  17 pq = [   37617,   38775] index = [     707538153,751769700] size =     44231547
	Batch  18 pq = [   38775,   39899] index = [     751769700,795985050] size =     44215350
	Batch  19 pq = [   39899,   40992] index = [     795985050,840192528] size =     44207478
	Batch  20 pq = [   40992,   42057] index = [     840192528,884416653] size =     44224125
	Batch  21 pq = [   42057,   43095] index = [     884416653,928611060] size =     44194407
	Batch  22 pq = [   43095,   44109] index = [     928611060,972823995] size =     44212935
	Batch  23 pq = [   44109,   45100] index = [     972823995,1017027550] size =     44203555
	Batch  24 pq = [   45100,   46070] index = [    1017027550,1061245485] size =     44217935
	Batch  25 pq = [   46070,   47020] index = [    1061245485,1105463710] size =     44218225
	Batch  26 pq = [   47020,   47951] index = [    1105463710,1149673176] size =     44209466
	Batch  27 pq = [   47951,   48864] index = [    1149673176,1193869680] size =     44196504
	Batch  28 pq = [   48864,   49761] index = [    1193869680,1238103441] size =     44233761
	Batch  29 pq = [   49761,   50642] index = [    1238103441,1282331403] size =     44227962
	Batch  30 pq = [   50642,   51508] index = [    1282331403,1326562786] size =     44231383
	Batch  31 pq = [   51508,   52359] index = [    1326562786,1370758620] size =     44195834
	Batch  32 pq = [   52359,   53197] index = [    1370758620,1414987003] size =     44228383
	Batch  33 pq = [   53197,   54022] index = [    1414987003,1459215253] size =     44228250
	Batch  34 pq = [   54022,   54834] index = [    1459215253,1503411195] size =     44195942
	Batch  35 pq = [   54834,   55634] index = [    1503411195,1547598795] size =     44187600
	Batch  36 pq = [   55634,   56423] index = [    1547598795,1591805676] size =     44206881
	Batch  37 pq = [   56423,   56953] index = [    1591805676,1621850581] size =     30044905
  Task number: 147
  Buffer size: 11059200
  Buffer per thread: 2
  We computed 75927568 shell quartets total.
  Whereas there are 80905560 unique shell quartets.

  ==> DiskJK: Disk-Based J/K Matrices <==

    J tasked:                  Yes
    K tasked:                  Yes
    wK tasked:                  No
    Memory [MiB]:              375
    Schwarz Cutoff:          1E-12

    OpenMP threads:              1

  Minimum eigenvalue in the overlap matrix is 2.4014354016E-04.
  Using Symmetric Orthogonalization.

  SCF Guess: Superposition of Atomic Densities via on-the-fly atomic UHF.

  ==> Iterations <==

                        Total Energy        Delta E     RMS |[F,P]|

   @RHF iter SAD:  -744.38786371789342   -7.44388e+02   0.00000e+00
   @RHF iter   1:  -744.78111203636126   -3.93248e-01   2.21138e-03 DIIS
   @RHF iter   2:  -745.09761699300918   -3.16505e-01   9.66126e-04 DIIS
   @RHF iter   3:  -745.15113281087747   -5.35158e-02   2.56839e-04 DIIS
   @RHF iter   4:  -745.15619136552016   -5.05855e-03   1.13293e-04 DIIS
   @RHF iter   5:  -745.15702305172749   -8.31686e-04   1.65179e-05 DIIS
   @RHF iter   6:  -745.15705895407041   -3.59023e-05   7.84801e-06 DIIS
   @RHF iter   7:  -745.15706606404331   -7.10997e-06   2.91964e-06 DIIS
   @RHF iter   8:  -745.15706775746355   -1.69342e-06   1.21130e-06 DIIS
   @RHF iter   9:  -745.15706808030893   -3.22845e-07   5.28776e-07 DIIS
   @RHF iter  10:  -745.15706815413910   -7.38302e-08   2.51030e-07 DIIS
   @RHF iter  11:  -745.15706817475393   -2.06148e-08   1.03885e-07 DIIS
   @RHF iter  12:  -745.15706817819330   -3.43937e-09   4.15413e-08 DIIS
   @RHF iter  13:  -745.15706817861360   -4.20300e-10   1.41248e-08 DIIS
   @RHF iter  14:  -745.15706817864793   -3.43334e-11   5.31816e-09 DIIS
   @RHF iter  15:  -745.15706817865009   -2.16005e-12   2.08843e-09 DIIS
   @RHF iter  16:  -745.15706817865760   -7.50333e-12   1.02015e-09 DIIS
   @RHF iter  17:  -745.15706817865600    1.59162e-12   5.35660e-10 DIIS
   @RHF iter  18:  -745.15706817865043    5.57066e-12   2.03532e-10 DIIS
   @RHF iter  19:  -745.15706817864452    5.91172e-12   8.84230e-11 DIIS
  Energy and wave function converged.

  ==> Post-Iterations <==

    Orbital Energies [Eh]
    ---------------------

    Doubly Occupied:

       1A    -20.576670     2A    -15.599458     3A    -11.293227
       4A    -11.261942     5A    -11.261557     6A    -11.233264
       7A    -11.231073     8A    -11.230134     9A    -11.228876
      10A    -11.228095    11A    -11.227642    12A    -11.227560
      13A    -11.223442    14A    -11.222386    15A    -11.222192
      16A    -11.219850    17A    -11.219695    18A    -11.213563
      19A     -1.392840    20A     -1.294706    21A     -1.142293
      22A     -1.126830    23A     -1.075358    24A     -1.030593
      25A     -1.009413    26A     -0.996192    27A     -0.987074
      28A     -0.930394    29A     -0.921087    30A     -0.839008
      31A     -0.836778    32A     -0.803122    33A     -0.795524
      34A     -0.750874    35A     -0.725575    36A     -0.719061
      37A     -0.662225    38A     -0.661213    39A     -0.641386
      40A     -0.634570    41A     -0.602564    42A     -0.600846
      43A     -0.592144    44A     -0.589533    45A     -0.579159
      46A     -0.578710    47A     -0.567014    48A     -0.565800
      49A     -0.560029    50A     -0.551272    51A     -0.538528
      52A     -0.525212    53A     -0.520824    54A     -0.493573
      55A     -0.492631    56A     -0.477697    57A     -0.470145
      58A     -0.461837    59A     -0.457456    60A     -0.371352
      61A     -0.330916    62A     -0.296056    63A     -0.292145
      64A     -0.273664

    Virtual:

      65A      0.124683    66A      0.135812    67A      0.158186
      68A      0.171987    69A      0.180252    70A      0.184425
      71A      0.185482    72A      0.193852    73A      0.209269
      74A      0.222566    75A      0.224606    76A      0.232281
      77A      0.238430    78A      0.247743    79A      0.265047
      80A      0.269964    81A      0.274423    82A      0.282681
      83A      0.290290    84A      0.293507    85A      0.301850
      86A      0.334843    87A      0.375604    88A      0.377173
      89A      0.378208    90A      0.389065    91A      0.410397
      92A      0.422431    93A      0.433375    94A      0.445151
      95A      0.462466    96A      0.474096    97A      0.480349
      98A      0.492394    99A      0.501448   100A      0.505100
     101A      0.509692   102A      0.514256   103A      0.596586
     104A      0.613437   105A      0.616834   106A      0.634431
     107A      0.636770   108A      0.645044   109A      0.656781
     110A      0.661827   111A      0.666615   112A      0.689671
     113A      0.691919   114A      0.701672   115A      0.706225
     116A      0.710559   117A      0.719442   118A      0.724106
     119A      0.729209   120A      0.736471   121A      0.741186
     122A      0.743367   123A      0.748246   124A      0.757588
     125A      0.759717   126A      0.763924   127A      0.769903
     128A      0.772126   129A      0.783658   130A      0.791938
     131A      0.797486   132A      0.798014   133A      0.807958
     134A      0.825847   135A      0.839500   136A      0.843188
     137A      0.857174   138A      0.866929   139A      0.869804
     140A      0.878959   141A      0.881247   142A      0.890356
     143A      0.891472   144A      0.897361   145A      0.902633
     146A      0.909515   147A      0.913643   148A      0.931207
     149A      0.939756   150A      0.945635   151A      0.948858
     152A      0.952010   153A      0.958781   154A      0.962574
     155A      0.967269   156A      0.988010   157A      0.992250
     158A      0.996986   159A      1.017712   160A      1.029987
     161A      1.050346   162A      1.056134   163A      1.068461
     164A      1.076448   165A      1.092797   166A      1.120022
     167A      1.128548   168A      1.136426   169A      1.141670
     170A      1.150646   171A      1.153060   172A      1.161268
     173A      1.184428   174A      1.192243   175A      1.216099
     176A      1.217712   177A      1.224946   178A      1.230509
     179A      1.236731   180A      1.243989   181A      1.254768
     182A      1.274010   183A      1.279355   184A      1.290333
     185A      1.293729   186A      1.297677   187A      1.301726
     188A      1.313617   189A      1.315737   190A      1.333140
     191A      1.339453   192A      1.356856   193A      1.359235
     194A      1.363141   195A      1.370861   196A      1.385528
     197A      1.399254   198A      1.429245   199A      1.448470
     200A      1.495024   201A      1.515304   202A      1.525626
     203A      1.530090   204A      1.555958   205A      1.561011
     206A      1.583761   207A      1.604180   208A      1.621117
     209A      1.627745   210A      1.630080   211A      1.644833
     212A      1.649724   213A      1.692214   214A      1.698158
     215A      1.703666   216A      1.708343   217A      1.735599
     218A      1.743770   219A      1.757874   220A      1.776180
     221A      1.779814   222A      1.785593   223A      1.792746
     224A      1.808941   225A      1.811738   226A      1.821454
     227A      1.827838   228A      1.842193   229A      1.873978
     230A      1.882799   231A      1.891920   232A      1.893824
     233A      1.898911   234A      1.906591   235A      1.908847
     236A      1.916456   237A      1.919584   238A      1.925851
     239A      1.927580   240A      1.937577   241A      1.953690
     242A      1.953896   243A      1.960087   244A      1.973690
     245A      1.982568   246A      1.986293   247A      1.995191
     248A      2.008730   249A      2.011950   250A      2.023183
     251A      2.043466   252A      2.050158   253A      2.064129
     254A      2.065540   255A      2.072061   256A      2.079252
     257A      2.080683   258A      2.089644   259A      2.094843
     260A      2.109937   261A      2.114486   262A      2.126933
     263A      2.147862   264A      2.149909   265A      2.161581
     266A      2.166047   267A      2.167690   268A      2.174516
     269A      2.181308   270A      2.216975   271A      2.224079
     272A      2.244639   273A      2.261775   274A      2.271863
     275A      2.284167   276A      2.289418   277A      2.304923
     278A      2.319605   279A      2.330403   280A      2.332379
     281A      2.353982   282A      2.365275   283A      2.378248
     284A      2.406915   285A      2.422742   286A      2.429020
     287A      2.453816   288A      2.462871   289A      2.464620
     290A      2.494322   291A      2.503506   292A      2.538272
     293A      2.540887   294A      2.547283   295A      2.589241
     296A      2.603613   297A      2.611603   298A      2.641846
     299A      2.647930   300A      2.669092   301A      2.685638
     302A      2.710390   303A      2.757985   304A      2.772769
     305A      2.776685   306A      2.785269   307A      2.788056
     308A      2.796049   309A      2.806999   310A      2.827259
     311A      2.834327   312A      2.857942   313A      2.873944
     314A      2.884602   315A      2.906021   316A      2.918769
     317A      2.966146   318A      2.978905   319A      3.004796
     320A      3.038441   321A      3.054540   322A      3.080993
     323A      3.094652   324A      3.120551   325A      3.124479
     326A      3.212278   327A      3.255336   328A      3.284175
     329A      3.313589   330A      3.353051   331A      3.387270
     332A      3.578176   333A      3.670809   334A      3.750643
     335A      3.955875   336A      3.975497   337A      4.192480

    Final Occupation by Irrep:
              A
    DOCC [    64 ]

  @RHF Final Energy:  -745.15706817864452

   => Energetics <=

    Nuclear Repulsion Energy =           1167.0103072029535269
    One-Electron Energy =               -3328.9630556778947721
    Two-Electron Energy =                1416.7956802962969505
    Total Energy =                       -745.1570681786445220

Computation Completed

Properties will be evaluated at   0.000000,   0.000000,   0.000000 [a0]

Properties computed using the SCF density matrix

  Nuclear Dipole Moment: [e a0]
     X:     2.0375      Y:    -2.7720      Z:     2.8624

  Electronic Dipole Moment: [e a0]
     X:    -2.2508      Y:     3.1654      Z:    -2.6953

  Dipole Moment: [e a0]
     X:    -0.2133      Y:     0.3934      Z:     0.1671     Total:     0.4777

  Dipole Moment: [D]
     X:    -0.5421      Y:     0.9999      Z:     0.4248     Total:     1.2142

*** tstop() called on ds3 at Tue Apr 28 03:09:22 2020
Module time:
	user time   =     725.12 seconds =      12.09 minutes
	system time =     318.43 seconds =       5.31 minutes
	total time  =       8323 seconds =     138.72 minutes
Total time:
	user time   =     725.12 seconds =      12.09 minutes
	system time =     318.43 seconds =       5.31 minutes
	total time  =       8323 seconds =     138.72 minutes
                                     G D M A

                                 by Anthony Stone

                           version 2.2.06, 22 June 2011

               Distributed Multipoles from Gaussian wavefunctions

Starting at 3:9:22 on 28 Apr 2020

Using SCF density matrix from file ./SSI/SSI-047TRP-083TYR-1-dimer.test.2108.fchk

                         Distributed Multipole Analysis

Standard DMA

Positions and radii in angstrom
Multipole moments in atomic units, ea_0^k for rank k

C          x = -0.245181  y =  1.905552  z = -4.476197 angstrom
           Maximum rank =  0   Radius =  0.650 angstrom
                   Q00  =  -0.208237

C          x =  0.607819  y =  1.864552  z = -2.019197 angstrom
           Maximum rank =  0   Radius =  0.650 angstrom
                   Q00  =  -0.053221

C          x =  0.048819  y =  2.520552  z = -3.167197 angstrom
           Maximum rank =  0   Radius =  0.650 angstrom
                   Q00  =  -0.115417

C          x =  0.709819  y =  2.841552  z = -0.994197 angstrom
           Maximum rank =  0   Radius =  0.650 angstrom
                   Q00  =   0.275145

C          x = -0.149181  y =  3.817552  z = -2.815197 angstrom
           Maximum rank =  0   Radius =  0.650 angstrom
                   Q00  =   0.070478

C          x =  1.563819  y =  0.270552  z = -0.482197 angstrom
           Maximum rank =  0   Radius =  0.650 angstrom
                   Q00  =  -0.100497

C          x =  1.641819  y =  1.261552  z =  0.507803 angstrom
           Maximum rank =  0   Radius =  0.650 angstrom
                   Q00  =  -0.044806

C          x =  1.045819  y =  0.557552  z = -1.751197 angstrom
           Maximum rank =  0   Radius =  0.650 angstrom
                   Q00  =  -0.102291

C          x =  1.216819  y =  2.553552  z =  0.259803 angstrom
           Maximum rank =  0   Radius =  0.650 angstrom
                   Q00  =  -0.119618

N          x =  0.245819  y =  4.019552  z = -1.515197 angstrom
           Maximum rank =  0   Radius =  0.650 angstrom
                   Q00  =  -0.496223

H          x =  1.889819  y = -0.730448  z = -0.254197 angstrom
           Maximum rank =  0   Radius =  0.325 angstrom
                   Q00  =   0.069388

H          x =  2.046819  y =  1.014552  z =  1.478803 angstrom
           Maximum rank =  0   Radius =  0.325 angstrom
                   Q00  =   0.061968

H          x =  1.000819  y = -0.202448  z = -2.516197 angstrom
           Maximum rank =  0   Radius =  0.325 angstrom
                   Q00  =   0.073930

H          x =  1.275819  y =  3.317552  z =  1.018803 angstrom
           Maximum rank =  0   Radius =  0.325 angstrom
                   Q00  =   0.072808

H          x = -1.034181  y =  2.471552  z = -4.975197 angstrom
           Maximum rank =  0   Radius =  0.325 angstrom
                   Q00  =   0.102518

H          x = -0.628181  y =  0.902552  z = -4.289197 angstrom
           Maximum rank =  0   Radius =  0.325 angstrom
                   Q00  =   0.101644

H          x = -0.558181  y =  4.583552  z = -3.468197 angstrom
           Maximum rank =  0   Radius =  0.325 angstrom
                   Q00  =   0.099541

H          x =  0.225819  y =  4.915552  z = -1.040197 angstrom
           Maximum rank =  0   Radius =  0.325 angstrom
                   Q00  =   0.217171

H          x =  0.633628  y =  1.837008  z = -5.134217 angstrom
           Maximum rank =  0   Radius =  0.325 angstrom
                   Q00  =   0.096946

C          x =  0.888819  y = -2.272448  z =  4.416803 angstrom
           Maximum rank =  0   Radius =  0.650 angstrom
                   Q00  =  -0.193923

C          x = -0.934181  y = -1.585448  z =  1.133803 angstrom
           Maximum rank =  0   Radius =  0.650 angstrom
                   Q00  =  -0.119818

C          x = -1.582181  y = -2.801448  z =  0.916803 angstrom
           Maximum rank =  0   Radius =  0.650 angstrom
                   Q00  =   0.312457

C          x = -0.134181  y = -1.419448  z =  2.270803 angstrom
           Maximum rank =  0   Radius =  0.650 angstrom
                   Q00  =  -0.008222

C          x =  0.044819  y = -2.464448  z =  3.179803 angstrom
           Maximum rank =  0   Radius =  0.650 angstrom
                   Q00  =  -0.147050

C          x = -1.414181  y = -3.850448  z =  1.820803 angstrom
           Maximum rank =  0   Radius =  0.650 angstrom
                   Q00  =  -0.179282

C          x = -0.615181  y = -3.672448  z =  2.949803 angstrom
           Maximum rank =  0   Radius =  0.650 angstrom
                   Q00  =   0.028697

O          x = -2.374181  y = -2.979448  z = -0.179197 angstrom
           Maximum rank =  0   Radius =  0.650 angstrom
                   Q00  =  -0.675626

H          x = -1.061181  y = -0.776448  z =  0.428803 angstrom
           Maximum rank =  0   Radius =  0.325 angstrom
                   Q00  =   0.092695

H          x =  0.359819  y = -0.472448  z =  2.434803 angstrom
           Maximum rank =  0   Radius =  0.325 angstrom
                   Q00  =   0.060928

H          x = -1.885181  y = -4.803448  z =  1.639803 angstrom
           Maximum rank =  0   Radius =  0.325 angstrom
                   Q00  =   0.069304

H          x = -2.805181  y = -3.840448  z = -0.181197 angstrom
           Maximum rank =  0   Radius =  0.325 angstrom
                   Q00  =   0.404712

H          x =  0.382819  y = -2.774448  z =  5.237803 angstrom
           Maximum rank =  0   Radius =  0.325 angstrom
                   Q00  =   0.094238

H          x =  0.943819  y = -1.216448  z =  4.663803 angstrom
           Maximum rank =  0   Radius =  0.325 angstrom
                   Q00  =   0.096070

H          x = -0.514181  y = -4.487448  z =  3.652803 angstrom
           Maximum rank =  0   Radius =  0.325 angstrom
                   Q00  =   0.065470

H          x =  1.913442  y = -2.667475  z =  4.352763 angstrom
           Maximum rank =  0   Radius =  0.325 angstrom
                   Q00  =   0.098126

Total multipoles referred to origin at
           x =   0.000000,  y =    0.000000,  z =    0.000000 angstrom
                   Q00  =  -0.000000

Finished at 3:9:22 on 28 Apr 2020

  DMA results are available in the Python driver through the
	  variable('DMA DISTRIBUTED MULTIPOLES')
  and
	  variable('DMA TOTAL MULTIPOLES')
  commands.

    Psi4 stopped on: Tuesday, 28 April 2020 03:09AM
    Psi4 wall time for execution: 2:18:43.28

*** Psi4 exiting successfully. Buy a developer a beer!
