                               Psi4 1.3.2 release

  ==> Input File <==

--------------------------------------------------------------------------
import numpy as np
set {scf_type pk
basis cc-pvdz
d_convergence 10
gdma_switch   0
gdma_limit    0
gdma_origin   [ 0.0,  0.0,  0.0 ]
}
molecule test {
    units Angstrom
    0 1
    --
    0 1
    C               -1.447514890112030    -0.462846382826388     1.929990067466540
    O               -0.673514890112030    -0.796846382826388     0.786990067466540
    H               -0.293514890112030    -1.694846382826388     0.873990067466540
    H               -2.104514890112030    -1.294846382826388     2.184990067466540
    H               -2.060514890112030     0.408153617173612     1.694990067466540
    H               -0.783024890112030    -0.228746382826388     2.774773067466540
    C                1.761485109887970     0.748153617173612    -1.425009932533460
    O                0.359485109887970     0.605153617173612    -1.333009932533460
    H                0.127485109887970     0.132153617173612    -0.510009932533460
    H                2.218485109887970    -0.239846382826388    -1.388009932533460
    H                1.986025109887970     1.222493617173612    -2.391746932533460
    H                2.155065109887969     1.340683617173612    -0.585956932533460

}
e, wfn = energy('scf', return_wfn=True)
gdma(wfn)
dmavals = variable('DMA DISTRIBUTED MULTIPOLES')
charges = np.array(dmavals)
print(charges)
np.save('SSI-028SER-055THR-1-dimer.npy', np.array(charges))--------------------------------------------------------------------------

*** tstart() called on ds3
*** at Mon Apr 27 10:03:55 2020

   => Loading Basis Set <=

    Name: CC-PVDZ
    Role: ORBITAL
    Keyword: BASIS
    atoms 1, 7      entry C          line   138 file /theoryfs2/ds/metcalf/miniconda2/envs/tf2gpu/share/psi4/basis/cc-pvdz.gbs
    atoms 2, 8      entry O          line   198 file /theoryfs2/ds/metcalf/miniconda2/envs/tf2gpu/share/psi4/basis/cc-pvdz.gbs
    atoms 3-6, 9-12 entry H          line    22 file /theoryfs2/ds/metcalf/miniconda2/envs/tf2gpu/share/psi4/basis/cc-pvdz.gbs

         ---------------------------------------------------------
                                   SCF
               by Justin Turney, Rob Parrish, Andy Simmonett
                          and Daniel G. A. Smith
                              RHF Reference
                        1 Threads,    500 MiB Core
         ---------------------------------------------------------

  ==> Geometry <==

    Molecular point group: c1
    Full point group: C1

    Geometry (in Angstrom), charge = 0, multiplicity = 1:

       Center              X                  Y                   Z               Mass
    ------------   -----------------  -----------------  -----------------  -----------------
         C           -1.447514890112    -0.462846382826     1.929990067467    12.000000000000
         O           -0.673514890112    -0.796846382826     0.786990067467    15.994914619570
         H           -0.293514890112    -1.694846382826     0.873990067467     1.007825032230
         H           -2.104514890112    -1.294846382826     2.184990067467     1.007825032230
         H           -2.060514890112     0.408153617174     1.694990067467     1.007825032230
         H           -0.783024890112    -0.228746382826     2.774773067467     1.007825032230
         C            1.761485109888     0.748153617174    -1.425009932533    12.000000000000
         O            0.359485109888     0.605153617174    -1.333009932533    15.994914619570
         H            0.127485109888     0.132153617174    -0.510009932533     1.007825032230
         H            2.218485109888    -0.239846382826    -1.388009932533     1.007825032230
         H            1.986025109888     1.222493617174    -2.391746932533     1.007825032230
         H            2.155065109888     1.340683617174    -0.585956932533     1.007825032230

  Running in c1 symmetry.

  Rotational constants: A =      0.76606  B =      0.06808  C =      0.06721 [cm^-1]
  Rotational constants: A =  22965.78260  B =   2040.91697  C =   2014.89177 [MHz]
  Nuclear repulsion =  127.714801117683933

  Charge       = 0
  Multiplicity = 1
  Electrons    = 36
  Nalpha       = 18
  Nbeta        = 18

  ==> Algorithm <==

  SCF Algorithm Type is PK.
  DIIS enabled.
  MOM disabled.
  Fractional occupation disabled.
  Guess Type is SAD.
  Energy threshold   = 1.00e-06
  Density threshold  = 1.00e-10
  Integral threshold = 0.00e+00

  ==> Primary Basis <==

  Basis Set: CC-PVDZ
    Blend: CC-PVDZ
    Number of shells: 48
    Number of basis function: 96
    Number of Cartesian functions: 100
    Spherical Harmonics?: true
    Max angular momentum: 2

  ==> Pre-Iterations <==

   -------------------------------------------------------
    Irrep   Nso     Nmo     Nalpha   Nbeta   Ndocc  Nsocc
   -------------------------------------------------------
     A         96      96       0       0       0       0
   -------------------------------------------------------
    Total      96      96      18      18      18       0
   -------------------------------------------------------

  ==> Integral Setup <==

  Using in-core PK algorithm.
   Calculation information:
      Number of atoms:                  12
      Number of AO shells:              48
      Number of primitives:            128
      Number of atomic orbitals:       100
      Number of basis functions:        96

      Integral cutoff                 1.00e-12
      Number of threads:                 1

  Performing in-core PK
  Using 21682992 doubles for integral storage.
  We computed 578984 shell quartets total.
  Whereas there are 692076 unique shell quartets.

  ==> DiskJK: Disk-Based J/K Matrices <==

    J tasked:                  Yes
    K tasked:                  Yes
    wK tasked:                  No
    Memory [MiB]:              375
    Schwarz Cutoff:          1E-12

    OpenMP threads:              1

  Minimum eigenvalue in the overlap matrix is 1.5438687953E-02.
  Using Symmetric Orthogonalization.

  SCF Guess: Superposition of Atomic Densities via on-the-fly atomic UHF.

  ==> Iterations <==

                        Total Energy        Delta E     RMS |[F,P]|

   @RHF iter SAD:  -228.86249379298135   -2.28862e+02   0.00000e+00
   @RHF iter   1:  -229.97940021415161   -1.11691e+00   5.07875e-03 DIIS
   @RHF iter   2:  -230.07805597358833   -9.86558e-02   2.56927e-03 DIIS
   @RHF iter   3:  -230.10037604328721   -2.23201e-02   4.64503e-04 DIIS
   @RHF iter   4:  -230.10182651259362   -1.45047e-03   1.12840e-04 DIIS
   @RHF iter   5:  -230.10190853951994   -8.20269e-05   2.89305e-05 DIIS
   @RHF iter   6:  -230.10191468026977   -6.14075e-06   6.95623e-06 DIIS
   @RHF iter   7:  -230.10191523880633   -5.58537e-07   1.65436e-06 DIIS
   @RHF iter   8:  -230.10191526990340   -3.10971e-08   7.03177e-07 DIIS
   @RHF iter   9:  -230.10191527294174   -3.03834e-09   1.38893e-07 DIIS
   @RHF iter  10:  -230.10191527314777   -2.06029e-10   2.87536e-08 DIIS
   @RHF iter  11:  -230.10191527315743   -9.66338e-12   7.75648e-09 DIIS
   @RHF iter  12:  -230.10191527315729    1.42109e-13   2.14832e-09 DIIS
   @RHF iter  13:  -230.10191527315845   -1.16529e-12   5.27196e-10 DIIS
   @RHF iter  14:  -230.10191527315826    1.98952e-13   1.69139e-10 DIIS
   @RHF iter  15:  -230.10191527315880   -5.40012e-13   7.11113e-11 DIIS
  Energy and wave function converged.

  ==> Post-Iterations <==

    Orbital Energies [Eh]
    ---------------------

    Doubly Occupied:

       1A    -20.579083     2A    -20.505165     3A    -11.293346
       4A    -11.253300     5A     -1.374717     6A     -1.310089
       7A     -0.940477     8A     -0.893214     9A     -0.705683
      10A     -0.661734    11A     -0.636072    12A     -0.607104
      13A     -0.588811    14A     -0.558957    15A     -0.515834
      16A     -0.469793    17A     -0.455689    18A     -0.406157

    Virtual:

      19A      0.163631    20A      0.201187    21A      0.219629
      22A      0.253045    23A      0.255739    24A      0.280164
      25A      0.282642    26A      0.321262    27A      0.352962
      28A      0.450525    29A      0.610652    30A      0.627220
      31A      0.652600    32A      0.664395    33A      0.706864
      34A      0.762113    35A      0.791921    36A      0.825956
      37A      0.847009    38A      0.870055    39A      0.883334
      40A      0.888303    41A      0.908262    42A      0.933057
      43A      1.112197    44A      1.127694    45A      1.145809
      46A      1.162777    47A      1.179218    48A      1.200100
      49A      1.265971    50A      1.301534    51A      1.374558
      52A      1.423521    53A      1.517007    54A      1.578527
      55A      1.597520    56A      1.652756    57A      1.673602
      58A      1.683209    59A      1.720128    60A      1.761103
      61A      1.842711    62A      1.879568    63A      1.891654
      64A      1.911690    65A      1.917475    66A      1.937917
      67A      1.955295    68A      1.984995    69A      2.009899
      70A      2.067843    71A      2.133558    72A      2.188622
      73A      2.263533    74A      2.318595    75A      2.348720
      76A      2.365830    77A      2.388415    78A      2.452864
      79A      2.482016    80A      2.709394    81A      2.740834
      82A      2.746373    83A      2.750095    84A      2.768339
      85A      2.788287    86A      2.849035    87A      3.265328
      88A      3.333702    89A      3.362501    90A      3.401205
      91A      3.437444    92A      3.474507    93A      3.573444
      94A      3.649416    95A      4.054581    96A      4.161951

    Final Occupation by Irrep:
              A
    DOCC [    18 ]

  @RHF Final Energy:  -230.10191527315880

   => Energetics <=

    Nuclear Repulsion Energy =            127.7148011176839333
    One-Electron Energy =                -568.1229808727583759
    Two-Electron Energy =                 210.3062644819156617
    Total Energy =                       -230.1019152731587951

Computation Completed

Properties will be evaluated at   0.000000,   0.000000,   0.000000 [a0]

Properties computed using the SCF density matrix

  Nuclear Dipole Moment: [e a0]
     X:     1.1661      Y:    -0.3335      Z:     2.4845

  Electronic Dipole Moment: [e a0]
     X:    -1.0780      Y:    -0.4690      Z:    -1.1822

  Dipole Moment: [e a0]
     X:     0.0881      Y:    -0.8026      Z:     1.3023     Total:     1.5323

  Dipole Moment: [D]
     X:     0.2239      Y:    -2.0399      Z:     3.3101     Total:     3.8946

*** tstop() called on ds3 at Mon Apr 27 10:04:00 2020
Module time:
	user time   =       4.07 seconds =       0.07 minutes
	system time =       0.07 seconds =       0.00 minutes
	total time  =          5 seconds =       0.08 minutes
Total time:
	user time   =       4.07 seconds =       0.07 minutes
	system time =       0.07 seconds =       0.00 minutes
	total time  =          5 seconds =       0.08 minutes
                                     G D M A

                                 by Anthony Stone

                           version 2.2.06, 22 June 2011

               Distributed Multipoles from Gaussian wavefunctions

Starting at 10:4:0 on 27 Apr 2020

Using SCF density matrix from file ./SSI/SSI-028SER-055THR-1-dimer.test.2301.fchk

                         Distributed Multipole Analysis

Standard DMA

Positions and radii in angstrom
Multipole moments in atomic units, ea_0^k for rank k

C          x = -1.447515  y = -0.462846  z =  1.929990 angstrom
           Maximum rank =  0   Radius =  0.650 angstrom
                   Q00  =  -0.047443

O          x = -0.673515  y = -0.796846  z =  0.786990 angstrom
           Maximum rank =  0   Radius =  0.650 angstrom
                   Q00  =  -0.630439

H          x = -0.293515  y = -1.694846  z =  0.873990 angstrom
           Maximum rank =  0   Radius =  0.325 angstrom
                   Q00  =   0.399142

H          x = -2.104515  y = -1.294846  z =  2.184990 angstrom
           Maximum rank =  0   Radius =  0.325 angstrom
                   Q00  =   0.082415

H          x = -2.060515  y =  0.408154  z =  1.694990 angstrom
           Maximum rank =  0   Radius =  0.325 angstrom
                   Q00  =   0.125575

H          x = -0.783025  y = -0.228746  z =  2.774773 angstrom
           Maximum rank =  0   Radius =  0.325 angstrom
                   Q00  =   0.079671

C          x =  1.761485  y =  0.748154  z = -1.425010 angstrom
           Maximum rank =  0   Radius =  0.650 angstrom
                   Q00  =  -0.026780

O          x =  0.359485  y =  0.605154  z = -1.333010 angstrom
           Maximum rank =  0   Radius =  0.650 angstrom
                   Q00  =  -0.660010

H          x =  0.127485  y =  0.132154  z = -0.510010 angstrom
           Maximum rank =  0   Radius =  0.325 angstrom
                   Q00  =   0.475077

H          x =  2.218485  y = -0.239846  z = -1.388010 angstrom
           Maximum rank =  0   Radius =  0.325 angstrom
                   Q00  =   0.048753

H          x =  1.986025  y =  1.222494  z = -2.391747 angstrom
           Maximum rank =  0   Radius =  0.325 angstrom
                   Q00  =   0.101810

H          x =  2.155065  y =  1.340684  z = -0.585957 angstrom
           Maximum rank =  0   Radius =  0.325 angstrom
                   Q00  =   0.052230

Total multipoles referred to origin at
           x =   0.000000,  y =    0.000000,  z =    0.000000 angstrom
                   Q00  =  -0.000000

Finished at 10:4:0 on 27 Apr 2020

  DMA results are available in the Python driver through the
	  variable('DMA DISTRIBUTED MULTIPOLES')
  and
	  variable('DMA TOTAL MULTIPOLES')
  commands.

    Psi4 stopped on: Monday, 27 April 2020 10:04AM
    Psi4 wall time for execution: 0:00:04.57

*** Psi4 exiting successfully. Buy a developer a beer!
