                               Psi4 1.3.2 release

  ==> Input File <==

--------------------------------------------------------------------------
import numpy as np
set {scf_type pk
basis cc-pvdz
d_convergence 10
gdma_switch   0
gdma_limit    0
gdma_origin   [ 0.0,  0.0,  0.0 ]
}
molecule test {
    units Angstrom
    0 1
    --
    0 1
    C               -2.585634010981924     0.753057011674015    -0.339211024883574
    C               -3.262634010981924     0.470057011674015    -1.697211024883574
    C               -1.526634010981924     1.857057011674015    -0.478211024883574
    C               -3.639634010981924     1.191057011674015     0.685788975116426
    H               -2.103634010981924    -0.158942988325985     0.015788975116426
    H               -3.753634010981925     1.391057011674015    -2.004211024883574
    H               -1.985634010981924     2.786057011674015    -0.819211024883574
    H               -1.037634010981924     2.028057011674016     0.479788975116426
    H               -0.743634010981924     1.563057011674015    -1.174211024883574
    H               -4.087634010981924     2.137057011674016     0.375788975116426
    H               -4.428634010981924     0.457057011674015     0.734788975116426
    H               -4.003662010981924    -0.340462988325985    -1.634514024883574
    H               -2.509765510981924     0.223227011674015    -2.460273024883574
    H               -3.250823810981924     1.296967011674015     1.709316975116426
    C                1.695365989018076    -0.122942988325985    -2.105211024883574
    C                0.657365989018076    -1.159942988325985    -0.036211024883574
    C                1.720365989018076    -0.475942988325985    -0.631211024883574
    C                0.678365989018076    -1.450942988325985     1.331788975116426
    C                2.804365989018076    -0.092942988325985     0.162788975116426
    C                1.788365989018076    -1.117942988325985     2.096788975116426
    C                2.847365989018075    -0.425942988325985     1.518788975116426
    H               -0.187634010981924    -1.471942988325985    -0.632211024883574
    H               -0.143634010981924    -1.985942988325985     1.778788975116426
    H                2.315365989018076     0.763057011674015    -2.250211024883574
    H                0.684365989018076     0.151057011674015    -2.389211024883573
    H                3.629365989018076     0.449057011674015    -0.278211024883574
    H                1.820365989018076    -1.379942988325985     3.145788975116426
    H                3.702365989018076    -0.144942988325985     2.118788975116426
    H                2.069481989018076    -0.912662988325985    -2.773326024883573

}
e, wfn = energy('scf', return_wfn=True)
gdma(wfn)
dmavals = variable('DMA DISTRIBUTED MULTIPOLES')
charges = np.array(dmavals)
print(charges)
np.save('SSI-042ILE-056PHE-1-dimer.npy', np.array(charges))--------------------------------------------------------------------------

*** tstart() called on ds3
*** at Sun Apr 26 17:35:47 2020

   => Loading Basis Set <=

    Name: CC-PVDZ
    Role: ORBITAL
    Keyword: BASIS
    atoms 1-4, 15-21  entry C          line   138 file /theoryfs2/ds/metcalf/miniconda2/envs/tf2gpu/share/psi4/basis/cc-pvdz.gbs
    atoms 5-14, 22-29 entry H          line    22 file /theoryfs2/ds/metcalf/miniconda2/envs/tf2gpu/share/psi4/basis/cc-pvdz.gbs

         ---------------------------------------------------------
                                   SCF
               by Justin Turney, Rob Parrish, Andy Simmonett
                          and Daniel G. A. Smith
                              RHF Reference
                        1 Threads,    500 MiB Core
         ---------------------------------------------------------

  ==> Geometry <==

    Molecular point group: c1
    Full point group: C1

    Geometry (in Angstrom), charge = 0, multiplicity = 1:

       Center              X                  Y                   Z               Mass
    ------------   -----------------  -----------------  -----------------  -----------------
         C           -2.585634010982     0.753057011674    -0.339211024884    12.000000000000
         C           -3.262634010982     0.470057011674    -1.697211024884    12.000000000000
         C           -1.526634010982     1.857057011674    -0.478211024884    12.000000000000
         C           -3.639634010982     1.191057011674     0.685788975116    12.000000000000
         H           -2.103634010982    -0.158942988326     0.015788975116     1.007825032230
         H           -3.753634010982     1.391057011674    -2.004211024884     1.007825032230
         H           -1.985634010982     2.786057011674    -0.819211024884     1.007825032230
         H           -1.037634010982     2.028057011674     0.479788975116     1.007825032230
         H           -0.743634010982     1.563057011674    -1.174211024884     1.007825032230
         H           -4.087634010982     2.137057011674     0.375788975116     1.007825032230
         H           -4.428634010982     0.457057011674     0.734788975116     1.007825032230
         H           -4.003662010982    -0.340462988326    -1.634514024884     1.007825032230
         H           -2.509765510982     0.223227011674    -2.460273024884     1.007825032230
         H           -3.250823810982     1.296967011674     1.709316975116     1.007825032230
         C            1.695365989018    -0.122942988326    -2.105211024884    12.000000000000
         C            0.657365989018    -1.159942988326    -0.036211024884    12.000000000000
         C            1.720365989018    -0.475942988326    -0.631211024884    12.000000000000
         C            0.678365989018    -1.450942988326     1.331788975116    12.000000000000
         C            2.804365989018    -0.092942988326     0.162788975116    12.000000000000
         C            1.788365989018    -1.117942988326     2.096788975116    12.000000000000
         C            2.847365989018    -0.425942988326     1.518788975116    12.000000000000
         H           -0.187634010982    -1.471942988326    -0.632211024884     1.007825032230
         H           -0.143634010982    -1.985942988326     1.778788975116     1.007825032230
         H            2.315365989018     0.763057011674    -2.250211024884     1.007825032230
         H            0.684365989018     0.151057011674    -2.389211024884     1.007825032230
         H            3.629365989018     0.449057011674    -0.278211024884     1.007825032230
         H            1.820365989018    -1.379942988326     3.145788975116     1.007825032230
         H            3.702365989018    -0.144942988326     2.118788975116     1.007825032230
         H            2.069481989018    -0.912662988326    -2.773326024884     1.007825032230

  Running in c1 symmetry.

  Rotational constants: A =      0.05248  B =      0.01646  C =      0.01429 [cm^-1]
  Rotational constants: A =   1573.35570  B =    493.52562  C =    428.33536 [MHz]
  Nuclear repulsion =  579.248321660826946

  Charge       = 0
  Multiplicity = 1
  Electrons    = 84
  Nalpha       = 42
  Nbeta        = 42

  ==> Algorithm <==

  SCF Algorithm Type is PK.
  DIIS enabled.
  MOM disabled.
  Fractional occupation disabled.
  Guess Type is SAD.
  Energy threshold   = 1.00e-06
  Density threshold  = 1.00e-10
  Integral threshold = 0.00e+00

  ==> Primary Basis <==

  Basis Set: CC-PVDZ
    Blend: CC-PVDZ
    Number of shells: 120
    Number of basis function: 244
    Number of Cartesian functions: 255
    Spherical Harmonics?: true
    Max angular momentum: 2

  ==> Pre-Iterations <==

   -------------------------------------------------------
    Irrep   Nso     Nmo     Nalpha   Nbeta   Ndocc  Nsocc
   -------------------------------------------------------
     A        244     244       0       0       0       0
   -------------------------------------------------------
    Total     244     244      42      42      42       0
   -------------------------------------------------------

  ==> Integral Setup <==

  Using integral reordering PK algorithm.
  Sizing the integral batches needed.
  Building batch lookup table.
   Calculation information:
      Number of atoms:                  29
      Number of AO shells:             120
      Number of primitives:            332
      Number of atomic orbitals:       255
      Number of basis functions:       244

      Integral cutoff                 1.00e-12
      Number of threads:                 1

	Batch   1 pq = [       0,    9405] index = [             0,44231715] size =     44231715
	Batch   2 pq = [    9405,   13301] index = [      44231715,88464951] size =     44233236
	Batch   3 pq = [   13301,   16290] index = [      88464951,132690195] size =     44225244
	Batch   4 pq = [   16290,   18810] index = [     132690195,176917455] size =     44227260
	Batch   5 pq = [   18810,   21030] index = [     176917455,221140965] size =     44223510
	Batch   6 pq = [   21030,   23037] index = [     221140965,265363203] size =     44222238
	Batch   7 pq = [   23037,   24883] index = [     265363203,309594286] size =     44231083
	Batch   8 pq = [   24883,   26601] index = [     309594286,353819901] size =     44225615
	Batch   9 pq = [   26601,   28214] index = [     353819901,398029005] size =     44209104
	Batch  10 pq = [   28214,   29740] index = [     398029005,442248670] size =     44219665
	Batch  11 pq = [   29740,   29890] index = [     442248670,446720995] size =      4472325
  Task number: 41
  Buffer size: 11059200
  Buffer per thread: 2
  We computed 26296540 shell quartets total.
  Whereas there are 26357430 unique shell quartets.

  ==> DiskJK: Disk-Based J/K Matrices <==

    J tasked:                  Yes
    K tasked:                  Yes
    wK tasked:                  No
    Memory [MiB]:              375
    Schwarz Cutoff:          1E-12

    OpenMP threads:              1

  Minimum eigenvalue in the overlap matrix is 3.1521142515E-04.
  Using Symmetric Orthogonalization.

  SCF Guess: Superposition of Atomic Densities via on-the-fly atomic UHF.

  ==> Iterations <==

                        Total Energy        Delta E     RMS |[F,P]|

   @RHF iter SAD:  -425.86396177545663   -4.25864e+02   0.00000e+00
   @RHF iter   1:  -426.77558037581457   -9.11619e-01   2.63502e-03 DIIS
   @RHF iter   2:  -427.02294630714664   -2.47366e-01   1.11263e-03 DIIS
   @RHF iter   3:  -427.06287269339157   -3.99264e-02   2.44413e-04 DIIS
   @RHF iter   4:  -427.06615179814014   -3.27910e-03   5.65436e-05 DIIS
   @RHF iter   5:  -427.06627533394936   -1.23536e-04   1.35523e-05 DIIS
   @RHF iter   6:  -427.06628305714719   -7.72320e-06   4.26299e-06 DIIS
   @RHF iter   7:  -427.06628381906188   -7.61915e-07   1.24802e-06 DIIS
   @RHF iter   8:  -427.06628389531522   -7.62533e-08   2.91657e-07 DIIS
   @RHF iter   9:  -427.06628390412880   -8.81357e-09   1.26691e-07 DIIS
   @RHF iter  10:  -427.06628390589623   -1.76743e-09   5.87334e-08 DIIS
   @RHF iter  11:  -427.06628390646313   -5.66899e-10   2.78536e-08 DIIS
   @RHF iter  12:  -427.06628390659688   -1.33753e-10   1.13083e-08 DIIS
   @RHF iter  13:  -427.06628390661160   -1.47224e-11   4.00116e-09 DIIS
   @RHF iter  14:  -427.06628390661325   -1.64846e-12   1.03273e-09 DIIS
   @RHF iter  15:  -427.06628390661274    5.11591e-13   2.89087e-10 DIIS
   @RHF iter  16:  -427.06628390660927    3.46745e-12   9.52966e-11 DIIS
  Energy and wave function converged.

  ==> Post-Iterations <==

    Orbital Energies [Eh]
    ---------------------

    Doubly Occupied:

       1A    -11.242736     2A    -11.236460     3A    -11.236207
       4A    -11.232416     5A    -11.232290     6A    -11.231891
       7A    -11.230374     8A    -11.223569     9A    -11.216584
      10A    -11.211236    11A    -11.209123    12A     -1.151496
      13A     -1.076247    14A     -1.043604    15A     -1.010716
      16A     -0.931943    17A     -0.922662    18A     -0.922644
      19A     -0.825567    20A     -0.795703    21A     -0.763785
      22A     -0.691357    23A     -0.633226    24A     -0.630658
      25A     -0.628296    26A     -0.585645    27A     -0.583418
      28A     -0.582136    29A     -0.574585    30A     -0.562578
      31A     -0.535729    32A     -0.531713    33A     -0.530110
      34A     -0.504661    35A     -0.487909    36A     -0.485406
      37A     -0.481393    38A     -0.459479    39A     -0.454509
      40A     -0.453606    41A     -0.331179    42A     -0.323385

    Virtual:

      43A      0.134086    44A      0.138025    45A      0.166309
      46A      0.192626    47A      0.197663    48A      0.212549
      49A      0.224875    50A      0.231794    51A      0.242456
      52A      0.245769    53A      0.256245    54A      0.257450
      55A      0.267863    56A      0.279377    57A      0.288541
      58A      0.307830    59A      0.309271    60A      0.316984
      61A      0.331639    62A      0.350030    63A      0.364254
      64A      0.369527    65A      0.396340    66A      0.408431
      67A      0.413859    68A      0.453035    69A      0.462083
      70A      0.490828    71A      0.496843    72A      0.553887
      73A      0.562736    74A      0.567787    75A      0.597730
      76A      0.603221    77A      0.617898    78A      0.630182
      79A      0.671003    80A      0.681712    81A      0.697491
      82A      0.712638    83A      0.716699    84A      0.730692
      85A      0.739820    86A      0.744843    87A      0.748423
      88A      0.760934    89A      0.764677    90A      0.774232
      91A      0.784579    92A      0.791452    93A      0.821775
      94A      0.831750    95A      0.838717    96A      0.852586
      97A      0.862888    98A      0.864791    99A      0.871602
     100A      0.880683   101A      0.887065   102A      0.890080
     103A      0.896908   104A      0.900645   105A      0.903456
     106A      0.908416   107A      0.922521   108A      0.925253
     109A      0.937420   110A      0.943169   111A      0.956316
     112A      0.967081   113A      0.972771   114A      0.974964
     115A      0.991160   116A      1.000179   117A      1.014135
     118A      1.040227   119A      1.061654   120A      1.078006
     121A      1.121599   122A      1.130309   123A      1.137934
     124A      1.143173   125A      1.150780   126A      1.159991
     127A      1.185506   128A      1.207266   129A      1.236898
     130A      1.243894   131A      1.254100   132A      1.259058
     133A      1.298355   134A      1.307169   135A      1.316470
     136A      1.330340   137A      1.368637   138A      1.396902
     139A      1.408128   140A      1.417428   141A      1.508541
     142A      1.514863   143A      1.548535   144A      1.552257
     145A      1.570844   146A      1.601896   147A      1.662983
     148A      1.671190   149A      1.681114   150A      1.685800
     151A      1.694161   152A      1.702781   153A      1.709026
     154A      1.720210   155A      1.731439   156A      1.745102
     157A      1.748228   158A      1.765806   159A      1.791792
     160A      1.807076   161A      1.842697   162A      1.854983
     163A      1.857379   164A      1.864804   165A      1.889072
     166A      1.902466   167A      1.914228   168A      1.918190
     169A      1.926694   170A      1.939442   171A      1.941089
     172A      1.943532   173A      1.949954   174A      1.951175
     175A      1.964008   176A      1.973307   177A      1.976456
     178A      1.991109   179A      1.994491   180A      2.000892
     181A      2.007684   182A      2.016818   183A      2.037754
     184A      2.052052   185A      2.067368   186A      2.078895
     187A      2.092357   188A      2.094048   189A      2.105943
     190A      2.117815   191A      2.147620   192A      2.152186
     193A      2.153212   194A      2.163390   195A      2.174888
     196A      2.177815   197A      2.255674   198A      2.258771
     199A      2.271249   200A      2.279592   201A      2.294559
     202A      2.297593   203A      2.302830   204A      2.308187
     205A      2.319216   206A      2.340575   207A      2.357306
     208A      2.358476   209A      2.389497   210A      2.467316
     211A      2.474095   212A      2.485084   213A      2.495085
     214A      2.543330   215A      2.579392   216A      2.603385
     217A      2.616943   218A      2.631010   219A      2.709559
     220A      2.717075   221A      2.738622   222A      2.751538
     223A      2.762517   224A      2.779422   225A      2.784818
     226A      2.787739   227A      2.801848   228A      2.805419
     229A      2.814552   230A      2.830584   231A      2.844213
     232A      2.859415   233A      2.878582   234A      2.896485
     235A      2.978569   236A      3.003314   237A      3.018391
     238A      3.030739   239A      3.043369   240A      3.128617
     241A      3.154162   242A      3.191936   243A      3.292778
     244A      3.956170

    Final Occupation by Irrep:
              A
    DOCC [    42 ]

  @RHF Final Energy:  -427.06628390660927

   => Energetics <=

    Nuclear Repulsion Energy =            579.2483216608269458
    One-Electron Energy =               -1724.6327444776125049
    Two-Electron Energy =                 718.3181389101761170
    Total Energy =                       -427.0662839066093284

Computation Completed

Properties will be evaluated at   0.000000,   0.000000,   0.000000 [a0]

Properties computed using the SCF density matrix

  Nuclear Dipole Moment: [e a0]
     X:   -13.1383      Y:     6.4225      Z:    -5.6780

  Electronic Dipole Moment: [e a0]
     X:    13.2171      Y:    -6.4395      Z:     5.6129

  Dipole Moment: [e a0]
     X:     0.0788      Y:    -0.0170      Z:    -0.0651     Total:     0.1036

  Dipole Moment: [D]
     X:     0.2003      Y:    -0.0432      Z:    -0.1654     Total:     0.2633

*** tstop() called on ds3 at Sun Apr 26 17:40:30 2020
Module time:
	user time   =     178.46 seconds =       2.97 minutes
	system time =      61.62 seconds =       1.03 minutes
	total time  =        283 seconds =       4.72 minutes
Total time:
	user time   =     178.46 seconds =       2.97 minutes
	system time =      61.62 seconds =       1.03 minutes
	total time  =        283 seconds =       4.72 minutes
                                     G D M A

                                 by Anthony Stone

                           version 2.2.06, 22 June 2011

               Distributed Multipoles from Gaussian wavefunctions

Starting at 17:40:30 on 26 Apr 2020

Using SCF density matrix from file ./SSI/SSI-042ILE-056PHE-1-dimer.test.18848.fchk

                         Distributed Multipole Analysis

Standard DMA

Positions and radii in angstrom
Multipole moments in atomic units, ea_0^k for rank k

C          x = -2.585634  y =  0.753057  z = -0.339211 angstrom
           Maximum rank =  0   Radius =  0.650 angstrom
                   Q00  =  -0.000529

C          x = -3.262634  y =  0.470057  z = -1.697211 angstrom
           Maximum rank =  0   Radius =  0.650 angstrom
                   Q00  =  -0.236437

C          x = -1.526634  y =  1.857057  z = -0.478211 angstrom
           Maximum rank =  0   Radius =  0.650 angstrom
                   Q00  =  -0.250931

C          x = -3.639634  y =  1.191057  z =  0.685789 angstrom
           Maximum rank =  0   Radius =  0.650 angstrom
                   Q00  =  -0.247414

H          x = -2.103634  y = -0.158943  z =  0.015789 angstrom
           Maximum rank =  0   Radius =  0.325 angstrom
                   Q00  =   0.018230

H          x = -3.753634  y =  1.391057  z = -2.004211 angstrom
           Maximum rank =  0   Radius =  0.325 angstrom
                   Q00  =   0.075995

H          x = -1.985634  y =  2.786057  z = -0.819211 angstrom
           Maximum rank =  0   Radius =  0.325 angstrom
                   Q00  =   0.073668

H          x = -1.037634  y =  2.028057  z =  0.479789 angstrom
           Maximum rank =  0   Radius =  0.325 angstrom
                   Q00  =   0.089292

H          x = -0.743634  y =  1.563057  z = -1.174211 angstrom
           Maximum rank =  0   Radius =  0.325 angstrom
                   Q00  =   0.080103

H          x = -4.087634  y =  2.137057  z =  0.375789 angstrom
           Maximum rank =  0   Radius =  0.325 angstrom
                   Q00  =   0.073997

H          x = -4.428634  y =  0.457057  z =  0.734789 angstrom
           Maximum rank =  0   Radius =  0.325 angstrom
                   Q00  =   0.077889

H          x = -4.003662  y = -0.340463  z = -1.634514 angstrom
           Maximum rank =  0   Radius =  0.325 angstrom
                   Q00  =   0.083493

H          x = -2.509766  y =  0.223227  z = -2.460273 angstrom
           Maximum rank =  0   Radius =  0.325 angstrom
                   Q00  =   0.077731

H          x = -3.250824  y =  1.296967  z =  1.709317 angstrom
           Maximum rank =  0   Radius =  0.325 angstrom
                   Q00  =   0.083334

C          x =  1.695366  y = -0.122943  z = -2.105211 angstrom
           Maximum rank =  0   Radius =  0.650 angstrom
                   Q00  =  -0.206579

C          x =  0.657366  y = -1.159943  z = -0.036211 angstrom
           Maximum rank =  0   Radius =  0.650 angstrom
                   Q00  =  -0.095318

C          x =  1.720366  y = -0.475943  z = -0.631211 angstrom
           Maximum rank =  0   Radius =  0.650 angstrom
                   Q00  =  -0.099479

C          x =  0.678366  y = -1.450943  z =  1.331789 angstrom
           Maximum rank =  0   Radius =  0.650 angstrom
                   Q00  =  -0.060687

C          x =  2.804366  y = -0.092943  z =  0.162789 angstrom
           Maximum rank =  0   Radius =  0.650 angstrom
                   Q00  =   0.004503

C          x =  1.788366  y = -1.117943  z =  2.096789 angstrom
           Maximum rank =  0   Radius =  0.650 angstrom
                   Q00  =  -0.076478

C          x =  2.847366  y = -0.425943  z =  1.518789 angstrom
           Maximum rank =  0   Radius =  0.650 angstrom
                   Q00  =  -0.077188

H          x = -0.187634  y = -1.471943  z = -0.632211 angstrom
           Maximum rank =  0   Radius =  0.325 angstrom
                   Q00  =   0.059574

H          x = -0.143634  y = -1.985943  z =  1.778789 angstrom
           Maximum rank =  0   Radius =  0.325 angstrom
                   Q00  =   0.065161

H          x =  2.315366  y =  0.763057  z = -2.250211 angstrom
           Maximum rank =  0   Radius =  0.325 angstrom
                   Q00  =   0.097016

H          x =  0.684366  y =  0.151057  z = -2.389211 angstrom
           Maximum rank =  0   Radius =  0.325 angstrom
                   Q00  =   0.098165

H          x =  3.629366  y =  0.449057  z = -0.278211 angstrom
           Maximum rank =  0   Radius =  0.325 angstrom
                   Q00  =   0.058599

H          x =  1.820366  y = -1.379943  z =  3.145789 angstrom
           Maximum rank =  0   Radius =  0.325 angstrom
                   Q00  =   0.061429

H          x =  3.702366  y = -0.144943  z =  2.118789 angstrom
           Maximum rank =  0   Radius =  0.325 angstrom
                   Q00  =   0.065748

H          x =  2.069482  y = -0.912663  z = -2.773326 angstrom
           Maximum rank =  0   Radius =  0.325 angstrom
                   Q00  =   0.107111

Total multipoles referred to origin at
           x =   0.000000,  y =    0.000000,  z =    0.000000 angstrom
                   Q00  =  -0.000000

Finished at 17:40:30 on 26 Apr 2020

  DMA results are available in the Python driver through the
	  variable('DMA DISTRIBUTED MULTIPOLES')
  and
	  variable('DMA TOTAL MULTIPOLES')
  commands.

    Psi4 stopped on: Sunday, 26 April 2020 05:40PM
    Psi4 wall time for execution: 0:04:43.28

*** Psi4 exiting successfully. Buy a developer a beer!
