                               Psi4 1.3.2 release

  ==> Input File <==

--------------------------------------------------------------------------
import numpy as np
set {scf_type pk
basis cc-pvdz
d_convergence 10
gdma_switch   0
gdma_limit    0
gdma_origin   [ 0.0,  0.0,  0.0 ]
}
molecule test {
    units Angstrom
    0 1
    --
    0 1
    C                0.454788614448210     0.136827832025127    -3.088061824785209
    C                1.763788614448210     0.048827832025127    -3.898061824785208
    H               -0.109211385551790    -0.793172167974873    -3.171061824785208
    H                0.669788614448210     0.328827832025127    -2.037061824785209
    H               -0.159211385551790     0.958827832025127    -3.459061824785209
    H                2.309788614448210     0.970827832025127    -3.699061824785208
    H                1.551496614448210     0.038141832025127    -4.977329224785209
    H                2.408702614448210    -0.785432167974873    -3.584858824785209
    C               -1.096211385551790     2.790827832025127     1.412938175214791
    C               -1.050211385551790    -0.826172167974873     0.138938175214791
    C               -1.440211385551790     0.517827832025127     0.351938175214791
    C                0.080788614448210    -1.341172167974873     0.768938175214791
    C               -0.696211385551790     1.342827832025127     1.193938175214791
    C                0.828788614448210    -0.533172167974873     1.607938175214791
    C                0.441788614448210     0.802827832025127     1.815938175214791
    O                0.428788614448210    -2.648172167974873     0.569938175214791
    H               -1.639211385551790    -1.454172167974873    -0.515061824785209
    H               -2.321211385551790     0.906827832025127    -0.143061824785209
    H               -0.121211385551790    -3.068172167974873    -0.102061824785209
    H                1.701788614448210    -0.941172167974873     2.095938175214791
    H               -0.680211385551790     3.141827832025127     2.358938175214792
    H               -2.181211385551790     2.836827832025127     1.485938175214791
    H                1.028788614448210     1.426827832025127     2.474938175214792
    H               -0.775652885551790     3.462064832025127     0.602578175214791

}
e, wfn = energy('scf', return_wfn=True)
gdma(wfn)
dmavals = variable('DMA DISTRIBUTED MULTIPOLES')
charges = np.array(dmavals)
print(charges)
np.save('SSI-064ILE-090TYR-1-dimer.npy', np.array(charges))--------------------------------------------------------------------------

*** tstart() called on ds3
*** at Tue Apr 28 17:08:52 2020

   => Loading Basis Set <=

    Name: CC-PVDZ
    Role: ORBITAL
    Keyword: BASIS
    atoms 1-2, 9-15  entry C          line   138 file /theoryfs2/ds/metcalf/miniconda2/envs/tf2gpu/share/psi4/basis/cc-pvdz.gbs
    atoms 3-8, 17-24 entry H          line    22 file /theoryfs2/ds/metcalf/miniconda2/envs/tf2gpu/share/psi4/basis/cc-pvdz.gbs
    atoms 16         entry O          line   198 file /theoryfs2/ds/metcalf/miniconda2/envs/tf2gpu/share/psi4/basis/cc-pvdz.gbs

         ---------------------------------------------------------
                                   SCF
               by Justin Turney, Rob Parrish, Andy Simmonett
                          and Daniel G. A. Smith
                              RHF Reference
                        1 Threads,    500 MiB Core
         ---------------------------------------------------------

  ==> Geometry <==

    Molecular point group: c1
    Full point group: C1

    Geometry (in Angstrom), charge = 0, multiplicity = 1:

       Center              X                  Y                   Z               Mass
    ------------   -----------------  -----------------  -----------------  -----------------
         C            0.454788614448     0.136827832025    -3.088061824785    12.000000000000
         C            1.763788614448     0.048827832025    -3.898061824785    12.000000000000
         H           -0.109211385552    -0.793172167975    -3.171061824785     1.007825032230
         H            0.669788614448     0.328827832025    -2.037061824785     1.007825032230
         H           -0.159211385552     0.958827832025    -3.459061824785     1.007825032230
         H            2.309788614448     0.970827832025    -3.699061824785     1.007825032230
         H            1.551496614448     0.038141832025    -4.977329224785     1.007825032230
         H            2.408702614448    -0.785432167975    -3.584858824785     1.007825032230
         C           -1.096211385552     2.790827832025     1.412938175215    12.000000000000
         C           -1.050211385552    -0.826172167975     0.138938175215    12.000000000000
         C           -1.440211385552     0.517827832025     0.351938175215    12.000000000000
         C            0.080788614448    -1.341172167975     0.768938175215    12.000000000000
         C           -0.696211385552     1.342827832025     1.193938175215    12.000000000000
         C            0.828788614448    -0.533172167975     1.607938175215    12.000000000000
         C            0.441788614448     0.802827832025     1.815938175215    12.000000000000
         O            0.428788614448    -2.648172167975     0.569938175215    15.994914619570
         H           -1.639211385552    -1.454172167975    -0.515061824785     1.007825032230
         H           -2.321211385552     0.906827832025    -0.143061824785     1.007825032230
         H           -0.121211385552    -3.068172167975    -0.102061824785     1.007825032230
         H            1.701788614448    -0.941172167975     2.095938175215     1.007825032230
         H           -0.680211385552     3.141827832025     2.358938175215     1.007825032230
         H           -2.181211385552     2.836827832025     1.485938175215     1.007825032230
         H            1.028788614448     1.426827832025     2.474938175215     1.007825032230
         H           -0.775652885552     3.462064832025     0.602578175215     1.007825032230

  Running in c1 symmetry.

  Rotational constants: A =      0.04138  B =      0.02535  C =      0.01882 [cm^-1]
  Rotational constants: A =   1240.48726  B =    759.90508  C =    564.34448 [MHz]
  Nuclear repulsion =  494.057662301599237

  Charge       = 0
  Multiplicity = 1
  Electrons    = 76
  Nalpha       = 38
  Nbeta        = 38

  ==> Algorithm <==

  SCF Algorithm Type is PK.
  DIIS enabled.
  MOM disabled.
  Fractional occupation disabled.
  Guess Type is SAD.
  Energy threshold   = 1.00e-06
  Density threshold  = 1.00e-10
  Integral threshold = 0.00e+00

  ==> Primary Basis <==

  Basis Set: CC-PVDZ
    Blend: CC-PVDZ
    Number of shells: 102
    Number of basis function: 210
    Number of Cartesian functions: 220
    Spherical Harmonics?: true
    Max angular momentum: 2

  ==> Pre-Iterations <==

   -------------------------------------------------------
    Irrep   Nso     Nmo     Nalpha   Nbeta   Ndocc  Nsocc
   -------------------------------------------------------
     A        210     210       0       0       0       0
   -------------------------------------------------------
    Total     210     210      38      38      38       0
   -------------------------------------------------------

  ==> Integral Setup <==

  Using integral reordering PK algorithm.
  Sizing the integral batches needed.
  Building batch lookup table.
   Calculation information:
      Number of atoms:                  24
      Number of AO shells:             102
      Number of primitives:            290
      Number of atomic orbitals:       220
      Number of basis functions:       210

      Integral cutoff                 1.00e-12
      Number of threads:                 1

	Batch   1 pq = [       0,    9405] index = [             0,44231715] size =     44231715
	Batch   2 pq = [    9405,   13301] index = [      44231715,88464951] size =     44233236
	Batch   3 pq = [   13301,   16290] index = [      88464951,132690195] size =     44225244
	Batch   4 pq = [   16290,   18810] index = [     132690195,176917455] size =     44227260
	Batch   5 pq = [   18810,   21030] index = [     176917455,221140965] size =     44223510
	Batch   6 pq = [   21030,   22155] index = [     221140965,245433090] size =     24292125
  Task number: 23
  Buffer size: 11059200
  Buffer per thread: 2
  We computed 11757527 shell quartets total.
  Whereas there are 13799631 unique shell quartets.

  ==> DiskJK: Disk-Based J/K Matrices <==

    J tasked:                  Yes
    K tasked:                  Yes
    wK tasked:                  No
    Memory [MiB]:              375
    Schwarz Cutoff:          1E-12

    OpenMP threads:              1

  Minimum eigenvalue in the overlap matrix is 3.3730331497E-04.
  Using Symmetric Orthogonalization.

  SCF Guess: Superposition of Atomic Densities via on-the-fly atomic UHF.

  ==> Iterations <==

                        Total Energy        Delta E     RMS |[F,P]|

   @RHF iter SAD:  -422.54729279417245   -4.22547e+02   0.00000e+00
   @RHF iter   1:  -423.60581226605376   -1.05852e+00   2.94408e-03 DIIS
   @RHF iter   2:  -423.81845206116407   -2.12640e-01   1.23348e-03 DIIS
   @RHF iter   3:  -423.85199685404706   -3.35448e-02   2.79384e-04 DIIS
   @RHF iter   4:  -423.85480106735292   -2.80421e-03   1.13202e-04 DIIS
   @RHF iter   5:  -423.85512796374678   -3.26896e-04   2.07363e-05 DIIS
   @RHF iter   6:  -423.85514526696994   -1.73032e-05   6.40542e-06 DIIS
   @RHF iter   7:  -423.85514687980123   -1.61283e-06   2.11551e-06 DIIS
   @RHF iter   8:  -423.85514710815039   -2.28349e-07   7.98171e-07 DIIS
   @RHF iter   9:  -423.85514714625759   -3.81072e-08   3.13335e-07 DIIS
   @RHF iter  10:  -423.85514715349643   -7.23884e-09   1.32083e-07 DIIS
   @RHF iter  11:  -423.85514715567302   -2.17659e-09   6.15646e-08 DIIS
   @RHF iter  12:  -423.85514715612004   -4.47017e-10   2.95781e-08 DIIS
   @RHF iter  13:  -423.85514715620752   -8.74820e-11   8.34569e-09 DIIS
   @RHF iter  14:  -423.85514715620985   -2.33058e-12   2.17200e-09 DIIS
   @RHF iter  15:  -423.85514715621264   -2.78533e-12   7.65258e-10 DIIS
   @RHF iter  16:  -423.85514715621161    1.02318e-12   2.66646e-10 DIIS
   @RHF iter  17:  -423.85514715621207   -4.54747e-13   1.20588e-10 DIIS
   @RHF iter  18:  -423.85514715621309   -1.02318e-12   6.32683e-11 DIIS
  Energy and wave function converged.

  ==> Post-Iterations <==

    Orbital Energies [Eh]
    ---------------------

    Doubly Occupied:

       1A    -20.582671     2A    -11.299183     3A    -11.241936
       4A    -11.241656     5A    -11.236847     6A    -11.235590
       7A    -11.232491     8A    -11.230322     9A    -11.216539
      10A    -11.212804    11A     -1.397311    12A     -1.146646
      13A     -1.037248    14A     -1.012487    15A     -1.009941
      16A     -0.927074    17A     -0.845201    18A     -0.834037
      19A     -0.799493    20A     -0.730002    21A     -0.665170
      22A     -0.641586    23A     -0.608203    24A     -0.593813
      25A     -0.589831    26A     -0.584510    27A     -0.583096
      28A     -0.568982    29A     -0.566828    30A     -0.528135
      31A     -0.496975    32A     -0.495936    33A     -0.486296
      34A     -0.485533    35A     -0.477949    36A     -0.463027
      37A     -0.334134    38A     -0.304552

    Virtual:

      39A      0.125999    40A      0.155356    41A      0.168620
      42A      0.184918    43A      0.197530    44A      0.216018
      45A      0.219517    46A      0.247047    47A      0.251188
      48A      0.256541    49A      0.265159    50A      0.272748
      51A      0.278607    52A      0.288689    53A      0.297370
      54A      0.304886    55A      0.365719    56A      0.371508
      57A      0.394935    58A      0.424656    59A      0.453459
      60A      0.482648    61A      0.489898    62A      0.503610
      63A      0.590425    64A      0.592398    65A      0.598502
      66A      0.610773    67A      0.629669    68A      0.646112
      69A      0.660253    70A      0.665956    71A      0.677690
      72A      0.687068    73A      0.711240    74A      0.720807
      75A      0.733906    76A      0.739391    77A      0.766475
      78A      0.768858    79A      0.780438    80A      0.790270
      81A      0.812765    82A      0.830491    83A      0.848933
      84A      0.854613    85A      0.873230    86A      0.877656
      87A      0.887564    88A      0.890079    89A      0.895464
      90A      0.897170    91A      0.905188    92A      0.919596
      93A      0.922685    94A      0.927364    95A      0.936876
      96A      0.938496    97A      0.943999    98A      0.949332
      99A      1.005025   100A      1.012513   101A      1.031767
     102A      1.066254   103A      1.117854   104A      1.126298
     105A      1.133839   106A      1.137745   107A      1.141632
     108A      1.169240   109A      1.198920   110A      1.233275
     111A      1.243962   112A      1.253042   113A      1.267307
     114A      1.284044   115A      1.292349   116A      1.308047
     117A      1.310265   118A      1.351978   119A      1.359760
     120A      1.380011   121A      1.461705   122A      1.477431
     123A      1.491939   124A      1.501105   125A      1.524764
     126A      1.550150   127A      1.586692   128A      1.613109
     129A      1.622706   130A      1.676749   131A      1.685152
     132A      1.697107   133A      1.701211   134A      1.727353
     135A      1.742669   136A      1.780917   137A      1.803154
     138A      1.808095   139A      1.855549   140A      1.869251
     141A      1.872679   142A      1.888749   143A      1.888992
     144A      1.894703   145A      1.909988   146A      1.911378
     147A      1.916306   148A      1.936579   149A      1.938758
     150A      1.948075   151A      1.955504   152A      1.961563
     153A      1.968341   154A      1.971364   155A      1.988326
     156A      1.997674   157A      2.028071   158A      2.042574
     159A      2.053372   160A      2.059342   161A      2.064998
     162A      2.087215   163A      2.127588   164A      2.134928
     165A      2.138846   166A      2.165376   167A      2.198849
     168A      2.221126   169A      2.253861   170A      2.267323
     171A      2.293200   172A      2.306976   173A      2.320457
     174A      2.321437   175A      2.363798   176A      2.411656
     177A      2.440112   178A      2.453519   179A      2.469279
     180A      2.476307   181A      2.482367   182A      2.528853
     183A      2.539982   184A      2.553089   185A      2.579629
     186A      2.594117   187A      2.637510   188A      2.738269
     189A      2.762967   190A      2.766838   191A      2.780476
     192A      2.796273   193A      2.802243   194A      2.838085
     195A      2.843166   196A      2.875027   197A      2.890465
     198A      2.935884   199A      2.950442   200A      2.970324
     201A      3.001906   202A      3.070247   203A      3.093891
     204A      3.251301   205A      3.265750   206A      3.345508
     207A      3.567738   208A      3.658514   209A      3.954116
     210A      4.183332

    Final Occupation by Irrep:
              A
    DOCC [    38 ]

  @RHF Final Energy:  -423.85514715621309

   => Energetics <=

    Nuclear Repulsion Energy =            494.0576623015992368
    One-Electron Energy =               -1553.9375454734467894
    Two-Electron Energy =                 636.0247360156344030
    Total Energy =                       -423.8551471562130928

Computation Completed

Properties will be evaluated at   0.000000,   0.000000,   0.000000 [a0]

Properties computed using the SCF density matrix

  Nuclear Dipole Moment: [e a0]
     X:     1.5800      Y:     6.5766      Z:   -11.8753

  Electronic Dipole Moment: [e a0]
     X:    -2.0201      Y:    -6.3899      Z:    11.5946

  Dipole Moment: [e a0]
     X:    -0.4401      Y:     0.1867      Z:    -0.2807     Total:     0.5544

  Dipole Moment: [D]
     X:    -1.1186      Y:     0.4746      Z:    -0.7135     Total:     1.4091

*** tstop() called on ds3 at Tue Apr 28 17:12:47 2020
Module time:
	user time   =      86.48 seconds =       1.44 minutes
	system time =      35.11 seconds =       0.59 minutes
	total time  =        235 seconds =       3.92 minutes
Total time:
	user time   =      86.48 seconds =       1.44 minutes
	system time =      35.11 seconds =       0.59 minutes
	total time  =        235 seconds =       3.92 minutes
                                     G D M A

                                 by Anthony Stone

                           version 2.2.06, 22 June 2011

               Distributed Multipoles from Gaussian wavefunctions

Starting at 17:12:47 on 28 Apr 2020

Using SCF density matrix from file ./SSI/SSI-064ILE-090TYR-1-dimer.test.26747.fchk

                         Distributed Multipole Analysis

Standard DMA

Positions and radii in angstrom
Multipole moments in atomic units, ea_0^k for rank k

C          x =  0.454789  y =  0.136828  z = -3.088062 angstrom
           Maximum rank =  0   Radius =  0.650 angstrom
                   Q00  =  -0.238362

C          x =  1.763789  y =  0.048828  z = -3.898062 angstrom
           Maximum rank =  0   Radius =  0.650 angstrom
                   Q00  =  -0.241251

H          x = -0.109211  y = -0.793172  z = -3.171062 angstrom
           Maximum rank =  0   Radius =  0.325 angstrom
                   Q00  =   0.068212

H          x =  0.669789  y =  0.328828  z = -2.037062 angstrom
           Maximum rank =  0   Radius =  0.325 angstrom
                   Q00  =   0.094916

H          x = -0.159211  y =  0.958828  z = -3.459062 angstrom
           Maximum rank =  0   Radius =  0.325 angstrom
                   Q00  =   0.076818

H          x =  2.309789  y =  0.970828  z = -3.699062 angstrom
           Maximum rank =  0   Radius =  0.325 angstrom
                   Q00  =   0.075522

H          x =  1.551497  y =  0.038142  z = -4.977329 angstrom
           Maximum rank =  0   Radius =  0.325 angstrom
                   Q00  =   0.077450

H          x =  2.408703  y = -0.785432  z = -3.584859 angstrom
           Maximum rank =  0   Radius =  0.325 angstrom
                   Q00  =   0.084203

C          x = -1.096211  y =  2.790828  z =  1.412938 angstrom
           Maximum rank =  0   Radius =  0.650 angstrom
                   Q00  =  -0.199666

C          x = -1.050211  y = -0.826172  z =  0.138938 angstrom
           Maximum rank =  0   Radius =  0.650 angstrom
                   Q00  =  -0.150820

C          x = -1.440211  y =  0.517828  z =  0.351938 angstrom
           Maximum rank =  0   Radius =  0.650 angstrom
                   Q00  =  -0.059850

C          x =  0.080789  y = -1.341172  z =  0.768938 angstrom
           Maximum rank =  0   Radius =  0.650 angstrom
                   Q00  =   0.301007

C          x = -0.696211  y =  1.342828  z =  1.193938 angstrom
           Maximum rank =  0   Radius =  0.650 angstrom
                   Q00  =  -0.135872

C          x =  0.828789  y = -0.533172  z =  1.607938 angstrom
           Maximum rank =  0   Radius =  0.650 angstrom
                   Q00  =  -0.120068

C          x =  0.441789  y =  0.802828  z =  1.815938 angstrom
           Maximum rank =  0   Radius =  0.650 angstrom
                   Q00  =   0.051599

O          x =  0.428789  y = -2.648172  z =  0.569938 angstrom
           Maximum rank =  0   Radius =  0.650 angstrom
                   Q00  =  -0.680139

H          x = -1.639211  y = -1.454172  z = -0.515062 angstrom
           Maximum rank =  0   Radius =  0.325 angstrom
                   Q00  =   0.072380

H          x = -2.321211  y =  0.906828  z = -0.143062 angstrom
           Maximum rank =  0   Radius =  0.325 angstrom
                   Q00  =   0.070814

H          x = -0.121211  y = -3.068172  z = -0.102062 angstrom
           Maximum rank =  0   Radius =  0.325 angstrom
                   Q00  =   0.407697

H          x =  1.701789  y = -0.941172  z =  2.095938 angstrom
           Maximum rank =  0   Radius =  0.325 angstrom
                   Q00  =   0.082920

H          x = -0.680211  y =  3.141828  z =  2.358938 angstrom
           Maximum rank =  0   Radius =  0.325 angstrom
                   Q00  =   0.098232

H          x = -2.181211  y =  2.836828  z =  1.485938 angstrom
           Maximum rank =  0   Radius =  0.325 angstrom
                   Q00  =   0.097096

H          x =  1.028789  y =  1.426828  z =  2.474938 angstrom
           Maximum rank =  0   Radius =  0.325 angstrom
                   Q00  =   0.065778

H          x = -0.775653  y =  3.462065  z =  0.602578 angstrom
           Maximum rank =  0   Radius =  0.325 angstrom
                   Q00  =   0.101384

Total multipoles referred to origin at
           x =   0.000000,  y =    0.000000,  z =    0.000000 angstrom
                   Q00  =  -0.000000

Finished at 17:12:47 on 28 Apr 2020

  DMA results are available in the Python driver through the
	  variable('DMA DISTRIBUTED MULTIPOLES')
  and
	  variable('DMA TOTAL MULTIPOLES')
  commands.

    Psi4 stopped on: Tuesday, 28 April 2020 05:12PM
    Psi4 wall time for execution: 0:03:55.14

*** Psi4 exiting successfully. Buy a developer a beer!
