                               Psi4 1.3.2 release

  ==> Input File <==

--------------------------------------------------------------------------
import numpy as np
set {scf_type pk
basis cc-pvdz
d_convergence 10
gdma_switch   0
gdma_limit    0
gdma_origin   [ 0.0,  0.0,  0.0 ]
}
molecule test {
    units Angstrom
    0 1
    --
    0 1
    C                0.151940459813320    -0.030094454595230    -1.099551572306348
    C                0.374940459813320     0.256905545404770    -2.520551572306348
    C                1.422940459813320     0.233905545404770    -0.306551572306348
    O                2.410940459813320    -0.497094454595230    -0.363551572306348
    N                1.363940459813320     1.246905545404771     0.502448427693652
    H               -0.668059540186680     0.583905545404770    -0.722551572306348
    H               -0.120059540186680    -1.078094454595230    -0.967551572306348
    H                1.216940459813320    -0.328094454595230    -2.886551572306348
    H                0.636940459813320     1.314905545404771    -2.596551572306348
    H                2.189940459813320     1.467905545404771     1.038448427693652
    H                0.520940459813320     1.790905545404770     0.608448427693652
    H               -0.536121540186680     0.049205545404770    -3.100921572306348
    C               -2.085059540186680    -0.817094454595230     1.826448427693652
    C               -3.528059540186680    -0.435094454595230     1.813448427693652
    H               -1.837059540186680    -1.326094454595229     2.757448427693652
    H               -1.883059540186680    -1.493094454595229     0.995448427693652
    H               -1.460059540186680     0.069905545404770     1.722448427693652
    H               -4.137059540186680    -1.335094454595230     1.893448427693652
    H               -3.729059540186680     0.008905545404770     0.839448427693652
    H               -3.790406540186680     0.263065545404770     2.621998427693652

}
e, wfn = energy('scf', return_wfn=True)
gdma(wfn)
dmavals = variable('DMA DISTRIBUTED MULTIPOLES')
charges = np.array(dmavals)
print(charges)
np.save('SSI-183GLN-194ILE-1-dimer.npy', np.array(charges))--------------------------------------------------------------------------

*** tstart() called on ds3
*** at Mon Apr 27 19:26:15 2020

   => Loading Basis Set <=

    Name: CC-PVDZ
    Role: ORBITAL
    Keyword: BASIS
    atoms 1-3, 13-14  entry C          line   138 file /theoryfs2/ds/metcalf/miniconda2/envs/tf2gpu/share/psi4/basis/cc-pvdz.gbs
    atoms 4           entry O          line   198 file /theoryfs2/ds/metcalf/miniconda2/envs/tf2gpu/share/psi4/basis/cc-pvdz.gbs
    atoms 5           entry N          line   168 file /theoryfs2/ds/metcalf/miniconda2/envs/tf2gpu/share/psi4/basis/cc-pvdz.gbs
    atoms 6-12, 15-20 entry H          line    22 file /theoryfs2/ds/metcalf/miniconda2/envs/tf2gpu/share/psi4/basis/cc-pvdz.gbs

         ---------------------------------------------------------
                                   SCF
               by Justin Turney, Rob Parrish, Andy Simmonett
                          and Daniel G. A. Smith
                              RHF Reference
                        1 Threads,    500 MiB Core
         ---------------------------------------------------------

  ==> Geometry <==

    Molecular point group: c1
    Full point group: C1

    Geometry (in Angstrom), charge = 0, multiplicity = 1:

       Center              X                  Y                   Z               Mass
    ------------   -----------------  -----------------  -----------------  -----------------
         C            0.151940459813    -0.030094454595    -1.099551572306    12.000000000000
         C            0.374940459813     0.256905545405    -2.520551572306    12.000000000000
         C            1.422940459813     0.233905545405    -0.306551572306    12.000000000000
         O            2.410940459813    -0.497094454595    -0.363551572306    15.994914619570
         N            1.363940459813     1.246905545405     0.502448427694    14.003074004430
         H           -0.668059540187     0.583905545405    -0.722551572306     1.007825032230
         H           -0.120059540187    -1.078094454595    -0.967551572306     1.007825032230
         H            1.216940459813    -0.328094454595    -2.886551572306     1.007825032230
         H            0.636940459813     1.314905545405    -2.596551572306     1.007825032230
         H            2.189940459813     1.467905545405     1.038448427694     1.007825032230
         H            0.520940459813     1.790905545405     0.608448427694     1.007825032230
         H           -0.536121540187     0.049205545405    -3.100921572306     1.007825032230
         C           -2.085059540187    -0.817094454595     1.826448427694    12.000000000000
         C           -3.528059540187    -0.435094454595     1.813448427694    12.000000000000
         H           -1.837059540187    -1.326094454595     2.757448427694     1.007825032230
         H           -1.883059540187    -1.493094454595     0.995448427694     1.007825032230
         H           -1.460059540187     0.069905545405     1.722448427694     1.007825032230
         H           -4.137059540187    -1.335094454595     1.893448427694     1.007825032230
         H           -3.729059540187     0.008905545405     0.839448427694     1.007825032230
         H           -3.790406540187     0.263065545405     2.621998427694     1.007825032230

  Running in c1 symmetry.

  Rotational constants: A =      0.10392  B =      0.02965  C =      0.02602 [cm^-1]
  Rotational constants: A =   3115.52010  B =    888.87303  C =    780.08594 [MHz]
  Nuclear repulsion =  302.430732231938293

  Charge       = 0
  Multiplicity = 1
  Electrons    = 58
  Nalpha       = 29
  Nbeta        = 29

  ==> Algorithm <==

  SCF Algorithm Type is PK.
  DIIS enabled.
  MOM disabled.
  Fractional occupation disabled.
  Guess Type is SAD.
  Energy threshold   = 1.00e-06
  Density threshold  = 1.00e-10
  Integral threshold = 0.00e+00

  ==> Primary Basis <==

  Basis Set: CC-PVDZ
    Blend: CC-PVDZ
    Number of shells: 81
    Number of basis function: 163
    Number of Cartesian functions: 170
    Spherical Harmonics?: true
    Max angular momentum: 2

  ==> Pre-Iterations <==

   -------------------------------------------------------
    Irrep   Nso     Nmo     Nalpha   Nbeta   Ndocc  Nsocc
   -------------------------------------------------------
     A        163     163       0       0       0       0
   -------------------------------------------------------
    Total     163     163      29      29      29       0
   -------------------------------------------------------

  ==> Integral Setup <==

  Using integral reordering PK algorithm.
  Sizing the integral batches needed.
  Building batch lookup table.
   Calculation information:
      Number of atoms:                  20
      Number of AO shells:              81
      Number of primitives:            219
      Number of atomic orbitals:       170
      Number of basis functions:       163

      Integral cutoff                 1.00e-12
      Number of threads:                 1

	Batch   1 pq = [       0,    9405] index = [             0,44231715] size =     44231715
	Batch   2 pq = [    9405,   13366] index = [      44231715,89331661] size =     45099946
  Task number: 9
  Buffer size: 11059200
  Buffer per thread: 2
  We computed 4736407 shell quartets total.
  Whereas there are 5516181 unique shell quartets.

  ==> DiskJK: Disk-Based J/K Matrices <==

    J tasked:                  Yes
    K tasked:                  Yes
    wK tasked:                  No
    Memory [MiB]:              375
    Schwarz Cutoff:          1E-12

    OpenMP threads:              1

  Minimum eigenvalue in the overlap matrix is 3.8454411964E-03.
  Using Symmetric Orthogonalization.

  SCF Guess: Superposition of Atomic Densities via on-the-fly atomic UHF.

  ==> Iterations <==

                        Total Energy        Delta E     RMS |[F,P]|

   @RHF iter SAD:  -325.18393640885654   -3.25184e+02   0.00000e+00
   @RHF iter   1:  -325.99267057504824   -8.08734e-01   4.18604e-03 DIIS
   @RHF iter   2:  -326.19769535868363   -2.05025e-01   2.25937e-03 DIIS
   @RHF iter   3:  -326.25177821691943   -5.40829e-02   4.83742e-04 DIIS
   @RHF iter   4:  -326.25544563310581   -3.66742e-03   2.06679e-04 DIIS
   @RHF iter   5:  -326.25611799873047   -6.72366e-04   2.86687e-05 DIIS
   @RHF iter   6:  -326.25614803221492   -3.00335e-05   1.07280e-05 DIIS
   @RHF iter   7:  -326.25615181309291   -3.78088e-06   4.45339e-06 DIIS
   @RHF iter   8:  -326.25615254654792   -7.33455e-07   1.78376e-06 DIIS
   @RHF iter   9:  -326.25615266774645   -1.21199e-07   4.21903e-07 DIIS
   @RHF iter  10:  -326.25615267342965   -5.68321e-09   1.31688e-07 DIIS
   @RHF iter  11:  -326.25615267392129   -4.91639e-10   3.74876e-08 DIIS
   @RHF iter  12:  -326.25615267396392   -4.26326e-11   1.04273e-08 DIIS
   @RHF iter  13:  -326.25615267396881   -4.88853e-12   2.95369e-09 DIIS
   @RHF iter  14:  -326.25615267396989   -1.08002e-12   1.31814e-09 DIIS
   @RHF iter  15:  -326.25615267397006   -1.70530e-13   6.65580e-10 DIIS
   @RHF iter  16:  -326.25615267397296   -2.89901e-12   1.85660e-10 DIIS
   @RHF iter  17:  -326.25615267396989    3.06954e-12   4.97374e-11 DIIS
  Energy and wave function converged.

  ==> Post-Iterations <==

    Orbital Energies [Eh]
    ---------------------

    Doubly Occupied:

       1A    -20.498098     2A    -15.590310     3A    -11.338728
       4A    -11.234404     5A    -11.225398     6A    -11.222423
       7A    -11.221389     8A     -1.367434     9A     -1.224404
      10A     -1.066262    11A     -1.035902    12A     -0.884689
      13A     -0.840928    14A     -0.794991    15A     -0.730150
      16A     -0.669556    17A     -0.625402    18A     -0.611369
      19A     -0.610624    20A     -0.591095    21A     -0.569053
      22A     -0.523581    23A     -0.517595    24A     -0.510395
      25A     -0.494657    26A     -0.488032    27A     -0.487460
      28A     -0.403023    29A     -0.401083

    Virtual:

      30A      0.149211    31A      0.185792    32A      0.189316
      33A      0.212162    34A      0.224508    35A      0.233926
      36A      0.237363    37A      0.255691    38A      0.258304
      39A      0.270819    40A      0.282947    41A      0.292989
      42A      0.311764    43A      0.331009    44A      0.377602
      45A      0.396100    46A      0.419048    47A      0.470827
      48A      0.546165    49A      0.589489    50A      0.593462
      51A      0.600710    52A      0.614874    53A      0.617306
      54A      0.653127    55A      0.672975    56A      0.680758
      57A      0.716212    58A      0.745866    59A      0.788132
      60A      0.803491    61A      0.846529    62A      0.855521
      63A      0.861417    64A      0.874460    65A      0.885579
      66A      0.886713    67A      0.889754    68A      0.897646
      69A      0.902217    70A      0.914392    71A      0.921161
      72A      0.928389    73A      0.948088    74A      0.965432
      75A      0.976610    76A      0.982901    77A      1.028869
      78A      1.056937    79A      1.059959    80A      1.121185
      81A      1.124741    82A      1.126650    83A      1.140005
      84A      1.237313    85A      1.316200    86A      1.334699
      87A      1.375359    88A      1.396258    89A      1.411115
      90A      1.447099    91A      1.469400    92A      1.478945
      93A      1.491027    94A      1.498357    95A      1.507229
      96A      1.574020    97A      1.655110    98A      1.671238
      99A      1.677071   100A      1.693250   101A      1.763491
     102A      1.790019   103A      1.840054   104A      1.850579
     105A      1.867989   106A      1.881856   107A      1.889877
     108A      1.902490   109A      1.906501   110A      1.915650
     111A      1.928444   112A      1.942479   113A      1.957174
     114A      1.960701   115A      1.968217   116A      1.980976
     117A      1.984165   118A      1.989401   119A      2.005417
     120A      2.012876   121A      2.069781   122A      2.079028
     123A      2.089481   124A      2.095289   125A      2.123993
     126A      2.147258   127A      2.242627   128A      2.292590
     129A      2.304003   130A      2.314928   131A      2.336940
     132A      2.414078   133A      2.451539   134A      2.463637
     135A      2.483112   136A      2.501534   137A      2.519798
     138A      2.558878   139A      2.570461   140A      2.585432
     141A      2.590909   142A      2.608142   143A      2.648672
     144A      2.762362   145A      2.766232   146A      2.781455
     147A      2.791961   148A      2.835834   149A      2.848351
     150A      2.865980   151A      2.878241   152A      2.901938
     153A      2.954350   154A      2.971556   155A      2.999210
     156A      3.041001   157A      3.100484   158A      3.141919
     159A      3.304465   160A      3.525960   161A      3.549361
     162A      3.879591   163A      3.925219

    Final Occupation by Irrep:
              A
    DOCC [    29 ]

  @RHF Final Energy:  -326.25615267396989

   => Energetics <=

    Nuclear Repulsion Energy =            302.4307322319382934
    One-Electron Energy =               -1041.8168997966051847
    Two-Electron Energy =                 413.1300148906970549
    Total Energy =                       -326.2561526739698934

Computation Completed

Properties will be evaluated at   0.000000,   0.000000,   0.000000 [a0]

Properties computed using the SCF density matrix

  Nuclear Dipole Moment: [e a0]
     X:   -12.7384      Y:    -0.0170      Z:     2.0620

  Electronic Dipole Moment: [e a0]
     X:    11.5507      Y:     1.1414      Z:    -1.7347

  Dipole Moment: [e a0]
     X:    -1.1877      Y:     1.1243      Z:     0.3274     Total:     1.6679

  Dipole Moment: [D]
     X:    -3.0188      Y:     2.8577      Z:     0.8321     Total:     4.2393

*** tstop() called on ds3 at Mon Apr 27 19:27:01 2020
Module time:
	user time   =      28.77 seconds =       0.48 minutes
	system time =      12.60 seconds =       0.21 minutes
	total time  =         46 seconds =       0.77 minutes
Total time:
	user time   =      28.77 seconds =       0.48 minutes
	system time =      12.60 seconds =       0.21 minutes
	total time  =         46 seconds =       0.77 minutes
                                     G D M A

                                 by Anthony Stone

                           version 2.2.06, 22 June 2011

               Distributed Multipoles from Gaussian wavefunctions

Starting at 19:27:1 on 27 Apr 2020

Using SCF density matrix from file ./SSI/SSI-183GLN-194ILE-1-dimer.test.6343.fchk

                         Distributed Multipole Analysis

Standard DMA

Positions and radii in angstrom
Multipole moments in atomic units, ea_0^k for rank k

C          x =  0.151940  y = -0.030094  z = -1.099552 angstrom
           Maximum rank =  0   Radius =  0.650 angstrom
                   Q00  =  -0.115338

C          x =  0.374940  y =  0.256906  z = -2.520552 angstrom
           Maximum rank =  0   Radius =  0.650 angstrom
                   Q00  =  -0.181452

C          x =  1.422940  y =  0.233906  z = -0.306552 angstrom
           Maximum rank =  0   Radius =  0.650 angstrom
                   Q00  =   0.809488

O          x =  2.410940  y = -0.497094  z = -0.363552 angstrom
           Maximum rank =  0   Radius =  0.650 angstrom
                   Q00  =  -0.818917

N          x =  1.363940  y =  1.246906  z =  0.502448 angstrom
           Maximum rank =  0   Radius =  0.650 angstrom
                   Q00  =  -0.498286

H          x = -0.668060  y =  0.583906  z = -0.722552 angstrom
           Maximum rank =  0   Radius =  0.325 angstrom
                   Q00  =   0.032035

H          x = -0.120060  y = -1.078094  z = -0.967552 angstrom
           Maximum rank =  0   Radius =  0.325 angstrom
                   Q00  =   0.099370

H          x =  1.216940  y = -0.328094  z = -2.886552 angstrom
           Maximum rank =  0   Radius =  0.325 angstrom
                   Q00  =   0.103178

H          x =  0.636940  y =  1.314906  z = -2.596552 angstrom
           Maximum rank =  0   Radius =  0.325 angstrom
                   Q00  =   0.064062

H          x =  2.189940  y =  1.467906  z =  1.038448 angstrom
           Maximum rank =  0   Radius =  0.325 angstrom
                   Q00  =   0.214585

H          x =  0.520940  y =  1.790906  z =  0.608448 angstrom
           Maximum rank =  0   Radius =  0.325 angstrom
                   Q00  =   0.209356

H          x = -0.536122  y =  0.049206  z = -3.100922 angstrom
           Maximum rank =  0   Radius =  0.325 angstrom
                   Q00  =   0.081800

C          x = -2.085060  y = -0.817094  z =  1.826448 angstrom
           Maximum rank =  0   Radius =  0.650 angstrom
                   Q00  =  -0.212657

C          x = -3.528060  y = -0.435094  z =  1.813448 angstrom
           Maximum rank =  0   Radius =  0.650 angstrom
                   Q00  =  -0.228064

H          x = -1.837060  y = -1.326094  z =  2.757448 angstrom
           Maximum rank =  0   Radius =  0.325 angstrom
                   Q00  =   0.080582

H          x = -1.883060  y = -1.493094  z =  0.995448 angstrom
           Maximum rank =  0   Radius =  0.325 angstrom
                   Q00  =   0.078473

H          x = -1.460060  y =  0.069906  z =  1.722448 angstrom
           Maximum rank =  0   Radius =  0.325 angstrom
                   Q00  =   0.055094

H          x = -4.137060  y = -1.335094  z =  1.893448 angstrom
           Maximum rank =  0   Radius =  0.325 angstrom
                   Q00  =   0.079743

H          x = -3.729060  y =  0.008906  z =  0.839448 angstrom
           Maximum rank =  0   Radius =  0.325 angstrom
                   Q00  =   0.068771

H          x = -3.790407  y =  0.263066  z =  2.621998 angstrom
           Maximum rank =  0   Radius =  0.325 angstrom
                   Q00  =   0.078177

Total multipoles referred to origin at
           x =   0.000000,  y =    0.000000,  z =    0.000000 angstrom
                   Q00  =  -0.000000

Finished at 19:27:1 on 27 Apr 2020

  DMA results are available in the Python driver through the
	  variable('DMA DISTRIBUTED MULTIPOLES')
  and
	  variable('DMA TOTAL MULTIPOLES')
  commands.

    Psi4 stopped on: Monday, 27 April 2020 07:27PM
    Psi4 wall time for execution: 0:00:45.85

*** Psi4 exiting successfully. Buy a developer a beer!
