                               Psi4 1.3.2 release

  ==> Input File <==

--------------------------------------------------------------------------
import numpy as np
set {scf_type pk
basis cc-pvdz
d_convergence 10
gdma_switch   0
gdma_limit    0
gdma_origin   [ 0.0,  0.0,  0.0 ]
}
molecule test {
    units Angstrom
    0 1
    --
    0 1
    C               -1.437344816662872    -2.211681581988082     0.041673747541849
    C               -0.408344816662871    -3.197681581988082    -0.559326252458152
    C               -2.824344816662872    -2.831681581988082     0.127673747541849
    C               -0.979344816662872    -1.715681581988082     1.426673747541849
    H               -1.499344816662872    -1.349681581988082    -0.623326252458152
    H                0.508655183337129    -2.624681581988081    -0.673326252458152
    H               -2.832344816662871    -3.664681581988082     0.828673747541849
    H               -3.529344816662871    -2.078681581988082     0.478673747541849
    H               -3.157344816662871    -3.176681581988081    -0.849326252458151
    H                0.013655183337128    -1.270681581988082     1.347673747541849
    H               -1.670344816662872    -0.950681581988082     1.782673747541848
    H               -0.957344816662872    -2.529681581988082     2.149673747541848
    H               -0.694529816662872    -3.617968981988082    -1.534752252458151
    H               -0.185726816662872    -4.034142581988081     0.119476747541849
    C                2.273655183337129     1.014318418011918    -2.101326252458152
    C               -0.741344816662872     1.573318418011918     0.096673747541849
    C               -0.160344816662872     1.974318418011918     1.306673747541849
    C                0.051655183337128     1.251318418011918    -0.986326252458152
    C                1.423655183337128     1.376318418011918    -0.913326252458151
    C                1.207655183337129     2.095318418011918     1.389673747541849
    C                1.998655183337129     1.813318418011918     0.275673747541849
    H               -1.812344816662872     1.467318418011918     0.024673747541849
    H               -0.782344816662872     2.181318418011919     2.165673747541848
    H               -0.412344816662871     0.905318418011918    -1.899326252458151
    H                1.670655183337128     2.404318418011918     2.316673747541848
    H                3.062655183337129     1.760318418011918    -2.201326252458152
    H                1.669655183337128     1.060318418011918    -3.006326252458152
    H                3.068655183337128     1.912318418011918     0.357673747541849
    H                2.726605183337129     0.014659418011918    -2.027037252458151

}
e, wfn = energy('scf', return_wfn=True)
gdma(wfn)
dmavals = variable('DMA DISTRIBUTED MULTIPOLES')
charges = np.array(dmavals)
print(charges)
np.save('SSI-024VAL-079PHE-1-dimer.npy', np.array(charges))--------------------------------------------------------------------------

*** tstart() called on ds3
*** at Sun Apr 26 22:28:57 2020

   => Loading Basis Set <=

    Name: CC-PVDZ
    Role: ORBITAL
    Keyword: BASIS
    atoms 1-4, 15-21  entry C          line   138 file /theoryfs2/ds/metcalf/miniconda2/envs/tf2gpu/share/psi4/basis/cc-pvdz.gbs
    atoms 5-14, 22-29 entry H          line    22 file /theoryfs2/ds/metcalf/miniconda2/envs/tf2gpu/share/psi4/basis/cc-pvdz.gbs

         ---------------------------------------------------------
                                   SCF
               by Justin Turney, Rob Parrish, Andy Simmonett
                          and Daniel G. A. Smith
                              RHF Reference
                        1 Threads,    500 MiB Core
         ---------------------------------------------------------

  ==> Geometry <==

    Molecular point group: c1
    Full point group: C1

    Geometry (in Angstrom), charge = 0, multiplicity = 1:

       Center              X                  Y                   Z               Mass
    ------------   -----------------  -----------------  -----------------  -----------------
         C           -1.437344816663    -2.211681581988     0.041673747542    12.000000000000
         C           -0.408344816663    -3.197681581988    -0.559326252458    12.000000000000
         C           -2.824344816663    -2.831681581988     0.127673747542    12.000000000000
         C           -0.979344816663    -1.715681581988     1.426673747542    12.000000000000
         H           -1.499344816663    -1.349681581988    -0.623326252458     1.007825032230
         H            0.508655183337    -2.624681581988    -0.673326252458     1.007825032230
         H           -2.832344816663    -3.664681581988     0.828673747542     1.007825032230
         H           -3.529344816663    -2.078681581988     0.478673747542     1.007825032230
         H           -3.157344816663    -3.176681581988    -0.849326252458     1.007825032230
         H            0.013655183337    -1.270681581988     1.347673747542     1.007825032230
         H           -1.670344816663    -0.950681581988     1.782673747542     1.007825032230
         H           -0.957344816663    -2.529681581988     2.149673747542     1.007825032230
         H           -0.694529816663    -3.617968981988    -1.534752252458     1.007825032230
         H           -0.185726816663    -4.034142581988     0.119476747542     1.007825032230
         C            2.273655183337     1.014318418012    -2.101326252458    12.000000000000
         C           -0.741344816663     1.573318418012     0.096673747542    12.000000000000
         C           -0.160344816663     1.974318418012     1.306673747542    12.000000000000
         C            0.051655183337     1.251318418012    -0.986326252458    12.000000000000
         C            1.423655183337     1.376318418012    -0.913326252458    12.000000000000
         C            1.207655183337     2.095318418012     1.389673747542    12.000000000000
         C            1.998655183337     1.813318418012     0.275673747542    12.000000000000
         H           -1.812344816663     1.467318418012     0.024673747542     1.007825032230
         H           -0.782344816663     2.181318418012     2.165673747542     1.007825032230
         H           -0.412344816663     0.905318418012    -1.899326252458     1.007825032230
         H            1.670655183337     2.404318418012     2.316673747542     1.007825032230
         H            3.062655183337     1.760318418012    -2.201326252458     1.007825032230
         H            1.669655183337     1.060318418012    -3.006326252458     1.007825032230
         H            3.068655183337     1.912318418012     0.357673747542     1.007825032230
         H            2.726605183337     0.014659418012    -2.027037252458     1.007825032230

  Running in c1 symmetry.

  Rotational constants: A =      0.04984  B =      0.01782  C =      0.01529 [cm^-1]
  Rotational constants: A =   1494.25903  B =    534.27779  C =    458.52454 [MHz]
  Nuclear repulsion =  585.340655301880133

  Charge       = 0
  Multiplicity = 1
  Electrons    = 84
  Nalpha       = 42
  Nbeta        = 42

  ==> Algorithm <==

  SCF Algorithm Type is PK.
  DIIS enabled.
  MOM disabled.
  Fractional occupation disabled.
  Guess Type is SAD.
  Energy threshold   = 1.00e-06
  Density threshold  = 1.00e-10
  Integral threshold = 0.00e+00

  ==> Primary Basis <==

  Basis Set: CC-PVDZ
    Blend: CC-PVDZ
    Number of shells: 120
    Number of basis function: 244
    Number of Cartesian functions: 255
    Spherical Harmonics?: true
    Max angular momentum: 2

  ==> Pre-Iterations <==

   -------------------------------------------------------
    Irrep   Nso     Nmo     Nalpha   Nbeta   Ndocc  Nsocc
   -------------------------------------------------------
     A        244     244       0       0       0       0
   -------------------------------------------------------
    Total     244     244      42      42      42       0
   -------------------------------------------------------

  ==> Integral Setup <==

  Using integral reordering PK algorithm.
  Sizing the integral batches needed.
  Building batch lookup table.
   Calculation information:
      Number of atoms:                  29
      Number of AO shells:             120
      Number of primitives:            332
      Number of atomic orbitals:       255
      Number of basis functions:       244

      Integral cutoff                 1.00e-12
      Number of threads:                 1

	Batch   1 pq = [       0,    9405] index = [             0,44231715] size =     44231715
	Batch   2 pq = [    9405,   13301] index = [      44231715,88464951] size =     44233236
	Batch   3 pq = [   13301,   16290] index = [      88464951,132690195] size =     44225244
	Batch   4 pq = [   16290,   18810] index = [     132690195,176917455] size =     44227260
	Batch   5 pq = [   18810,   21030] index = [     176917455,221140965] size =     44223510
	Batch   6 pq = [   21030,   23037] index = [     221140965,265363203] size =     44222238
	Batch   7 pq = [   23037,   24883] index = [     265363203,309594286] size =     44231083
	Batch   8 pq = [   24883,   26601] index = [     309594286,353819901] size =     44225615
	Batch   9 pq = [   26601,   28214] index = [     353819901,398029005] size =     44209104
	Batch  10 pq = [   28214,   29740] index = [     398029005,442248670] size =     44219665
	Batch  11 pq = [   29740,   29890] index = [     442248670,446720995] size =      4472325
  Task number: 41
  Buffer size: 11059200
  Buffer per thread: 2
  We computed 27084637 shell quartets total.
  Whereas there are 26357430 unique shell quartets.
     2.76 percent of shell quartets recomputed by reordering.

  ==> DiskJK: Disk-Based J/K Matrices <==

    J tasked:                  Yes
    K tasked:                  Yes
    wK tasked:                  No
    Memory [MiB]:              375
    Schwarz Cutoff:          1E-12

    OpenMP threads:              1

  Minimum eigenvalue in the overlap matrix is 3.0145971973E-04.
  Using Symmetric Orthogonalization.

  SCF Guess: Superposition of Atomic Densities via on-the-fly atomic UHF.

  ==> Iterations <==

                        Total Energy        Delta E     RMS |[F,P]|

   @RHF iter SAD:  -425.95962203260677   -4.25960e+02   0.00000e+00
   @RHF iter   1:  -426.77189457127383   -8.12273e-01   2.65852e-03 DIIS
   @RHF iter   2:  -427.02189013551697   -2.49996e-01   1.13022e-03 DIIS
   @RHF iter   3:  -427.06293027799211   -4.10401e-02   2.46884e-04 DIIS
   @RHF iter   4:  -427.06622933820927   -3.29906e-03   6.15478e-05 DIIS
   @RHF iter   5:  -427.06637161683034   -1.42279e-04   1.54157e-05 DIIS
   @RHF iter   6:  -427.06638093808448   -9.32125e-06   5.15343e-06 DIIS
   @RHF iter   7:  -427.06638202584020   -1.08776e-06   1.12549e-06 DIIS
   @RHF iter   8:  -427.06638209243181   -6.65916e-08   2.61098e-07 DIIS
   @RHF iter   9:  -427.06638209895505   -6.52324e-09   9.88503e-08 DIIS
   @RHF iter  10:  -427.06638209996663   -1.01159e-09   4.43133e-08 DIIS
   @RHF iter  11:  -427.06638210025926   -2.92630e-10   2.12987e-08 DIIS
   @RHF iter  12:  -427.06638210034316   -8.39009e-11   9.43128e-09 DIIS
   @RHF iter  13:  -427.06638210035538   -1.22213e-11   3.38827e-09 DIIS
   @RHF iter  14:  -427.06638210036033   -4.94538e-12   8.45529e-10 DIIS
   @RHF iter  15:  -427.06638210036147   -1.13687e-12   2.76083e-10 DIIS
   @RHF iter  16:  -427.06638210035817    3.29692e-12   1.00145e-10 DIIS
   @RHF iter  17:  -427.06638210035931   -1.13687e-12   5.13889e-11 DIIS
  Energy and wave function converged.

  ==> Post-Iterations <==

    Orbital Energies [Eh]
    ---------------------

    Doubly Occupied:

       1A    -11.239507     2A    -11.235072     3A    -11.234837
       4A    -11.230984     5A    -11.230600     6A    -11.229673
       7A    -11.228266     8A    -11.219891     9A    -11.211789
      10A    -11.208063    11A    -11.206729    12A     -1.157368
      13A     -1.072786    14A     -1.046955    15A     -1.014223
      16A     -0.933054    17A     -0.923176    18A     -0.918005
      19A     -0.826813    20A     -0.798114    21A     -0.758946
      22A     -0.693504    23A     -0.634037    24A     -0.630135
      25A     -0.622335    26A     -0.585103    27A     -0.583600
      28A     -0.581273    29A     -0.578023    30A     -0.564266
      31A     -0.535672    32A     -0.530772    33A     -0.528013
      34A     -0.504354    35A     -0.489384    36A     -0.485272
      37A     -0.482705    38A     -0.455264    39A     -0.451689
      40A     -0.447754    41A     -0.334813    42A     -0.323246

    Virtual:

      43A      0.133574    44A      0.140814    45A      0.165970
      46A      0.190084    47A      0.196603    48A      0.209888
      49A      0.227519    50A      0.234134    51A      0.237785
      52A      0.245587    53A      0.256087    54A      0.263630
      55A      0.274331    56A      0.278747    57A      0.283388
      58A      0.296866    59A      0.307909    60A      0.316901
      61A      0.325206    62A      0.337977    63A      0.362794
      64A      0.370181    65A      0.385317    66A      0.407358
      67A      0.416403    68A      0.453642    69A      0.463775
      70A      0.481806    71A      0.496775    72A      0.559303
      73A      0.561199    74A      0.571502    75A      0.594701
      76A      0.610222    77A      0.613802    78A      0.629591
      79A      0.644553    80A      0.683602    81A      0.690767
      82A      0.704393    83A      0.722641    84A      0.731377
      85A      0.740180    86A      0.746406    87A      0.755112
      88A      0.760263    89A      0.765949    90A      0.779531
      91A      0.785196    92A      0.800898    93A      0.827617
      94A      0.839010    95A      0.847704    96A      0.853870
      97A      0.859579    98A      0.869061    99A      0.874154
     100A      0.886547   101A      0.889156   102A      0.897198
     103A      0.899938   104A      0.905387   105A      0.912028
     106A      0.916281   107A      0.917616   108A      0.923113
     109A      0.929428   110A      0.938275   111A      0.949045
     112A      0.954300   113A      0.974434   114A      0.986270
     115A      0.992093   116A      1.003231   117A      1.007923
     118A      1.012035   119A      1.052011   120A      1.074176
     121A      1.122945   122A      1.133098   123A      1.137455
     124A      1.143691   125A      1.152253   126A      1.168272
     127A      1.184579   128A      1.199166   129A      1.241057
     130A      1.244048   131A      1.258354   132A      1.265632
     133A      1.299857   134A      1.308486   135A      1.324453
     136A      1.326754   137A      1.372616   138A      1.405741
     139A      1.414660   140A      1.429749   141A      1.503326
     142A      1.514040   143A      1.549973   144A      1.558074
     145A      1.569340   146A      1.605441   147A      1.660196
     148A      1.673722   149A      1.685855   150A      1.692212
     151A      1.697073   152A      1.699482   153A      1.702979
     154A      1.712127   155A      1.719690   156A      1.748926
     157A      1.759881   158A      1.770694   159A      1.797323
     160A      1.824438   161A      1.842860   162A      1.855896
     163A      1.866511   164A      1.873423   165A      1.897630
     166A      1.902023   167A      1.914157   168A      1.919990
     169A      1.925738   170A      1.930771   171A      1.937661
     172A      1.948919   173A      1.954710   174A      1.959910
     175A      1.971809   176A      1.976147   177A      1.987374
     178A      1.987802   179A      1.995699   180A      2.010378
     181A      2.014345   182A      2.017681   183A      2.045542
     184A      2.056256   185A      2.066660   186A      2.074255
     187A      2.084081   188A      2.111095   189A      2.121600
     190A      2.141425   191A      2.147561   192A      2.156750
     193A      2.165444   194A      2.170875   195A      2.182884
     196A      2.187532   197A      2.252255   198A      2.257985
     199A      2.261698   200A      2.279919   201A      2.296689
     202A      2.299812   203A      2.314375   204A      2.319266
     205A      2.332730   206A      2.339927   207A      2.343806
     208A      2.378211   209A      2.391567   210A      2.465430
     211A      2.481611   212A      2.495984   213A      2.508463
     214A      2.545441   215A      2.575506   216A      2.608117
     217A      2.616404   218A      2.629216   219A      2.714195
     220A      2.735594   221A      2.743019   222A      2.755959
     223A      2.765203   224A      2.771655   225A      2.786530
     226A      2.793103   227A      2.798118   228A      2.817443
     229A      2.817985   230A      2.844447   231A      2.849641
     232A      2.855784   233A      2.872404   234A      2.886819
     235A      2.998267   236A      3.015111   237A      3.026606
     238A      3.036220   239A      3.045294   240A      3.110039
     241A      3.165959   242A      3.215119   243A      3.310766
     244A      3.985533

    Final Occupation by Irrep:
              A
    DOCC [    42 ]

  @RHF Final Energy:  -427.06638210035931

   => Energetics <=

    Nuclear Repulsion Energy =            585.3406553018801333
    One-Electron Energy =               -1736.8819430967550943
    Two-Electron Energy =                 724.4749056945156553
    Total Energy =                       -427.0663821003593057

Computation Completed

Properties will be evaluated at   0.000000,   0.000000,   0.000000 [a0]

Properties computed using the SCF density matrix

  Nuclear Dipole Moment: [e a0]
     X:    -4.5119      Y:   -12.7418      Z:    -1.1655

  Electronic Dipole Moment: [e a0]
     X:     4.6472      Y:    12.8191      Z:     1.0750

  Dipole Moment: [e a0]
     X:     0.1354      Y:     0.0773      Z:    -0.0905     Total:     0.1803

  Dipole Moment: [D]
     X:     0.3441      Y:     0.1966      Z:    -0.2301     Total:     0.4582

*** tstop() called on ds3 at Sun Apr 26 22:33:13 2020
Module time:
	user time   =     187.75 seconds =       3.13 minutes
	system time =      66.23 seconds =       1.10 minutes
	total time  =        256 seconds =       4.27 minutes
Total time:
	user time   =     187.75 seconds =       3.13 minutes
	system time =      66.23 seconds =       1.10 minutes
	total time  =        256 seconds =       4.27 minutes
                                     G D M A

                                 by Anthony Stone

                           version 2.2.06, 22 June 2011

               Distributed Multipoles from Gaussian wavefunctions

Starting at 22:33:13 on 26 Apr 2020

Using SCF density matrix from file ./SSI/SSI-024VAL-079PHE-1-dimer.test.7033.fchk

                         Distributed Multipole Analysis

Standard DMA

Positions and radii in angstrom
Multipole moments in atomic units, ea_0^k for rank k

C          x = -1.437345  y = -2.211682  z =  0.041674 angstrom
           Maximum rank =  0   Radius =  0.650 angstrom
                   Q00  =   0.027579

C          x = -0.408345  y = -3.197682  z = -0.559326 angstrom
           Maximum rank =  0   Radius =  0.650 angstrom
                   Q00  =  -0.265493

C          x = -2.824345  y = -2.831682  z =  0.127674 angstrom
           Maximum rank =  0   Radius =  0.650 angstrom
                   Q00  =  -0.238339

C          x = -0.979345  y = -1.715682  z =  1.426674 angstrom
           Maximum rank =  0   Radius =  0.650 angstrom
                   Q00  =  -0.246002

H          x = -1.499345  y = -1.349682  z = -0.623326 angstrom
           Maximum rank =  0   Radius =  0.325 angstrom
                   Q00  =   0.013206

H          x =  0.508655  y = -2.624682  z = -0.673326 angstrom
           Maximum rank =  0   Radius =  0.325 angstrom
                   Q00  =   0.078940

H          x = -2.832345  y = -3.664682  z =  0.828674 angstrom
           Maximum rank =  0   Radius =  0.325 angstrom
                   Q00  =   0.074752

H          x = -3.529345  y = -2.078682  z =  0.478674 angstrom
           Maximum rank =  0   Radius =  0.325 angstrom
                   Q00  =   0.074261

H          x = -3.157345  y = -3.176682  z = -0.849326 angstrom
           Maximum rank =  0   Radius =  0.325 angstrom
                   Q00  =   0.078885

H          x =  0.013655  y = -1.270682  z =  1.347674 angstrom
           Maximum rank =  0   Radius =  0.325 angstrom
                   Q00  =   0.091273

H          x = -1.670345  y = -0.950682  z =  1.782674 angstrom
           Maximum rank =  0   Radius =  0.325 angstrom
                   Q00  =   0.077837

H          x = -0.957345  y = -2.529682  z =  2.149674 angstrom
           Maximum rank =  0   Radius =  0.325 angstrom
                   Q00  =   0.074578

H          x = -0.694530  y = -3.617969  z = -1.534752 angstrom
           Maximum rank =  0   Radius =  0.325 angstrom
                   Q00  =   0.081475

H          x = -0.185727  y = -4.034143  z =  0.119477 angstrom
           Maximum rank =  0   Radius =  0.325 angstrom
                   Q00  =   0.076741

C          x =  2.273655  y =  1.014318  z = -2.101326 angstrom
           Maximum rank =  0   Radius =  0.650 angstrom
                   Q00  =  -0.204742

C          x = -0.741345  y =  1.573318  z =  0.096674 angstrom
           Maximum rank =  0   Radius =  0.650 angstrom
                   Q00  =  -0.060932

C          x = -0.160345  y =  1.974318  z =  1.306674 angstrom
           Maximum rank =  0   Radius =  0.650 angstrom
                   Q00  =  -0.077029

C          x =  0.051655  y =  1.251318  z = -0.986326 angstrom
           Maximum rank =  0   Radius =  0.650 angstrom
                   Q00  =  -0.085027

C          x =  1.423655  y =  1.376318  z = -0.913326 angstrom
           Maximum rank =  0   Radius =  0.650 angstrom
                   Q00  =  -0.101117

C          x =  1.207655  y =  2.095318  z =  1.389674 angstrom
           Maximum rank =  0   Radius =  0.650 angstrom
                   Q00  =  -0.075764

C          x =  1.998655  y =  1.813318  z =  0.275674 angstrom
           Maximum rank =  0   Radius =  0.650 angstrom
                   Q00  =   0.002980

H          x = -1.812345  y =  1.467318  z =  0.024674 angstrom
           Maximum rank =  0   Radius =  0.325 angstrom
                   Q00  =   0.063443

H          x = -0.782345  y =  2.181318  z =  2.165674 angstrom
           Maximum rank =  0   Radius =  0.325 angstrom
                   Q00  =   0.061769

H          x = -0.412345  y =  0.905318  z = -1.899326 angstrom
           Maximum rank =  0   Radius =  0.325 angstrom
                   Q00  =   0.055350

H          x =  1.670655  y =  2.404318  z =  2.316674 angstrom
           Maximum rank =  0   Radius =  0.325 angstrom
                   Q00  =   0.064118

H          x =  3.062655  y =  1.760318  z = -2.201326 angstrom
           Maximum rank =  0   Radius =  0.325 angstrom
                   Q00  =   0.099394

H          x =  1.669655  y =  1.060318  z = -3.006326 angstrom
           Maximum rank =  0   Radius =  0.325 angstrom
                   Q00  =   0.097438

H          x =  3.068655  y =  1.912318  z =  0.357674 angstrom
           Maximum rank =  0   Radius =  0.325 angstrom
                   Q00  =   0.055291

H          x =  2.726605  y =  0.014659  z = -2.027037 angstrom
           Maximum rank =  0   Radius =  0.325 angstrom
                   Q00  =   0.105135

Total multipoles referred to origin at
           x =   0.000000,  y =    0.000000,  z =    0.000000 angstrom
                   Q00  =  -0.000000

Finished at 22:33:13 on 26 Apr 2020

  DMA results are available in the Python driver through the
	  variable('DMA DISTRIBUTED MULTIPOLES')
  and
	  variable('DMA TOTAL MULTIPOLES')
  commands.

    Psi4 stopped on: Sunday, 26 April 2020 10:33PM
    Psi4 wall time for execution: 0:04:15.98

*** Psi4 exiting successfully. Buy a developer a beer!
