                               Psi4 1.3.2 release

  ==> Input File <==

--------------------------------------------------------------------------
import numpy as np
set {scf_type pk
basis cc-pvdz
d_convergence 10
gdma_switch   0
gdma_limit    0
gdma_origin   [ 0.0,  0.0,  0.0 ]
}
molecule test {
    units Angstrom
    1 1
    --
    1 1
    C               -3.642865152788759     1.144960045310326    -0.468025996975187
    C                0.155134847211241     1.660960045310326    -0.250025996975187
    C               -1.228865152788759     1.715960045310326     0.026974003024813
    C                0.610134847211241     1.014960045310326    -1.391025996975187
    C               -2.162865152788759     1.126960045310326    -0.817025996975187
    C               -0.308865152788759     0.436960045310326    -2.260025996975187
    C               -1.698865152788759     0.485960045310326    -1.971025996975187
    H                0.873134847211241     2.119960045310326     0.419974003024813
    H               -1.587865152788759     2.220960045310326     0.908974003024813
    H                1.670134847211241     0.964960045310326    -1.601025996975187
    H                0.053134847211241    -0.052039954689674    -3.157025996975187
    H               -4.195865152788759     0.991960045310326    -1.397025996975187
    H               -3.870865152788759     2.139960045310326    -0.085025996975187
    H               -2.412865152788759     0.025960045310326    -2.643025996975187
    H               -3.943655152788758     0.409700045310326     0.292834003024813
    C               -0.077865152788759    -1.274039954689674     2.451974003024813
    C                1.906134847211241    -1.367039954689674     0.948974003024813
    N                0.732134847211241    -1.842039954689674     1.356974003024813
    N                2.458134847211241    -0.346039954689674     1.567974003024813
    N                2.549134847211242    -1.947039954689674    -0.054025996975187
    H                0.339134847211241    -2.629039954689674     0.858974003024813
    H                1.992134847211241     0.074960045310326     2.356974003024813
    H                3.346134847211241     0.013960045310326     1.256974003024813
    H                2.154134847211241    -2.758039954689674    -0.511025996975187
    H                3.441134847211241    -1.592039954689674    -0.370025996975187
    H               -0.265865152788759    -0.218039954689674     2.236974003024813
    H                0.486134847211241    -1.348039954689674     3.381974003024813
    H               -1.038935152788759    -1.797229954689674     2.564284003024813

}
e, wfn = energy('scf', return_wfn=True)
gdma(wfn)
dmavals = variable('DMA DISTRIBUTED MULTIPOLES')
charges = np.array(dmavals)
print(charges)
np.save('SSI-077PHE-201ARG-1-dimer.npy', np.array(charges))--------------------------------------------------------------------------

*** tstart() called on ds3
*** at Mon Apr 27 08:40:27 2020

   => Loading Basis Set <=

    Name: CC-PVDZ
    Role: ORBITAL
    Keyword: BASIS
    atoms 1-7, 16-17  entry C          line   138 file /theoryfs2/ds/metcalf/miniconda2/envs/tf2gpu/share/psi4/basis/cc-pvdz.gbs
    atoms 8-15, 21-28 entry H          line    22 file /theoryfs2/ds/metcalf/miniconda2/envs/tf2gpu/share/psi4/basis/cc-pvdz.gbs
    atoms 18-20       entry N          line   168 file /theoryfs2/ds/metcalf/miniconda2/envs/tf2gpu/share/psi4/basis/cc-pvdz.gbs

         ---------------------------------------------------------
                                   SCF
               by Justin Turney, Rob Parrish, Andy Simmonett
                          and Daniel G. A. Smith
                              RHF Reference
                        1 Threads,    500 MiB Core
         ---------------------------------------------------------

  ==> Geometry <==

    Molecular point group: c1
    Full point group: C1

    Geometry (in Angstrom), charge = 1, multiplicity = 1:

       Center              X                  Y                   Z               Mass
    ------------   -----------------  -----------------  -----------------  -----------------
         C           -3.642865152789     1.144960045310    -0.468025996975    12.000000000000
         C            0.155134847211     1.660960045310    -0.250025996975    12.000000000000
         C           -1.228865152789     1.715960045310     0.026974003025    12.000000000000
         C            0.610134847211     1.014960045310    -1.391025996975    12.000000000000
         C           -2.162865152789     1.126960045310    -0.817025996975    12.000000000000
         C           -0.308865152789     0.436960045310    -2.260025996975    12.000000000000
         C           -1.698865152789     0.485960045310    -1.971025996975    12.000000000000
         H            0.873134847211     2.119960045310     0.419974003025     1.007825032230
         H           -1.587865152789     2.220960045310     0.908974003025     1.007825032230
         H            1.670134847211     0.964960045310    -1.601025996975     1.007825032230
         H            0.053134847211    -0.052039954690    -3.157025996975     1.007825032230
         H           -4.195865152789     0.991960045310    -1.397025996975     1.007825032230
         H           -3.870865152789     2.139960045310    -0.085025996975     1.007825032230
         H           -2.412865152789     0.025960045310    -2.643025996975     1.007825032230
         H           -3.943655152789     0.409700045310     0.292834003025     1.007825032230
         C           -0.077865152789    -1.274039954690     2.451974003025    12.000000000000
         C            1.906134847211    -1.367039954690     0.948974003025    12.000000000000
         N            0.732134847211    -1.842039954690     1.356974003025    14.003074004430
         N            2.458134847211    -0.346039954690     1.567974003025    14.003074004430
         N            2.549134847211    -1.947039954690    -0.054025996975    14.003074004430
         H            0.339134847211    -2.629039954690     0.858974003025     1.007825032230
         H            1.992134847211     0.074960045310     2.356974003025     1.007825032230
         H            3.346134847211     0.013960045310     1.256974003025     1.007825032230
         H            2.154134847211    -2.758039954690    -0.511025996975     1.007825032230
         H            3.441134847211    -1.592039954690    -0.370025996975     1.007825032230
         H           -0.265865152789    -0.218039954690     2.236974003025     1.007825032230
         H            0.486134847211    -1.348039954690     3.381974003025     1.007825032230
         H           -1.038935152789    -1.797229954690     2.564284003025     1.007825032230

  Running in c1 symmetry.

  Rotational constants: A =      0.04464  B =      0.01719  C =      0.01518 [cm^-1]
  Rotational constants: A =   1338.16329  B =    515.35879  C =    455.11664 [MHz]
  Nuclear repulsion =  691.641104581617810

  Charge       = 1
  Multiplicity = 1
  Electrons    = 90
  Nalpha       = 45
  Nbeta        = 45

  ==> Algorithm <==

  SCF Algorithm Type is PK.
  DIIS enabled.
  MOM disabled.
  Fractional occupation disabled.
  Guess Type is SAD.
  Energy threshold   = 1.00e-06
  Density threshold  = 1.00e-10
  Integral threshold = 0.00e+00

  ==> Primary Basis <==

  Basis Set: CC-PVDZ
    Blend: CC-PVDZ
    Number of shells: 120
    Number of basis function: 248
    Number of Cartesian functions: 260
    Spherical Harmonics?: true
    Max angular momentum: 2

  ==> Pre-Iterations <==

   -------------------------------------------------------
    Irrep   Nso     Nmo     Nalpha   Nbeta   Ndocc  Nsocc
   -------------------------------------------------------
     A        248     248       0       0       0       0
   -------------------------------------------------------
    Total     248     248      45      45      45       0
   -------------------------------------------------------

  ==> Integral Setup <==

  Using integral reordering PK algorithm.
  Sizing the integral batches needed.
  Building batch lookup table.
   Calculation information:
      Number of atoms:                  28
      Number of AO shells:             120
      Number of primitives:            344
      Number of atomic orbitals:       260
      Number of basis functions:       248

      Integral cutoff                 1.00e-12
      Number of threads:                 1

	Batch   1 pq = [       0,    9405] index = [             0,44231715] size =     44231715
	Batch   2 pq = [    9405,   13301] index = [      44231715,88464951] size =     44233236
	Batch   3 pq = [   13301,   16290] index = [      88464951,132690195] size =     44225244
	Batch   4 pq = [   16290,   18810] index = [     132690195,176917455] size =     44227260
	Batch   5 pq = [   18810,   21030] index = [     176917455,221140965] size =     44223510
	Batch   6 pq = [   21030,   23037] index = [     221140965,265363203] size =     44222238
	Batch   7 pq = [   23037,   24883] index = [     265363203,309594286] size =     44231083
	Batch   8 pq = [   24883,   26601] index = [     309594286,353819901] size =     44225615
	Batch   9 pq = [   26601,   28214] index = [     353819901,398029005] size =     44209104
	Batch  10 pq = [   28214,   29740] index = [     398029005,442248670] size =     44219665
	Batch  11 pq = [   29740,   30876] index = [     442248670,476679126] size =     34430456
  Task number: 44
  Buffer size: 11059200
  Buffer per thread: 2
  We computed 27656573 shell quartets total.
  Whereas there are 26357430 unique shell quartets.
     4.93 percent of shell quartets recomputed by reordering.

  ==> DiskJK: Disk-Based J/K Matrices <==

    J tasked:                  Yes
    K tasked:                  Yes
    wK tasked:                  No
    Memory [MiB]:              375
    Schwarz Cutoff:          1E-12

    OpenMP threads:              1

  Minimum eigenvalue in the overlap matrix is 3.2058091809E-04.
  Using Symmetric Orthogonalization.

  SCF Guess: Superposition of Atomic Densities via on-the-fly atomic UHF.

  ==> Iterations <==

                        Total Energy        Delta E     RMS |[F,P]|

   @RHF iter SAD:  -512.48796513543789   -5.12488e+02   0.00000e+00
   @RHF iter   1:  -513.08477284036144   -5.96808e-01   2.56170e-03 DIIS
   @RHF iter   2:  -513.31124300176884   -2.26470e-01   9.97818e-04 DIIS
   @RHF iter   3:  -513.34250399944506   -3.12610e-02   2.51564e-04 DIIS
   @RHF iter   4:  -513.34559191342453   -3.08791e-03   5.28952e-05 DIIS
   @RHF iter   5:  -513.34570968403409   -1.17771e-04   2.00533e-05 DIIS
   @RHF iter   6:  -513.34572711580051   -1.74318e-05   6.15017e-06 DIIS
   @RHF iter   7:  -513.34572894394660   -1.82815e-06   1.73239e-06 DIIS
   @RHF iter   8:  -513.34572915431181   -2.10365e-07   4.04448e-07 DIIS
   @RHF iter   9:  -513.34572916485729   -1.05455e-08   1.05802e-07 DIIS
   @RHF iter  10:  -513.34572916555271   -6.95422e-10   3.89221e-08 DIIS
   @RHF iter  11:  -513.34572916568970   -1.36993e-10   1.49616e-08 DIIS
   @RHF iter  12:  -513.34572916571835   -2.86491e-11   7.39074e-09 DIIS
   @RHF iter  13:  -513.34572916573109   -1.27329e-11   3.50668e-09 DIIS
   @RHF iter  14:  -513.34572916573609   -5.00222e-12   9.38625e-10 DIIS
   @RHF iter  15:  -513.34572916573529    7.95808e-13   3.28799e-10 DIIS
   @RHF iter  16:  -513.34572916573836   -3.06954e-12   1.34195e-10 DIIS
   @RHF iter  17:  -513.34572916573916   -7.95808e-13   4.77866e-11 DIIS
  Energy and wave function converged.

  ==> Post-Iterations <==

    Orbital Energies [Eh]
    ---------------------

    Doubly Occupied:

       1A    -15.783299     2A    -15.781227     3A    -15.776731
       4A    -11.583491     5A    -11.434108     6A    -11.346689
       7A    -11.343711     8A    -11.343489     9A    -11.340271
      10A    -11.336779    11A    -11.336584    12A    -11.320997
      13A     -1.536049    14A     -1.391250    15A     -1.384727
      16A     -1.252727    17A     -1.146266    18A     -1.131538
      19A     -1.108433    20A     -1.031572    21A     -1.028144
      22A     -0.971634    23A     -0.932131    24A     -0.931826
      25A     -0.893565    26A     -0.852933    27A     -0.850219
      28A     -0.816655    29A     -0.794120    30A     -0.782995
      31A     -0.735744    32A     -0.733575    33A     -0.730652
      34A     -0.716050    35A     -0.680610    36A     -0.671768
      37A     -0.661102    38A     -0.630401    39A     -0.611678
      40A     -0.590703    41A     -0.586887    42A     -0.579623
      43A     -0.576079    44A     -0.431711    45A     -0.430126

    Virtual:

      46A     -0.007933    47A      0.022951    48A      0.025609
      49A      0.031204    50A      0.036170    51A      0.043524
      52A      0.065378    53A      0.083913    54A      0.090416
      55A      0.114819    56A      0.117273    57A      0.124844
      58A      0.130695    59A      0.145328    60A      0.164210
      61A      0.165060    62A      0.171148    63A      0.195947
      64A      0.198359    65A      0.208090    66A      0.259463
      67A      0.278304    68A      0.286696    69A      0.327475
      70A      0.335995    71A      0.353231    72A      0.357444
      73A      0.376221    74A      0.391650    75A      0.431963
      76A      0.464139    77A      0.465625    78A      0.495059
      79A      0.503019    80A      0.515291    81A      0.532144
      82A      0.537828    83A      0.543689    84A      0.545148
      85A      0.566151    86A      0.576091    87A      0.590205
      88A      0.608194    89A      0.624977    90A      0.637543
      91A      0.645526    92A      0.649122    93A      0.652100
      94A      0.675650    95A      0.684208    96A      0.686833
      97A      0.702571    98A      0.711954    99A      0.723886
     100A      0.734465   101A      0.743905   102A      0.754131
     103A      0.763633   104A      0.767080   105A      0.775253
     106A      0.791519   107A      0.794411   108A      0.796262
     109A      0.799612   110A      0.820345   111A      0.827206
     112A      0.841807   113A      0.849279   114A      0.852528
     115A      0.877646   116A      0.882020   117A      0.894708
     118A      0.904477   119A      0.923981   120A      0.936772
     121A      0.952862   122A      0.961519   123A      0.992801
     124A      1.019640   125A      1.032809   126A      1.048672
     127A      1.051629   128A      1.060646   129A      1.086375
     130A      1.104705   131A      1.118381   132A      1.131916
     133A      1.144518   134A      1.150803   135A      1.157116
     136A      1.174307   137A      1.190838   138A      1.203458
     139A      1.208194   140A      1.208855   141A      1.221582
     142A      1.224413   143A      1.234250   144A      1.287097
     145A      1.315287   146A      1.395265   147A      1.417556
     148A      1.419751   149A      1.450194   150A      1.492520
     151A      1.508679   152A      1.519436   153A      1.540252
     154A      1.557922   155A      1.570302   156A      1.592203
     157A      1.604517   158A      1.619970   159A      1.633102
     160A      1.637775   161A      1.659158   162A      1.674803
     163A      1.686225   164A      1.694669   165A      1.696752
     166A      1.729283   167A      1.744380   168A      1.757124
     169A      1.768331   170A      1.773253   171A      1.784382
     172A      1.791742   173A      1.800992   174A      1.807341
     175A      1.816962   176A      1.825571   177A      1.833233
     178A      1.845944   179A      1.847821   180A      1.852797
     181A      1.865463   182A      1.878351   183A      1.882031
     184A      1.897512   185A      1.901552   186A      1.945167
     187A      1.946951   188A      1.964654   189A      2.001196
     190A      2.018872   191A      2.029193   192A      2.041914
     193A      2.043832   194A      2.058939   195A      2.064306
     196A      2.080766   197A      2.090528   198A      2.107322
     199A      2.132402   200A      2.146788   201A      2.167267
     202A      2.190856   203A      2.196339   204A      2.210042
     205A      2.220159   206A      2.228224   207A      2.252338
     208A      2.270249   209A      2.295985   210A      2.325621
     211A      2.342952   212A      2.359383   213A      2.372593
     214A      2.375094   215A      2.403245   216A      2.430865
     217A      2.443218   218A      2.461586   219A      2.511907
     220A      2.554743   221A      2.593106   222A      2.611148
     223A      2.628472   224A      2.643296   225A      2.661442
     226A      2.675339   227A      2.682824   228A      2.701067
     229A      2.703492   230A      2.749018   231A      2.764973
     232A      2.773018   233A      2.785078   234A      2.826976
     235A      2.840737   236A      2.867120   237A      2.882905
     238A      2.891885   239A      2.933685   240A      3.028622
     241A      3.067998   242A      3.079015   243A      3.100278
     244A      3.143848   245A      3.180466   246A      3.565749
     247A      3.653917   248A      3.829842

    Final Occupation by Irrep:
              A
    DOCC [    45 ]

  @RHF Final Energy:  -513.34572916573916

   => Energetics <=

    Nuclear Repulsion Energy =            691.6411045816178103
    One-Electron Energy =               -2054.1119321117112122
    Two-Electron Energy =                 849.1250983643542440
    Total Energy =                       -513.3457291657391579

Computation Completed

Properties will be evaluated at   0.000000,   0.000000,   0.000000 [a0]

Properties computed using the SCF density matrix

  Nuclear Dipole Moment: [e a0]
     X:    -2.7922      Y:    -1.3305      Z:     4.2232

  Electronic Dipole Moment: [e a0]
     X:     5.5024      Y:    -1.0539      Z:    -2.4423

  Dipole Moment: [e a0]
     X:     2.7102      Y:    -2.3844      Z:     1.7809     Total:     4.0252

  Dipole Moment: [D]
     X:     6.8887      Y:    -6.0606      Z:     4.5266     Total:    10.2311

*** tstop() called on ds3 at Mon Apr 27 08:54:07 2020
Module time:
	user time   =     203.69 seconds =       3.39 minutes
	system time =      68.20 seconds =       1.14 minutes
	total time  =        820 seconds =      13.67 minutes
Total time:
	user time   =     203.69 seconds =       3.39 minutes
	system time =      68.20 seconds =       1.14 minutes
	total time  =        820 seconds =      13.67 minutes
                                     G D M A

                                 by Anthony Stone

                           version 2.2.06, 22 June 2011

               Distributed Multipoles from Gaussian wavefunctions

Starting at 8:54:7 on 27 Apr 2020

Using SCF density matrix from file ./SSI/SSI-077PHE-201ARG-1-dimer.test.992.fchk

                         Distributed Multipole Analysis

Standard DMA

Positions and radii in angstrom
Multipole moments in atomic units, ea_0^k for rank k

C          x = -3.642865  y =  1.144960  z = -0.468026 angstrom
           Maximum rank =  0   Radius =  0.650 angstrom
                   Q00  =  -0.194624

C          x =  0.155135  y =  1.660960  z = -0.250026 angstrom
           Maximum rank =  0   Radius =  0.650 angstrom
                   Q00  =  -0.089617

C          x = -1.228865  y =  1.715960  z =  0.026974 angstrom
           Maximum rank =  0   Radius =  0.650 angstrom
                   Q00  =  -0.012295

C          x =  0.610135  y =  1.014960  z = -1.391026 angstrom
           Maximum rank =  0   Radius =  0.650 angstrom
                   Q00  =  -0.102114

C          x = -2.162865  y =  1.126960  z = -0.817026 angstrom
           Maximum rank =  0   Radius =  0.650 angstrom
                   Q00  =  -0.107041

C          x = -0.308865  y =  0.436960  z = -2.260026 angstrom
           Maximum rank =  0   Radius =  0.650 angstrom
                   Q00  =  -0.066407

C          x = -1.698865  y =  0.485960  z = -1.971026 angstrom
           Maximum rank =  0   Radius =  0.650 angstrom
                   Q00  =  -0.087651

H          x =  0.873135  y =  2.119960  z =  0.419974 angstrom
           Maximum rank =  0   Radius =  0.325 angstrom
                   Q00  =   0.055488

H          x = -1.587865  y =  2.220960  z =  0.908974 angstrom
           Maximum rank =  0   Radius =  0.325 angstrom
                   Q00  =   0.066919

H          x =  1.670135  y =  0.964960  z = -1.601026 angstrom
           Maximum rank =  0   Radius =  0.325 angstrom
                   Q00  =   0.049481

H          x =  0.053135  y = -0.052040  z = -3.157026 angstrom
           Maximum rank =  0   Radius =  0.325 angstrom
                   Q00  =   0.077360

H          x = -4.195865  y =  0.991960  z = -1.397026 angstrom
           Maximum rank =  0   Radius =  0.325 angstrom
                   Q00  =   0.113601

H          x = -3.870865  y =  2.139960  z = -0.085026 angstrom
           Maximum rank =  0   Radius =  0.325 angstrom
                   Q00  =   0.112622

H          x = -2.412865  y =  0.025960  z = -2.643026 angstrom
           Maximum rank =  0   Radius =  0.325 angstrom
                   Q00  =   0.079813

H          x = -3.943655  y =  0.409700  z =  0.292834 angstrom
           Maximum rank =  0   Radius =  0.325 angstrom
                   Q00  =   0.104902

C          x = -0.077865  y = -1.274040  z =  2.451974 angstrom
           Maximum rank =  0   Radius =  0.650 angstrom
                   Q00  =  -0.115891

C          x =  1.906135  y = -1.367040  z =  0.948974 angstrom
           Maximum rank =  0   Radius =  0.650 angstrom
                   Q00  =   1.077267

N          x =  0.732135  y = -1.842040  z =  1.356974 angstrom
           Maximum rank =  0   Radius =  0.650 angstrom
                   Q00  =  -0.494566

N          x =  2.458135  y = -0.346040  z =  1.567974 angstrom
           Maximum rank =  0   Radius =  0.650 angstrom
                   Q00  =  -0.569812

N          x =  2.549135  y = -1.947040  z = -0.054026 angstrom
           Maximum rank =  0   Radius =  0.650 angstrom
                   Q00  =  -0.594865

H          x =  0.339135  y = -2.629040  z =  0.858974 angstrom
           Maximum rank =  0   Radius =  0.325 angstrom
                   Q00  =   0.233073

H          x =  1.992135  y =  0.074960  z =  2.356974 angstrom
           Maximum rank =  0   Radius =  0.325 angstrom
                   Q00  =   0.272941

H          x =  3.346135  y =  0.013960  z =  1.256974 angstrom
           Maximum rank =  0   Radius =  0.325 angstrom
                   Q00  =   0.264803

H          x =  2.154135  y = -2.758040  z = -0.511026 angstrom
           Maximum rank =  0   Radius =  0.325 angstrom
                   Q00  =   0.266422

H          x =  3.441135  y = -1.592040  z = -0.370026 angstrom
           Maximum rank =  0   Radius =  0.325 angstrom
                   Q00  =   0.264679

H          x = -0.265865  y = -0.218040  z =  2.236974 angstrom
           Maximum rank =  0   Radius =  0.325 angstrom
                   Q00  =   0.119320

H          x =  0.486135  y = -1.348040  z =  3.381974 angstrom
           Maximum rank =  0   Radius =  0.325 angstrom
                   Q00  =   0.109670

H          x = -1.038935  y = -1.797230  z =  2.564284 angstrom
           Maximum rank =  0   Radius =  0.325 angstrom
                   Q00  =   0.166523

Total multipoles referred to origin at
           x =   0.000000,  y =    0.000000,  z =    0.000000 angstrom
                   Q00  =   1.000000

Finished at 8:54:7 on 27 Apr 2020

  DMA results are available in the Python driver through the
	  variable('DMA DISTRIBUTED MULTIPOLES')
  and
	  variable('DMA TOTAL MULTIPOLES')
  commands.

    Psi4 stopped on: Monday, 27 April 2020 08:54AM
    Psi4 wall time for execution: 0:13:40.30

*** Psi4 exiting successfully. Buy a developer a beer!
