                               Psi4 1.3.2 release

  ==> Input File <==

--------------------------------------------------------------------------
import numpy as np
set {scf_type pk
basis cc-pvdz
d_convergence 10
gdma_switch   0
gdma_limit    0
gdma_origin   [ 0.0,  0.0,  0.0 ]
}
molecule test {
    units Angstrom
    0 1
    --
    0 1
    C                0.734727267589600    -0.133009939367282    -4.521841650309992
    C               -0.377272732410400    -0.401009939367282    -0.935841650309991
    C                0.516727267589600     0.107990060632718    -1.916841650309991
    C                0.101727267589600    -0.413009939367282    -3.189841650309991
    C               -0.991272732410400    -1.187009939367282    -2.943841650309991
    C               -0.255272732410400    -0.096009939367282     0.415158349690009
    C                0.783727267589600     0.738990060632718     0.798158349690009
    C                1.680727267589600     1.260990060632718    -0.148841650309991
    C                1.556727267589600     0.952990060632718    -1.503841650309991
    N               -1.282272732410400    -1.188009939367282    -1.598841650309991
    H               -0.955272732410400    -0.502009939367282     1.131158349690009
    H                0.913727267589600     0.995990060632718     1.838158349690009
    H               -2.013272732410400    -1.751009939367282    -1.153841650309991
    H                2.479727267589599     1.912990060632718     0.175158349690009
    H               -1.545272732410400    -1.728009939367282    -3.700841650309991
    H                2.252727267589600     1.348990060632718    -2.228841650309992
    H                0.652727267589600    -1.028009939367282    -5.138841650309991
    H                1.793727267589600     0.065990060632718    -4.367841650309992
    H                0.267447267589600     0.708810060632718    -5.053821650309991
    C               -0.583272732410400     0.240990060632718     4.208158349690009
    C                0.406727267589600    -0.438009939367282     5.156158349690009
    C               -1.922272732410400     0.653990060632718     4.803158349690009
    H               -0.110272732410400     1.139990060632718     3.808158349690009
    H               -0.778272732410400    -0.444009939367282     3.382158349690009
    H               -0.025272732410400    -1.379009939367283     5.502158349690008
    H               -2.468272732410401    -0.214009939367282     5.151158349690009
    H               -1.762272732410400     1.343990060632718     5.631158349690009
    H                0.647237267589600     0.217390060632718     6.006218349690009
    H                1.320157267589600    -0.669619939367282     4.588708349690009
    H               -2.519782732410401     1.153600060632718     4.026388349690008

}
e, wfn = energy('scf', return_wfn=True)
gdma(wfn)
dmavals = variable('DMA DISTRIBUTED MULTIPOLES')
charges = np.array(dmavals)
print(charges)
np.save('SSI-025TRP-144LYS-1-dimer.npy', np.array(charges))--------------------------------------------------------------------------

*** tstart() called on ds3
*** at Mon Apr 27 02:10:11 2020

   => Loading Basis Set <=

    Name: CC-PVDZ
    Role: ORBITAL
    Keyword: BASIS
    atoms 1-9, 20-22   entry C          line   138 file /theoryfs2/ds/metcalf/miniconda2/envs/tf2gpu/share/psi4/basis/cc-pvdz.gbs
    atoms 10           entry N          line   168 file /theoryfs2/ds/metcalf/miniconda2/envs/tf2gpu/share/psi4/basis/cc-pvdz.gbs
    atoms 11-19, 23-30 entry H          line    22 file /theoryfs2/ds/metcalf/miniconda2/envs/tf2gpu/share/psi4/basis/cc-pvdz.gbs

         ---------------------------------------------------------
                                   SCF
               by Justin Turney, Rob Parrish, Andy Simmonett
                          and Daniel G. A. Smith
                              RHF Reference
                        1 Threads,    500 MiB Core
         ---------------------------------------------------------

  ==> Geometry <==

    Molecular point group: c1
    Full point group: C1

    Geometry (in Angstrom), charge = 0, multiplicity = 1:

       Center              X                  Y                   Z               Mass
    ------------   -----------------  -----------------  -----------------  -----------------
         C            0.734727267590    -0.133009939367    -4.521841650310    12.000000000000
         C           -0.377272732410    -0.401009939367    -0.935841650310    12.000000000000
         C            0.516727267590     0.107990060633    -1.916841650310    12.000000000000
         C            0.101727267590    -0.413009939367    -3.189841650310    12.000000000000
         C           -0.991272732410    -1.187009939367    -2.943841650310    12.000000000000
         C           -0.255272732410    -0.096009939367     0.415158349690    12.000000000000
         C            0.783727267590     0.738990060633     0.798158349690    12.000000000000
         C            1.680727267590     1.260990060633    -0.148841650310    12.000000000000
         C            1.556727267590     0.952990060633    -1.503841650310    12.000000000000
         N           -1.282272732410    -1.188009939367    -1.598841650310    14.003074004430
         H           -0.955272732410    -0.502009939367     1.131158349690     1.007825032230
         H            0.913727267590     0.995990060633     1.838158349690     1.007825032230
         H           -2.013272732410    -1.751009939367    -1.153841650310     1.007825032230
         H            2.479727267590     1.912990060633     0.175158349690     1.007825032230
         H           -1.545272732410    -1.728009939367    -3.700841650310     1.007825032230
         H            2.252727267590     1.348990060633    -2.228841650310     1.007825032230
         H            0.652727267590    -1.028009939367    -5.138841650310     1.007825032230
         H            1.793727267590     0.065990060633    -4.367841650310     1.007825032230
         H            0.267447267590     0.708810060633    -5.053821650310     1.007825032230
         C           -0.583272732410     0.240990060633     4.208158349690    12.000000000000
         C            0.406727267590    -0.438009939367     5.156158349690    12.000000000000
         C           -1.922272732410     0.653990060633     4.803158349690    12.000000000000
         H           -0.110272732410     1.139990060633     3.808158349690     1.007825032230
         H           -0.778272732410    -0.444009939367     3.382158349690     1.007825032230
         H           -0.025272732410    -1.379009939367     5.502158349690     1.007825032230
         H           -2.468272732410    -0.214009939367     5.151158349690     1.007825032230
         H           -1.762272732410     1.343990060633     5.631158349690     1.007825032230
         H            0.647237267590     0.217390060633     6.006218349690     1.007825032230
         H            1.320157267590    -0.669619939367     4.588708349690     1.007825032230
         H           -2.519782732410     1.153600060633     4.026388349690     1.007825032230

  Running in c1 symmetry.

  Rotational constants: A =      0.05769  B =      0.00956  C =      0.00858 [cm^-1]
  Rotational constants: A =   1729.41256  B =    286.60665  C =    257.23724 [MHz]
  Nuclear repulsion =  721.943963556013387

  Charge       = 0
  Multiplicity = 1
  Electrons    = 96
  Nalpha       = 48
  Nbeta        = 48

  ==> Algorithm <==

  SCF Algorithm Type is PK.
  DIIS enabled.
  MOM disabled.
  Fractional occupation disabled.
  Guess Type is SAD.
  Energy threshold   = 1.00e-06
  Density threshold  = 1.00e-10
  Integral threshold = 0.00e+00

  ==> Primary Basis <==

  Basis Set: CC-PVDZ
    Blend: CC-PVDZ
    Number of shells: 129
    Number of basis function: 267
    Number of Cartesian functions: 280
    Spherical Harmonics?: true
    Max angular momentum: 2

  ==> Pre-Iterations <==

   -------------------------------------------------------
    Irrep   Nso     Nmo     Nalpha   Nbeta   Ndocc  Nsocc
   -------------------------------------------------------
     A        267     267       0       0       0       0
   -------------------------------------------------------
    Total     267     267      48      48      48       0
   -------------------------------------------------------

  ==> Integral Setup <==

  Using integral reordering PK algorithm.
  Sizing the integral batches needed.
  Building batch lookup table.
   Calculation information:
      Number of atoms:                  30
      Number of AO shells:             129
      Number of primitives:            371
      Number of atomic orbitals:       280
      Number of basis functions:       267

      Integral cutoff                 1.00e-12
      Number of threads:                 1

	Batch   1 pq = [       0,    9405] index = [             0,44231715] size =     44231715
	Batch   2 pq = [    9405,   13301] index = [      44231715,88464951] size =     44233236
	Batch   3 pq = [   13301,   16290] index = [      88464951,132690195] size =     44225244
	Batch   4 pq = [   16290,   18810] index = [     132690195,176917455] size =     44227260
	Batch   5 pq = [   18810,   21030] index = [     176917455,221140965] size =     44223510
	Batch   6 pq = [   21030,   23037] index = [     221140965,265363203] size =     44222238
	Batch   7 pq = [   23037,   24883] index = [     265363203,309594286] size =     44231083
	Batch   8 pq = [   24883,   26601] index = [     309594286,353819901] size =     44225615
	Batch   9 pq = [   26601,   28214] index = [     353819901,398029005] size =     44209104
	Batch  10 pq = [   28214,   29740] index = [     398029005,442248670] size =     44219665
	Batch  11 pq = [   29740,   31191] index = [     442248670,486454836] size =     44206166
	Batch  12 pq = [   31191,   32578] index = [     486454836,530679331] size =     44224495
	Batch  13 pq = [   32578,   33908] index = [     530679331,574893186] size =     44213855
	Batch  14 pq = [   33908,   35188] index = [     574893186,619115266] size =     44222080
	Batch  15 pq = [   35188,   35778] index = [     619115266,640050531] size =     20935265
  Task number: 58
  Buffer size: 11059200
  Buffer per thread: 2
  We computed 27639163 shell quartets total.
  Whereas there are 35158305 unique shell quartets.

  ==> DiskJK: Disk-Based J/K Matrices <==

    J tasked:                  Yes
    K tasked:                  Yes
    wK tasked:                  No
    Memory [MiB]:              375
    Schwarz Cutoff:          1E-12

    OpenMP threads:              1

  Minimum eigenvalue in the overlap matrix is 2.3994847815E-04.
  Using Symmetric Orthogonalization.

  SCF Guess: Superposition of Atomic Densities via on-the-fly atomic UHF.

  ==> Iterations <==

                        Total Energy        Delta E     RMS |[F,P]|

   @RHF iter SAD:  -518.03123601680591   -5.18031e+02   0.00000e+00
   @RHF iter   1:  -518.49254227439349   -4.61306e-01   2.49597e-03 DIIS
   @RHF iter   2:  -518.75193055072168   -2.59388e-01   1.10885e-03 DIIS
   @RHF iter   3:  -518.79839893271946   -4.64684e-02   2.88714e-04 DIIS
   @RHF iter   4:  -518.80261979093029   -4.22086e-03   1.32030e-04 DIIS
   @RHF iter   5:  -518.80331892100946   -6.99130e-04   1.95557e-05 DIIS
   @RHF iter   6:  -518.80335041774333   -3.14967e-05   8.59160e-06 DIIS
   @RHF iter   7:  -518.80335677831272   -6.36057e-06   3.49825e-06 DIIS
   @RHF iter   8:  -518.80335844383433   -1.66552e-06   1.46236e-06 DIIS
   @RHF iter   9:  -518.80335881602502   -3.72191e-07   6.42981e-07 DIIS
   @RHF iter  10:  -518.80335889079367   -7.47686e-08   2.86733e-07 DIIS
   @RHF iter  11:  -518.80335890859112   -1.77974e-08   1.10310e-07 DIIS
   @RHF iter  12:  -518.80335891119194   -2.60081e-09   3.97790e-08 DIIS
   @RHF iter  13:  -518.80335891139077   -1.98838e-10   1.10653e-08 DIIS
   @RHF iter  14:  -518.80335891140987   -1.90994e-11   3.83992e-09 DIIS
   @RHF iter  15:  -518.80335891140646    3.41061e-12   2.12421e-09 DIIS
   @RHF iter  16:  -518.80335891140692   -4.54747e-13   9.62262e-10 DIIS
   @RHF iter  17:  -518.80335891141044   -3.52429e-12   4.12616e-10 DIIS
   @RHF iter  18:  -518.80335891140646    3.97904e-12   1.60640e-10 DIIS
   @RHF iter  19:  -518.80335891141078   -4.32010e-12   5.86896e-11 DIIS
  Energy and wave function converged.

  ==> Post-Iterations <==

    Orbital Energies [Eh]
    ---------------------

    Doubly Occupied:

       1A    -15.601723     2A    -11.262989     3A    -11.262488
       4A    -11.229838     5A    -11.229314     6A    -11.227499
       7A    -11.226506     8A    -11.220346     9A    -11.220250
      10A    -11.219626    11A    -11.218689    12A    -11.216912
      13A    -11.216334    14A     -1.293020    15A     -1.125337
      16A     -1.071859    17A     -1.054791    18A     -0.994967
      19A     -0.985341    20A     -0.930663    21A     -0.928358
      22A     -0.837881    23A     -0.802967    24A     -0.794053
      25A     -0.751486    26A     -0.716910    27A     -0.661997
      28A     -0.641034    29A     -0.630121    30A     -0.602702
      31A     -0.591424    32A     -0.591337    33A     -0.587849
      34A     -0.566913    35A     -0.552059    36A     -0.551976
      37A     -0.538191    38A     -0.536616    39A     -0.526063
      40A     -0.493817    41A     -0.475151    42A     -0.473129
      43A     -0.465613    44A     -0.463659    45A     -0.459226
      46A     -0.372036    47A     -0.293524    48A     -0.273582

    Virtual:

      49A      0.126203    50A      0.169237    51A      0.172623
      52A      0.182521    53A      0.190801    54A      0.211008
      55A      0.216022    56A      0.221313    57A      0.229454
      58A      0.232417    59A      0.240178    60A      0.258330
      61A      0.262912    62A      0.270054    63A      0.288297
      64A      0.293360    65A      0.301434    66A      0.305901
      67A      0.337357    68A      0.343382    69A      0.369803
      70A      0.377397    71A      0.386337    72A      0.406279
      73A      0.424172    74A      0.439450    75A      0.452561
      76A      0.480080    77A      0.488579    78A      0.501293
      79A      0.513022    80A      0.570502    81A      0.595344
      82A      0.606524    83A      0.616575    84A      0.618734
      85A      0.621534    86A      0.641182    87A      0.645953
      88A      0.665170    89A      0.686171    90A      0.697016
      91A      0.713629    92A      0.725410    93A      0.733339
      94A      0.739263    95A      0.742299    96A      0.749813
      97A      0.755917    98A      0.760633    99A      0.776455
     100A      0.785158   101A      0.786229   102A      0.793859
     103A      0.799862   104A      0.812166   105A      0.840059
     106A      0.847236   107A      0.867672   108A      0.874457
     109A      0.882381   110A      0.885462   111A      0.892461
     112A      0.894011   113A      0.899258   114A      0.900309
     115A      0.905684   116A      0.910388   117A      0.919426
     118A      0.923214   119A      0.927931   120A      0.948866
     121A      0.955705   122A      0.957486   123A      0.966952
     124A      0.972656   125A      0.988568   126A      0.993098
     127A      1.012275   128A      1.038607   129A      1.061146
     130A      1.074213   131A      1.098621   132A      1.118499
     133A      1.120978   134A      1.132908   135A      1.143930
     136A      1.153262   137A      1.163380   138A      1.208905
     139A      1.214786   140A      1.222590   141A      1.234309
     142A      1.236781   143A      1.240063   144A      1.275967
     145A      1.283865   146A      1.291223   147A      1.306312
     148A      1.329436   149A      1.333410   150A      1.359906
     151A      1.381348   152A      1.385181   153A      1.425286
     154A      1.454669   155A      1.473427   156A      1.493762
     157A      1.522819   158A      1.547585   159A      1.554037
     160A      1.575460   161A      1.599479   162A      1.631556
     163A      1.634559   164A      1.645523   165A      1.663378
     166A      1.678592   167A      1.687749   168A      1.690671
     169A      1.694903   170A      1.718178   171A      1.738639
     172A      1.760835   173A      1.766173   174A      1.786281
     175A      1.812356   176A      1.824875   177A      1.842528
     178A      1.867472   179A      1.877676   180A      1.879191
     181A      1.891184   182A      1.893600   183A      1.901261
     184A      1.901898   185A      1.906877   186A      1.914726
     187A      1.916692   188A      1.922065   189A      1.940316
     190A      1.949236   191A      1.963465   192A      1.969315
     193A      1.977293   194A      1.985832   195A      1.993165
     196A      2.000147   197A      2.002815   198A      2.003922
     199A      2.009218   200A      2.019693   201A      2.037572
     202A      2.043501   203A      2.069756   204A      2.082415
     205A      2.094811   206A      2.108257   207A      2.110503
     208A      2.128399   209A      2.130177   210A      2.149199
     211A      2.166322   212A      2.179246   213A      2.193344
     214A      2.211291   215A      2.231814   216A      2.269102
     217A      2.279066   218A      2.281656   219A      2.299847
     220A      2.304329   221A      2.321589   222A      2.341756
     223A      2.344361   224A      2.351921   225A      2.355776
     226A      2.401509   227A      2.410540   228A      2.450403
     229A      2.464007   230A      2.512853   231A      2.531149
     232A      2.535181   233A      2.589134   234A      2.593777
     235A      2.601016   236A      2.617584   237A      2.621869
     238A      2.632100   239A      2.669998   240A      2.691080
     241A      2.718334   242A      2.748934   243A      2.768009
     244A      2.771193   245A      2.774224   246A      2.783228
     247A      2.791022   248A      2.803333   249A      2.823873
     250A      2.827682   251A      2.851231   252A      2.875735
     253A      2.910962   254A      2.920829   255A      2.966722
     256A      2.973607   257A      2.981844   258A      3.025329
     259A      3.050644   260A      3.070757   261A      3.095467
     262A      3.115311   263A      3.206691   264A      3.303396
     265A      3.372089   266A      3.729883   267A      3.948616

    Final Occupation by Irrep:
              A
    DOCC [    48 ]

  @RHF Final Energy:  -518.80335891141078

   => Energetics <=

    Nuclear Repulsion Energy =            721.9439635560133866
    One-Electron Energy =               -2133.5183106555396080
    Two-Electron Energy =                 892.7709881881154388
    Total Energy =                       -518.8033589114107826

Computation Completed

Properties will be evaluated at   0.000000,   0.000000,   0.000000 [a0]

Properties computed using the SCF density matrix

  Nuclear Dipole Moment: [e a0]
     X:    -1.7311      Y:     1.1022      Z:    18.3758

  Electronic Dipole Moment: [e a0]
     X:     1.1338      Y:    -1.6192      Z:   -18.5080

  Dipole Moment: [e a0]
     X:    -0.5972      Y:    -0.5170      Z:    -0.1322     Total:     0.8009

  Dipole Moment: [D]
     X:    -1.5180      Y:    -1.3140      Z:    -0.3360     Total:     2.0356

*** tstop() called on ds3 at Mon Apr 27 02:15:14 2020
Module time:
	user time   =     213.51 seconds =       3.56 minutes
	system time =     100.53 seconds =       1.68 minutes
	total time  =        303 seconds =       5.05 minutes
Total time:
	user time   =     213.51 seconds =       3.56 minutes
	system time =     100.53 seconds =       1.68 minutes
	total time  =        303 seconds =       5.05 minutes
                                     G D M A

                                 by Anthony Stone

                           version 2.2.06, 22 June 2011

               Distributed Multipoles from Gaussian wavefunctions

Starting at 2:15:14 on 27 Apr 2020

Using SCF density matrix from file ./SSI/SSI-025TRP-144LYS-1-dimer.test.15874.fchk

                         Distributed Multipole Analysis

Standard DMA

Positions and radii in angstrom
Multipole moments in atomic units, ea_0^k for rank k

C          x =  0.734727  y = -0.133010  z = -4.521842 angstrom
           Maximum rank =  0   Radius =  0.650 angstrom
                   Q00  =  -0.213712

C          x = -0.377273  y = -0.401010  z = -0.935842 angstrom
           Maximum rank =  0   Radius =  0.650 angstrom
                   Q00  =   0.302799

C          x =  0.516727  y =  0.107990  z = -1.916842 angstrom
           Maximum rank =  0   Radius =  0.650 angstrom
                   Q00  =  -0.050609

C          x =  0.101727  y = -0.413010  z = -3.189842 angstrom
           Maximum rank =  0   Radius =  0.650 angstrom
                   Q00  =  -0.125811

C          x = -0.991273  y = -1.187010  z = -2.943842 angstrom
           Maximum rank =  0   Radius =  0.650 angstrom
                   Q00  =   0.074689

C          x = -0.255273  y = -0.096010  z =  0.415158 angstrom
           Maximum rank =  0   Radius =  0.650 angstrom
                   Q00  =  -0.125047

C          x =  0.783727  y =  0.738990  z =  0.798158 angstrom
           Maximum rank =  0   Radius =  0.650 angstrom
                   Q00  =  -0.075779

C          x =  1.680727  y =  1.260990  z = -0.148842 angstrom
           Maximum rank =  0   Radius =  0.650 angstrom
                   Q00  =  -0.075983

C          x =  1.556727  y =  0.952990  z = -1.503842 angstrom
           Maximum rank =  0   Radius =  0.650 angstrom
                   Q00  =  -0.099774

N          x = -1.282273  y = -1.188010  z = -1.598842 angstrom
           Maximum rank =  0   Radius =  0.650 angstrom
                   Q00  =  -0.501435

H          x = -0.955273  y = -0.502010  z =  1.131158 angstrom
           Maximum rank =  0   Radius =  0.325 angstrom
                   Q00  =   0.070613

H          x =  0.913727  y =  0.995990  z =  1.838158 angstrom
           Maximum rank =  0   Radius =  0.325 angstrom
                   Q00  =   0.065746

H          x = -2.013273  y = -1.751010  z = -1.153842 angstrom
           Maximum rank =  0   Radius =  0.325 angstrom
                   Q00  =   0.218908

H          x =  2.479727  y =  1.912990  z =  0.175158 angstrom
           Maximum rank =  0   Radius =  0.325 angstrom
                   Q00  =   0.058425

H          x = -1.545273  y = -1.728010  z = -3.700842 angstrom
           Maximum rank =  0   Radius =  0.325 angstrom
                   Q00  =   0.098802

H          x =  2.252727  y =  1.348990  z = -2.228842 angstrom
           Maximum rank =  0   Radius =  0.325 angstrom
                   Q00  =   0.069702

H          x =  0.652727  y = -1.028010  z = -5.138842 angstrom
           Maximum rank =  0   Radius =  0.325 angstrom
                   Q00  =   0.102549

H          x =  1.793727  y =  0.065990  z = -4.367842 angstrom
           Maximum rank =  0   Radius =  0.325 angstrom
                   Q00  =   0.105522

H          x =  0.267447  y =  0.708810  z = -5.053822 angstrom
           Maximum rank =  0   Radius =  0.325 angstrom
                   Q00  =   0.101186

C          x = -0.583273  y =  0.240990  z =  4.208158 angstrom
           Maximum rank =  0   Radius =  0.650 angstrom
                   Q00  =  -0.075605

C          x =  0.406727  y = -0.438010  z =  5.156158 angstrom
           Maximum rank =  0   Radius =  0.650 angstrom
                   Q00  =  -0.244112

C          x = -1.922273  y =  0.653990  z =  4.803158 angstrom
           Maximum rank =  0   Radius =  0.650 angstrom
                   Q00  =  -0.236951

H          x = -0.110273  y =  1.139990  z =  3.808158 angstrom
           Maximum rank =  0   Radius =  0.325 angstrom
                   Q00  =   0.039025

H          x = -0.778273  y = -0.444010  z =  3.382158 angstrom
           Maximum rank =  0   Radius =  0.325 angstrom
                   Q00  =   0.037127

H          x = -0.025273  y = -1.379010  z =  5.502158 angstrom
           Maximum rank =  0   Radius =  0.325 angstrom
                   Q00  =   0.076763

H          x = -2.468273  y = -0.214010  z =  5.151158 angstrom
           Maximum rank =  0   Radius =  0.325 angstrom
                   Q00  =   0.075955

H          x = -1.762273  y =  1.343990  z =  5.631158 angstrom
           Maximum rank =  0   Radius =  0.325 angstrom
                   Q00  =   0.079585

H          x =  0.647237  y =  0.217390  z =  6.006218 angstrom
           Maximum rank =  0   Radius =  0.325 angstrom
                   Q00  =   0.078412

H          x =  1.320157  y = -0.669620  z =  4.588708 angstrom
           Maximum rank =  0   Radius =  0.325 angstrom
                   Q00  =   0.085879

H          x = -2.519783  y =  1.153600  z =  4.026388 angstrom
           Maximum rank =  0   Radius =  0.325 angstrom
                   Q00  =   0.083130

Total multipoles referred to origin at
           x =   0.000000,  y =    0.000000,  z =    0.000000 angstrom
                   Q00  =  -0.000000

Finished at 2:15:14 on 27 Apr 2020

  DMA results are available in the Python driver through the
	  variable('DMA DISTRIBUTED MULTIPOLES')
  and
	  variable('DMA TOTAL MULTIPOLES')
  commands.

    Psi4 stopped on: Monday, 27 April 2020 02:15AM
    Psi4 wall time for execution: 0:05:03.03

*** Psi4 exiting successfully. Buy a developer a beer!
