                               Psi4 1.3.2 release

  ==> Input File <==

--------------------------------------------------------------------------
import numpy as np
set {scf_type pk
basis cc-pvdz
d_convergence 10
gdma_switch   0
gdma_limit    0
gdma_origin   [ 0.0,  0.0,  0.0 ]
}
molecule test {
    units Angstrom
    0 1
    --
    0 1
    C               -3.498821307264596     1.552008146041028    -0.769878572194282
    C                0.020178692735404     0.201008146041029    -0.367878572194282
    C                0.460178692735404     0.905008146041029     0.748121427805718
    C               -1.259821307264596     0.413008146041028    -0.866878572194282
    C               -2.103821307264596     1.337008146041028    -0.265878572194282
    C               -0.383821307264596     1.826008146041028     1.351121427805718
    C               -1.659821307264596     2.036008146041028     0.848121427805718
    H                0.631178692735404    -0.507991853958972    -0.876878572194282
    H                1.455178692735404     0.748008146041029     1.135121427805718
    H               -1.591821307264596    -0.136991853958971    -1.733878572194282
    H               -0.048821307264596     2.372008146041029     2.221121427805718
    H               -3.622821307264596     1.064008146041028    -1.735878572194282
    H               -3.640821307264596     2.619008146041029    -0.923878572194282
    H               -2.305821307264596     2.757008146041028     1.329121427805718
    H               -4.263075307264596     1.175638146041029    -0.073989572194282
    C                2.614178692735404    -2.174991853958971     0.328121427805718
    C                2.116178692735404    -3.615991853958972     0.135121427805718
    O                2.694178692735404    -1.466991853958972    -0.898878572194282
    H                1.952178692735404    -1.647991853958972     1.017121427805718
    H                3.613178692735404    -2.190991853958971     0.768121427805718
    H                2.671178692735404    -4.080991853958972    -0.680878572194282
    H                3.048178692735404    -0.581991853958971    -0.736878572194282
    H                1.036102692735404    -3.636351853958972    -0.072295572194282
    H                2.307832692735404    -4.188051853958972     1.054914427805718

}
e, wfn = energy('scf', return_wfn=True)
gdma(wfn)
dmavals = variable('DMA DISTRIBUTED MULTIPOLES')
charges = np.array(dmavals)
print(charges)
np.save('SSI-041PHE-047SER-1-dimer.npy', np.array(charges))--------------------------------------------------------------------------

*** tstart() called on ds3
*** at Tue Apr 28 03:20:04 2020

   => Loading Basis Set <=

    Name: CC-PVDZ
    Role: ORBITAL
    Keyword: BASIS
    atoms 1-7, 16-17  entry C          line   138 file /theoryfs2/ds/metcalf/miniconda2/envs/tf2gpu/share/psi4/basis/cc-pvdz.gbs
    atoms 8-15, 19-24 entry H          line    22 file /theoryfs2/ds/metcalf/miniconda2/envs/tf2gpu/share/psi4/basis/cc-pvdz.gbs
    atoms 18          entry O          line   198 file /theoryfs2/ds/metcalf/miniconda2/envs/tf2gpu/share/psi4/basis/cc-pvdz.gbs

         ---------------------------------------------------------
                                   SCF
               by Justin Turney, Rob Parrish, Andy Simmonett
                          and Daniel G. A. Smith
                              RHF Reference
                        1 Threads,    500 MiB Core
         ---------------------------------------------------------

  ==> Geometry <==

    Molecular point group: c1
    Full point group: C1

    Geometry (in Angstrom), charge = 0, multiplicity = 1:

       Center              X                  Y                   Z               Mass
    ------------   -----------------  -----------------  -----------------  -----------------
         C           -3.498821307265     1.552008146041    -0.769878572194    12.000000000000
         C            0.020178692735     0.201008146041    -0.367878572194    12.000000000000
         C            0.460178692735     0.905008146041     0.748121427806    12.000000000000
         C           -1.259821307265     0.413008146041    -0.866878572194    12.000000000000
         C           -2.103821307265     1.337008146041    -0.265878572194    12.000000000000
         C           -0.383821307265     1.826008146041     1.351121427806    12.000000000000
         C           -1.659821307265     2.036008146041     0.848121427806    12.000000000000
         H            0.631178692735    -0.507991853959    -0.876878572194     1.007825032230
         H            1.455178692735     0.748008146041     1.135121427806     1.007825032230
         H           -1.591821307265    -0.136991853959    -1.733878572194     1.007825032230
         H           -0.048821307265     2.372008146041     2.221121427806     1.007825032230
         H           -3.622821307265     1.064008146041    -1.735878572194     1.007825032230
         H           -3.640821307265     2.619008146041    -0.923878572194     1.007825032230
         H           -2.305821307265     2.757008146041     1.329121427806     1.007825032230
         H           -4.263075307265     1.175638146041    -0.073989572194     1.007825032230
         C            2.614178692735    -2.174991853959     0.328121427806    12.000000000000
         C            2.116178692735    -3.615991853959     0.135121427806    12.000000000000
         O            2.694178692735    -1.466991853959    -0.898878572194    15.994914619570
         H            1.952178692735    -1.647991853959     1.017121427806     1.007825032230
         H            3.613178692735    -2.190991853959     0.768121427806     1.007825032230
         H            2.671178692735    -4.080991853959    -0.680878572194     1.007825032230
         H            3.048178692735    -0.581991853959    -0.736878572194     1.007825032230
         H            1.036102692735    -3.636351853959    -0.072295572194     1.007825032230
         H            2.307832692735    -4.188051853959     1.054914427806     1.007825032230

  Running in c1 symmetry.

  Rotational constants: A =      0.08730  B =      0.01638  C =      0.01499 [cm^-1]
  Rotational constants: A =   2617.32825  B =    490.95062  C =    449.53243 [MHz]
  Nuclear repulsion =  486.639449295337386

  Charge       = 0
  Multiplicity = 1
  Electrons    = 76
  Nalpha       = 38
  Nbeta        = 38

  ==> Algorithm <==

  SCF Algorithm Type is PK.
  DIIS enabled.
  MOM disabled.
  Fractional occupation disabled.
  Guess Type is SAD.
  Energy threshold   = 1.00e-06
  Density threshold  = 1.00e-10
  Integral threshold = 0.00e+00

  ==> Primary Basis <==

  Basis Set: CC-PVDZ
    Blend: CC-PVDZ
    Number of shells: 102
    Number of basis function: 210
    Number of Cartesian functions: 220
    Spherical Harmonics?: true
    Max angular momentum: 2

  ==> Pre-Iterations <==

   -------------------------------------------------------
    Irrep   Nso     Nmo     Nalpha   Nbeta   Ndocc  Nsocc
   -------------------------------------------------------
     A        210     210       0       0       0       0
   -------------------------------------------------------
    Total     210     210      38      38      38       0
   -------------------------------------------------------

  ==> Integral Setup <==

  Using integral reordering PK algorithm.
  Sizing the integral batches needed.
  Building batch lookup table.
   Calculation information:
      Number of atoms:                  24
      Number of AO shells:             102
      Number of primitives:            290
      Number of atomic orbitals:       220
      Number of basis functions:       210

      Integral cutoff                 1.00e-12
      Number of threads:                 1

	Batch   1 pq = [       0,    9405] index = [             0,44231715] size =     44231715
	Batch   2 pq = [    9405,   13301] index = [      44231715,88464951] size =     44233236
	Batch   3 pq = [   13301,   16290] index = [      88464951,132690195] size =     44225244
	Batch   4 pq = [   16290,   18810] index = [     132690195,176917455] size =     44227260
	Batch   5 pq = [   18810,   21030] index = [     176917455,221140965] size =     44223510
	Batch   6 pq = [   21030,   22155] index = [     221140965,245433090] size =     24292125
  Task number: 23
  Buffer size: 11059200
  Buffer per thread: 2
  We computed 11099249 shell quartets total.
  Whereas there are 13799631 unique shell quartets.

  ==> DiskJK: Disk-Based J/K Matrices <==

    J tasked:                  Yes
    K tasked:                  Yes
    wK tasked:                  No
    Memory [MiB]:              375
    Schwarz Cutoff:          1E-12

    OpenMP threads:              1

  Minimum eigenvalue in the overlap matrix is 3.0007500585E-04.
  Using Symmetric Orthogonalization.

  SCF Guess: Superposition of Atomic Densities via on-the-fly atomic UHF.

  ==> Iterations <==

                        Total Energy        Delta E     RMS |[F,P]|

   @RHF iter SAD:  -422.67097461717901   -4.22671e+02   0.00000e+00
   @RHF iter   1:  -423.60374454638855   -9.32770e-01   2.93919e-03 DIIS
   @RHF iter   2:  -423.81179905170319   -2.08055e-01   1.32588e-03 DIIS
   @RHF iter   3:  -423.84778718813430   -3.59881e-02   2.88048e-04 DIIS
   @RHF iter   4:  -423.85061923183395   -2.83204e-03   9.10533e-05 DIIS
   @RHF iter   5:  -423.85081632601936   -1.97094e-04   1.82809e-05 DIIS
   @RHF iter   6:  -423.85082751192328   -1.11859e-05   5.38014e-06 DIIS
   @RHF iter   7:  -423.85082859757335   -1.08565e-06   2.03584e-06 DIIS
   @RHF iter   8:  -423.85082877311771   -1.75544e-07   7.02563e-07 DIIS
   @RHF iter   9:  -423.85082881202300   -3.89053e-08   3.25113e-07 DIIS
   @RHF iter  10:  -423.85082882431720   -1.22942e-08   1.45711e-07 DIIS
   @RHF iter  11:  -423.85082882737981   -3.06261e-09   4.60130e-08 DIIS
   @RHF iter  12:  -423.85082882762958   -2.49770e-10   1.55924e-08 DIIS
   @RHF iter  13:  -423.85082882764289   -1.33014e-11   5.64084e-09 DIIS
   @RHF iter  14:  -423.85082882764573   -2.84217e-12   1.95491e-09 DIIS
   @RHF iter  15:  -423.85082882764476    9.66338e-13   7.65884e-10 DIIS
   @RHF iter  16:  -423.85082882764641   -1.64846e-12   3.34777e-10 DIIS
   @RHF iter  17:  -423.85082882764777   -1.36424e-12   1.56757e-10 DIIS
   @RHF iter  18:  -423.85082882764618    1.59162e-12   5.53110e-11 DIIS
  Energy and wave function converged.

  ==> Post-Iterations <==

    Orbital Energies [Eh]
    ---------------------

    Doubly Occupied:

       1A    -20.556052     2A    -11.278600     3A    -11.235483
       4A    -11.232917     5A    -11.228612     6A    -11.225804
       7A    -11.225534     8A    -11.225344     9A    -11.224625
      10A    -11.223213    11A     -1.357376    12A     -1.152133
      13A     -1.043816    14A     -1.009568    15A     -1.008428
      16A     -0.929695    17A     -0.836117    18A     -0.822288
      19A     -0.794542    20A     -0.697547    21A     -0.689310
      22A     -0.647419    23A     -0.631128    24A     -0.622240
      25A     -0.580076    26A     -0.576438    27A     -0.569601
      28A     -0.562083    29A     -0.534191    30A     -0.533015
      31A     -0.529786    32A     -0.486295    33A     -0.482919
      34A     -0.479236    35A     -0.477213    36A     -0.435870
      37A     -0.329167    38A     -0.320040

    Virtual:

      39A      0.138400    40A      0.143603    41A      0.171021
      42A      0.192923    43A      0.204002    44A      0.215217
      45A      0.226318    46A      0.247715    47A      0.249325
      48A      0.261341    49A      0.268121    50A      0.271745
      51A      0.278009    52A      0.291275    53A      0.319787
      54A      0.344769    55A      0.373073    56A      0.376714
      57A      0.391496    58A      0.395062    59A      0.458836
      60A      0.469184    61A      0.486610    62A      0.508357
      63A      0.569390    64A      0.601999    65A      0.605175
      66A      0.631174    67A      0.632028    68A      0.651875
      69A      0.691703    70A      0.697122    71A      0.703442
      72A      0.717255    73A      0.731093    74A      0.743826
      75A      0.746653    76A      0.751448    77A      0.756611
      78A      0.769262    79A      0.774357    80A      0.789263
      81A      0.796808    82A      0.815023    83A      0.847421
      84A      0.849562    85A      0.869809    86A      0.874859
      87A      0.882566    88A      0.885732    89A      0.890652
      90A      0.894352    91A      0.905937    92A      0.915955
      93A      0.923154    94A      0.926138    95A      0.941716
      96A      0.945763    97A      0.948702    98A      0.972143
      99A      0.999067   100A      1.027012   101A      1.058472
     102A      1.117035   103A      1.130337   104A      1.141082
     105A      1.156003   106A      1.161334   107A      1.185539
     108A      1.204675   109A      1.214229   110A      1.223917
     111A      1.255781   112A      1.260757   113A      1.264329
     114A      1.288841   115A      1.299949   116A      1.312950
     117A      1.321832   118A      1.330190   119A      1.412955
     120A      1.436054   121A      1.458330   122A      1.485629
     123A      1.511923   124A      1.528804   125A      1.544173
     126A      1.564162   127A      1.570690   128A      1.625973
     129A      1.659055   130A      1.679999   131A      1.685005
     132A      1.700715   133A      1.743758   134A      1.754300
     135A      1.760411   136A      1.777318   137A      1.797576
     138A      1.822644   139A      1.858271   140A      1.866189
     141A      1.877551   142A      1.889348   143A      1.897834
     144A      1.903752   145A      1.913142   146A      1.914200
     147A      1.924269   148A      1.934762   149A      1.948955
     150A      1.953552   151A      1.959083   152A      1.978257
     153A      1.980506   154A      1.989588   155A      1.999303
     156A      2.009242   157A      2.037117   158A      2.047983
     159A      2.059675   160A      2.084802   161A      2.105841
     162A      2.129095   163A      2.148911   164A      2.171675
     165A      2.176650   166A      2.191916   167A      2.194284
     168A      2.244202   169A      2.249680   170A      2.264478
     171A      2.282982   172A      2.290051   173A      2.300360
     174A      2.303292   175A      2.320767   176A      2.341710
     177A      2.367715   178A      2.460883   179A      2.476486
     180A      2.485799   181A      2.494988   182A      2.529065
     183A      2.539171   184A      2.546164   185A      2.588805
     186A      2.645202   187A      2.748118   188A      2.757249
     189A      2.761200   190A      2.772943   191A      2.776807
     192A      2.792607   193A      2.816981   194A      2.843002
     195A      2.849039   196A      2.881444   197A      2.889006
     198A      2.923665   199A      3.001863   200A      3.022828
     201A      3.040660   202A      3.171203   203A      3.226372
     204A      3.315321   205A      3.335633   206A      3.412414
     207A      3.456626   208A      3.621066   209A      3.996581
     210A      4.113213

    Final Occupation by Irrep:
              A
    DOCC [    38 ]

  @RHF Final Energy:  -423.85082882764618

   => Energetics <=

    Nuclear Repulsion Energy =            486.6394492953373856
    One-Electron Energy =               -1539.3931206327483778
    Two-Electron Energy =                 628.9028425097649233
    Total Energy =                       -423.8508288276461826

Computation Completed

Properties will be evaluated at   0.000000,   0.000000,   0.000000 [a0]

Properties computed using the SCF density matrix

  Nuclear Dipole Moment: [e a0]
     X:     1.1771      Y:    -5.8528      Z:     0.6434

  Electronic Dipole Moment: [e a0]
     X:    -1.0557      Y:     5.9918      Z:    -0.1550

  Dipole Moment: [e a0]
     X:     0.1214      Y:     0.1390      Z:     0.4884     Total:     0.5221

  Dipole Moment: [D]
     X:     0.3086      Y:     0.3532      Z:     1.2414     Total:     1.3270

*** tstop() called on ds3 at Tue Apr 28 03:22:12 2020
Module time:
	user time   =      89.45 seconds =       1.49 minutes
	system time =      42.96 seconds =       0.72 minutes
	total time  =        128 seconds =       2.13 minutes
Total time:
	user time   =      89.45 seconds =       1.49 minutes
	system time =      42.96 seconds =       0.72 minutes
	total time  =        128 seconds =       2.13 minutes
                                     G D M A

                                 by Anthony Stone

                           version 2.2.06, 22 June 2011

               Distributed Multipoles from Gaussian wavefunctions

Starting at 3:22:12 on 28 Apr 2020

Using SCF density matrix from file ./SSI/SSI-041PHE-047SER-1-dimer.test.20587.fchk

                         Distributed Multipole Analysis

Standard DMA

Positions and radii in angstrom
Multipole moments in atomic units, ea_0^k for rank k

C          x = -3.498821  y =  1.552008  z = -0.769879 angstrom
           Maximum rank =  0   Radius =  0.650 angstrom
                   Q00  =  -0.205567

C          x =  0.020179  y =  0.201008  z = -0.367879 angstrom
           Maximum rank =  0   Radius =  0.650 angstrom
                   Q00  =  -0.074732

C          x =  0.460179  y =  0.905008  z =  0.748121 angstrom
           Maximum rank =  0   Radius =  0.650 angstrom
                   Q00  =  -0.096018

C          x = -1.259821  y =  0.413008  z = -0.866879 angstrom
           Maximum rank =  0   Radius =  0.650 angstrom
                   Q00  =  -0.033537

C          x = -2.103821  y =  1.337008  z = -0.265879 angstrom
           Maximum rank =  0   Radius =  0.650 angstrom
                   Q00  =  -0.092568

C          x = -0.383821  y =  1.826008  z =  1.351121 angstrom
           Maximum rank =  0   Radius =  0.650 angstrom
                   Q00  =  -0.073157

C          x = -1.659821  y =  2.036008  z =  0.848121 angstrom
           Maximum rank =  0   Radius =  0.650 angstrom
                   Q00  =  -0.013544

H          x =  0.631179  y = -0.507992  z = -0.876879 angstrom
           Maximum rank =  0   Radius =  0.325 angstrom
                   Q00  =   0.059686

H          x =  1.455179  y =  0.748008  z =  1.135121 angstrom
           Maximum rank =  0   Radius =  0.325 angstrom
                   Q00  =   0.043229

H          x = -1.591821  y = -0.136992  z = -1.733879 angstrom
           Maximum rank =  0   Radius =  0.325 angstrom
                   Q00  =   0.055652

H          x = -0.048821  y =  2.372008  z =  2.221121 angstrom
           Maximum rank =  0   Radius =  0.325 angstrom
                   Q00  =   0.061342

H          x = -3.622821  y =  1.064008  z = -1.735879 angstrom
           Maximum rank =  0   Radius =  0.325 angstrom
                   Q00  =   0.097220

H          x = -3.640821  y =  2.619008  z = -0.923879 angstrom
           Maximum rank =  0   Radius =  0.325 angstrom
                   Q00  =   0.098883

H          x = -2.305821  y =  2.757008  z =  1.329121 angstrom
           Maximum rank =  0   Radius =  0.325 angstrom
                   Q00  =   0.051767

H          x = -4.263075  y =  1.175638  z = -0.073990 angstrom
           Maximum rank =  0   Radius =  0.325 angstrom
                   Q00  =   0.102707

C          x =  2.614179  y = -2.174992  z =  0.328121 angstrom
           Maximum rank =  0   Radius =  0.650 angstrom
                   Q00  =   0.097231

C          x =  2.116179  y = -3.615992  z =  0.135121 angstrom
           Maximum rank =  0   Radius =  0.650 angstrom
                   Q00  =  -0.236316

O          x =  2.694179  y = -1.466992  z = -0.898879 angstrom
           Maximum rank =  0   Radius =  0.650 angstrom
                   Q00  =  -0.593333

H          x =  1.952179  y = -1.647992  z =  1.017121 angstrom
           Maximum rank =  0   Radius =  0.325 angstrom
                   Q00  =   0.028709

H          x =  3.613179  y = -2.190992  z =  0.768121 angstrom
           Maximum rank =  0   Radius =  0.325 angstrom
                   Q00  =   0.050706

H          x =  2.671179  y = -4.080992  z = -0.680879 angstrom
           Maximum rank =  0   Radius =  0.325 angstrom
                   Q00  =   0.096723

H          x =  3.048179  y = -0.581992  z = -0.736879 angstrom
           Maximum rank =  0   Radius =  0.325 angstrom
                   Q00  =   0.394400

H          x =  1.036103  y = -3.636352  z = -0.072296 angstrom
           Maximum rank =  0   Radius =  0.325 angstrom
                   Q00  =   0.093360

H          x =  2.307833  y = -4.188052  z =  1.054914 angstrom
           Maximum rank =  0   Radius =  0.325 angstrom
                   Q00  =   0.087158

Total multipoles referred to origin at
           x =   0.000000,  y =    0.000000,  z =    0.000000 angstrom
                   Q00  =  -0.000000

Finished at 3:22:12 on 28 Apr 2020

  DMA results are available in the Python driver through the
	  variable('DMA DISTRIBUTED MULTIPOLES')
  and
	  variable('DMA TOTAL MULTIPOLES')
  commands.

    Psi4 stopped on: Tuesday, 28 April 2020 03:22AM
    Psi4 wall time for execution: 0:02:07.41

*** Psi4 exiting successfully. Buy a developer a beer!
