                               Psi4 1.3.2 release

  ==> Input File <==

--------------------------------------------------------------------------
import numpy as np
set {scf_type pk
basis cc-pvdz
d_convergence 10
gdma_switch   0
gdma_limit    0
gdma_origin   [ 0.0,  0.0,  0.0 ]
}
molecule test {
    units Angstrom
    0 1
    --
    0 1
    C               -1.290412327886654    -0.024336653562093    -0.287339987354986
    C               -2.066412327886654    -1.350336653562093    -0.409339987354986
    C               -0.703412327886654     0.380663346437907    -1.629339987354985
    C               -2.125412327886654     1.093663346437907     0.305660012645014
    H               -0.461412327886654    -0.197336653562093     0.394660012645014
    H               -1.375412327886653    -2.086336653562092    -0.808339987354986
    H               -1.496412327886653     0.599663346437907    -2.346339987354985
    H               -0.082412327886654     1.269663346437907    -1.503339987354986
    H               -0.080412327886654    -0.425336653562093    -2.017339987354986
    H               -2.496412327886654     0.818663346437907     1.292660012645014
    H               -1.511412327886654     1.987663346437907     0.413660012645014
    H               -2.968412327886654     1.330663346437907    -0.342339987354985
    H               -2.932538327886654    -1.267816653562092    -1.082404987354986
    H               -2.399572327886653    -1.713256653562093     0.574171012645015
    C                2.231587672113346    -0.061336653562093     1.007660012645015
    C                3.768587672113346    -0.036336653562093     0.976660012645015
    H                1.845587672113346     0.912663346437907     1.317660012645015
    H                1.864587672113346    -0.287336653562093     0.004660012645014
    H                1.865587672113346    -0.838336653562093     1.678660012645014
    H                4.112587672113346    -1.034336653562093     0.714660012645014
    H                4.206777672113346     0.252923346437907     1.943259012645015
    H                4.117687672113346     0.654613346437907     0.195176012645014

}
e, wfn = energy('scf', return_wfn=True)
gdma(wfn)
dmavals = variable('DMA DISTRIBUTED MULTIPOLES')
charges = np.array(dmavals)
print(charges)
np.save('SSI-034VAL-111LEU-1-dimer.npy', np.array(charges))--------------------------------------------------------------------------

*** tstart() called on ds3
*** at Sun Apr 26 22:28:16 2020

   => Loading Basis Set <=

    Name: CC-PVDZ
    Role: ORBITAL
    Keyword: BASIS
    atoms 1-4, 15-16  entry C          line   138 file /theoryfs2/ds/metcalf/miniconda2/envs/tf2gpu/share/psi4/basis/cc-pvdz.gbs
    atoms 5-14, 17-22 entry H          line    22 file /theoryfs2/ds/metcalf/miniconda2/envs/tf2gpu/share/psi4/basis/cc-pvdz.gbs

         ---------------------------------------------------------
                                   SCF
               by Justin Turney, Rob Parrish, Andy Simmonett
                          and Daniel G. A. Smith
                              RHF Reference
                        1 Threads,    500 MiB Core
         ---------------------------------------------------------

  ==> Geometry <==

    Molecular point group: c1
    Full point group: C1

    Geometry (in Angstrom), charge = 0, multiplicity = 1:

       Center              X                  Y                   Z               Mass
    ------------   -----------------  -----------------  -----------------  -----------------
         C           -1.290412327887    -0.024336653562    -0.287339987355    12.000000000000
         C           -2.066412327887    -1.350336653562    -0.409339987355    12.000000000000
         C           -0.703412327887     0.380663346438    -1.629339987355    12.000000000000
         C           -2.125412327887     1.093663346438     0.305660012645    12.000000000000
         H           -0.461412327887    -0.197336653562     0.394660012645     1.007825032230
         H           -1.375412327887    -2.086336653562    -0.808339987355     1.007825032230
         H           -1.496412327887     0.599663346438    -2.346339987355     1.007825032230
         H           -0.082412327887     1.269663346438    -1.503339987355     1.007825032230
         H           -0.080412327887    -0.425336653562    -2.017339987355     1.007825032230
         H           -2.496412327887     0.818663346438     1.292660012645     1.007825032230
         H           -1.511412327887     1.987663346438     0.413660012645     1.007825032230
         H           -2.968412327887     1.330663346438    -0.342339987355     1.007825032230
         H           -2.932538327887    -1.267816653562    -1.082404987355     1.007825032230
         H           -2.399572327887    -1.713256653562     0.574171012645     1.007825032230
         C            2.231587672113    -0.061336653562     1.007660012645    12.000000000000
         C            3.768587672113    -0.036336653562     0.976660012645    12.000000000000
         H            1.845587672113     0.912663346438     1.317660012645     1.007825032230
         H            1.864587672113    -0.287336653562     0.004660012645     1.007825032230
         H            1.865587672113    -0.838336653562     1.678660012645     1.007825032230
         H            4.112587672113    -1.034336653562     0.714660012645     1.007825032230
         H            4.206777672113     0.252923346438     1.943259012645     1.007825032230
         H            4.117687672113     0.654613346438     0.195176012645     1.007825032230

  Running in c1 symmetry.

  Rotational constants: A =      0.15019  B =      0.03099  C =      0.03055 [cm^-1]
  Rotational constants: A =   4502.54518  B =    929.19714  C =    915.93814 [MHz]
  Nuclear repulsion =  244.085076358988204

  Charge       = 0
  Multiplicity = 1
  Electrons    = 52
  Nalpha       = 26
  Nbeta        = 26

  ==> Algorithm <==

  SCF Algorithm Type is PK.
  DIIS enabled.
  MOM disabled.
  Fractional occupation disabled.
  Guess Type is SAD.
  Energy threshold   = 1.00e-06
  Density threshold  = 1.00e-10
  Integral threshold = 0.00e+00

  ==> Primary Basis <==

  Basis Set: CC-PVDZ
    Blend: CC-PVDZ
    Number of shells: 84
    Number of basis function: 164
    Number of Cartesian functions: 170
    Spherical Harmonics?: true
    Max angular momentum: 2

  ==> Pre-Iterations <==

   -------------------------------------------------------
    Irrep   Nso     Nmo     Nalpha   Nbeta   Ndocc  Nsocc
   -------------------------------------------------------
     A        164     164       0       0       0       0
   -------------------------------------------------------
    Total     164     164      26      26      26       0
   -------------------------------------------------------

  ==> Integral Setup <==

  Using integral reordering PK algorithm.
  Sizing the integral batches needed.
  Building batch lookup table.
   Calculation information:
      Number of atoms:                  22
      Number of AO shells:              84
      Number of primitives:            212
      Number of atomic orbitals:       170
      Number of basis functions:       164

      Integral cutoff                 1.00e-12
      Number of threads:                 1

	Batch   1 pq = [       0,    9405] index = [             0,44231715] size =     44231715
	Batch   2 pq = [    9405,   13530] index = [      44231715,91537215] size =     47305500
  Task number: 9
  Buffer size: 11059200
  Buffer per thread: 2
  We computed 5613334 shell quartets total.
  Whereas there are 6374235 unique shell quartets.

  ==> DiskJK: Disk-Based J/K Matrices <==

    J tasked:                  Yes
    K tasked:                  Yes
    wK tasked:                  No
    Memory [MiB]:              375
    Schwarz Cutoff:          1E-12

    OpenMP threads:              1

  Minimum eigenvalue in the overlap matrix is 4.5461480828E-03.
  Using Symmetric Orthogonalization.

  SCF Guess: Superposition of Atomic Densities via on-the-fly atomic UHF.

  ==> Iterations <==

                        Total Energy        Delta E     RMS |[F,P]|

   @RHF iter SAD:  -235.42072301415112   -2.35421e+02   0.00000e+00
   @RHF iter   1:  -236.31398658332969   -8.93264e-01   3.52966e-03 DIIS
   @RHF iter   2:  -236.50465133281841   -1.90665e-01   1.52819e-03 DIIS
   @RHF iter   3:  -236.53837705404186   -3.37257e-02   3.13881e-04 DIIS
   @RHF iter   4:  -236.54101683065250   -2.63978e-03   7.00482e-05 DIIS
   @RHF iter   5:  -236.54110409953250   -8.72689e-05   1.57496e-05 DIIS
   @RHF iter   6:  -236.54110982514936   -5.72562e-06   2.80445e-06 DIIS
   @RHF iter   7:  -236.54111002711139   -2.01962e-07   6.96426e-07 DIIS
   @RHF iter   8:  -236.54111004175471   -1.46433e-08   1.71319e-07 DIIS
   @RHF iter   9:  -236.54111004263498   -8.80277e-10   4.96401e-08 DIIS
   @RHF iter  10:  -236.54111004271786   -8.28777e-11   1.04865e-08 DIIS
   @RHF iter  11:  -236.54111004272033   -2.47269e-12   2.06107e-09 DIIS
   @RHF iter  12:  -236.54111004272090   -5.68434e-13   3.95726e-10 DIIS
   @RHF iter  13:  -236.54111004271985    1.05160e-12   1.07494e-10 DIIS
   @RHF iter  14:  -236.54111004272107   -1.22213e-12   2.79226e-11 DIIS
  Energy and wave function converged.

  ==> Post-Iterations <==

    Orbital Energies [Eh]
    ---------------------

    Doubly Occupied:

       1A    -11.220679     2A    -11.219983     3A    -11.219625
       4A    -11.214833     5A    -11.212739     6A    -11.211034
       7A     -1.081687     8A     -1.017161     9A     -0.928009
      10A     -0.924686    11A     -0.839559    12A     -0.762028
      13A     -0.630293    14A     -0.599206    15A     -0.596062
      16A     -0.591009    17A     -0.585257    18A     -0.535399
      19A     -0.534136    20A     -0.507193    21A     -0.502306
      22A     -0.487659    23A     -0.486753    24A     -0.459326
      25A     -0.455553    26A     -0.453002

    Virtual:

      27A      0.166527    28A      0.193794    29A      0.214312
      30A      0.220929    31A      0.225458    32A      0.247587
      33A      0.254228    34A      0.257545    35A      0.267983
      36A      0.272695    37A      0.288348    38A      0.302068
      39A      0.305865    40A      0.309976    41A      0.318740
      42A      0.333816    43A      0.363192    44A      0.404502
      45A      0.411967    46A      0.423573    47A      0.569383
      48A      0.571301    49A      0.593912    50A      0.595702
      51A      0.608627    52A      0.615925    53A      0.629531
      54A      0.671671    55A      0.689008    56A      0.729274
      57A      0.767424    58A      0.772914    59A      0.792203
      60A      0.826507    61A      0.861520    62A      0.867897
      63A      0.882709    64A      0.890049    65A      0.891881
      66A      0.895308    67A      0.899075    68A      0.908459
      69A      0.909635    70A      0.914062    71A      0.916539
      72A      0.920143    73A      0.931945    74A      0.937762
      75A      0.946562    76A      0.958098    77A      0.983259
      78A      0.988935    79A      1.024454    80A      1.051880
      81A      1.121363    82A      1.130722    83A      1.136286
      84A      1.140508    85A      1.195115    86A      1.285726
      87A      1.377064    88A      1.407675    89A      1.422630
      90A      1.461671    91A      1.475742    92A      1.533540
      93A      1.554884    94A      1.593827    95A      1.663055
      96A      1.675920    97A      1.681466    98A      1.683187
      99A      1.691198   100A      1.695654   101A      1.699850
     102A      1.701154   103A      1.739165   104A      1.841293
     105A      1.843160   106A      1.863282   107A      1.869538
     108A      1.877932   109A      1.896260   110A      1.916185
     111A      1.930202   112A      1.934235   113A      1.945383
     114A      1.947910   115A      1.960397   116A      1.961997
     117A      1.971867   118A      1.976457   119A      1.988382
     120A      2.001618   121A      2.023181   122A      2.033852
     123A      2.072284   124A      2.089214   125A      2.099076
     126A      2.114705   127A      2.132969   128A      2.138374
     129A      2.142256   130A      2.246298   131A      2.254899
     132A      2.297103   133A      2.313663   134A      2.319092
     135A      2.332117   136A      2.342205   137A      2.376261
     138A      2.382682   139A      2.448246   140A      2.464218
     141A      2.484238   142A      2.553747   143A      2.570822
     144A      2.582476   145A      2.609173   146A      2.629307
     147A      2.730674   148A      2.732818   149A      2.754399
     150A      2.763111   151A      2.775490   152A      2.786954
     153A      2.795418   154A      2.804747   155A      2.832245
     156A      2.848650   157A      2.850843   158A      2.859498
     159A      2.861710   160A      2.945738   161A      2.956717
     162A      3.028323   163A      3.036525   164A      3.132665

    Final Occupation by Irrep:
              A
    DOCC [    26 ]

  @RHF Final Energy:  -236.54111004272107

   => Energetics <=

    Nuclear Repulsion Energy =            244.0850763589882035
    One-Electron Energy =                -800.7020213762282310
    Two-Electron Energy =                 320.0758349745189548
    Total Energy =                       -236.5411100427210727

Computation Completed

Properties will be evaluated at   0.000000,   0.000000,   0.000000 [a0]

Properties computed using the SCF density matrix

  Nuclear Dipole Moment: [e a0]
     X:     2.0703      Y:    -0.0221      Z:     0.4023

  Electronic Dipole Moment: [e a0]
     X:    -2.0060      Y:     0.0052      Z:    -0.3710

  Dipole Moment: [e a0]
     X:     0.0643      Y:    -0.0169      Z:     0.0313     Total:     0.0735

  Dipole Moment: [D]
     X:     0.1635      Y:    -0.0431      Z:     0.0794     Total:     0.1868

*** tstop() called on ds3 at Sun Apr 26 22:28:55 2020
Module time:
	user time   =      29.10 seconds =       0.48 minutes
	system time =      11.20 seconds =       0.19 minutes
	total time  =         39 seconds =       0.65 minutes
Total time:
	user time   =      29.10 seconds =       0.48 minutes
	system time =      11.20 seconds =       0.19 minutes
	total time  =         39 seconds =       0.65 minutes
                                     G D M A

                                 by Anthony Stone

                           version 2.2.06, 22 June 2011

               Distributed Multipoles from Gaussian wavefunctions

Starting at 22:28:55 on 26 Apr 2020

Using SCF density matrix from file ./SSI/SSI-034VAL-111LEU-1-dimer.test.5406.fchk

                         Distributed Multipole Analysis

Standard DMA

Positions and radii in angstrom
Multipole moments in atomic units, ea_0^k for rank k

C          x = -1.290412  y = -0.024337  z = -0.287340 angstrom
           Maximum rank =  0   Radius =  0.650 angstrom
                   Q00  =   0.037025

C          x = -2.066412  y = -1.350337  z = -0.409340 angstrom
           Maximum rank =  0   Radius =  0.650 angstrom
                   Q00  =  -0.270008

C          x = -0.703412  y =  0.380663  z = -1.629340 angstrom
           Maximum rank =  0   Radius =  0.650 angstrom
                   Q00  =  -0.245478

C          x = -2.125412  y =  1.093663  z =  0.305660 angstrom
           Maximum rank =  0   Radius =  0.650 angstrom
                   Q00  =  -0.243320

H          x = -0.461412  y = -0.197337  z =  0.394660 angstrom
           Maximum rank =  0   Radius =  0.325 angstrom
                   Q00  =   0.012200

H          x = -1.375412  y = -2.086337  z = -0.808340 angstrom
           Maximum rank =  0   Radius =  0.325 angstrom
                   Q00  =   0.079141

H          x = -1.496412  y =  0.599663  z = -2.346340 angstrom
           Maximum rank =  0   Radius =  0.325 angstrom
                   Q00  =   0.076781

H          x = -0.082412  y =  1.269663  z = -1.503340 angstrom
           Maximum rank =  0   Radius =  0.325 angstrom
                   Q00  =   0.079387

H          x = -0.080412  y = -0.425337  z = -2.017340 angstrom
           Maximum rank =  0   Radius =  0.325 angstrom
                   Q00  =   0.078506

H          x = -2.496412  y =  0.818663  z =  1.292660 angstrom
           Maximum rank =  0   Radius =  0.325 angstrom
                   Q00  =   0.080649

H          x = -1.511412  y =  1.987663  z =  0.413660 angstrom
           Maximum rank =  0   Radius =  0.325 angstrom
                   Q00  =   0.077758

H          x = -2.968412  y =  1.330663  z = -0.342340 angstrom
           Maximum rank =  0   Radius =  0.325 angstrom
                   Q00  =   0.074435

H          x = -2.932538  y = -1.267817  z = -1.082405 angstrom
           Maximum rank =  0   Radius =  0.325 angstrom
                   Q00  =   0.077301

H          x = -2.399572  y = -1.713257  z =  0.574171 angstrom
           Maximum rank =  0   Radius =  0.325 angstrom
                   Q00  =   0.081753

C          x =  2.231588  y = -0.061337  z =  1.007660 angstrom
           Maximum rank =  0   Radius =  0.650 angstrom
                   Q00  =  -0.249885

C          x =  3.768588  y = -0.036337  z =  0.976660 angstrom
           Maximum rank =  0   Radius =  0.650 angstrom
                   Q00  =  -0.228824

H          x =  1.845588  y =  0.912663  z =  1.317660 angstrom
           Maximum rank =  0   Radius =  0.325 angstrom
                   Q00  =   0.079501

H          x =  1.864588  y = -0.287337  z =  0.004660 angstrom
           Maximum rank =  0   Radius =  0.325 angstrom
                   Q00  =   0.079222

H          x =  1.865588  y = -0.838337  z =  1.678660 angstrom
           Maximum rank =  0   Radius =  0.325 angstrom
                   Q00  =   0.080425

H          x =  4.112588  y = -1.034337  z =  0.714660 angstrom
           Maximum rank =  0   Radius =  0.325 angstrom
                   Q00  =   0.080067

H          x =  4.206778  y =  0.252923  z =  1.943259 angstrom
           Maximum rank =  0   Radius =  0.325 angstrom
                   Q00  =   0.082959

H          x =  4.117688  y =  0.654613  z =  0.195176 angstrom
           Maximum rank =  0   Radius =  0.325 angstrom
                   Q00  =   0.080404

Total multipoles referred to origin at
           x =   0.000000,  y =    0.000000,  z =    0.000000 angstrom
                   Q00  =  -0.000000

Finished at 22:28:55 on 26 Apr 2020

  DMA results are available in the Python driver through the
	  variable('DMA DISTRIBUTED MULTIPOLES')
  and
	  variable('DMA TOTAL MULTIPOLES')
  commands.

    Psi4 stopped on: Sunday, 26 April 2020 10:28PM
    Psi4 wall time for execution: 0:00:39.13

*** Psi4 exiting successfully. Buy a developer a beer!
