                               Psi4 1.3.2 release

  ==> Input File <==

--------------------------------------------------------------------------
import numpy as np
set {scf_type pk
basis cc-pvdz
d_convergence 10
gdma_switch   0
gdma_limit    0
gdma_origin   [ 0.0,  0.0,  0.0 ]
}
molecule test {
    units Angstrom
    0 1
    --
    0 1
    C                1.896650011255968    -2.069954179162864    -1.114422817643480
    C                2.102650011255968    -2.724954179162864    -2.476422817643479
    H                2.103650011255968    -0.999954179162864    -1.171422817643480
    H                0.868650011255968    -2.216954179162864    -0.779422817643479
    H                2.568650011255968    -2.521954179162864    -0.383422817643480
    H                1.916650011255968    -3.790954179162864    -2.345422817643480
    H                3.147340011255968    -2.595217179162864    -2.795485817643480
    H                1.355500011255968    -2.356428179162864    -3.194723817643480
    C               -1.783349988744032    -0.062954179162864    -1.044422817643480
    C                0.181650011255968     1.185045820837136     0.094577182356520
    C               -1.014349988744032     0.538045820837136     0.094577182356520
    C               -0.662349988744032     1.310045820837136     2.124577182356520
    N                0.377650011255968     1.661045820837136     1.374577182356520
    N               -1.520349988744032     0.625045820837136     1.375577182356520
    H                0.825650011255968     1.333045820837136    -0.762422817643480
    H                1.166650011255968     2.210045820837136     1.698577182356521
    H               -2.253349988744032    -0.993954179162864    -0.727422817643479
    H               -1.078349988744032    -0.284954179162864    -1.824422817643480
    H               -0.792349988744032     1.554045820837136     3.172577182356520
    H               -2.535249988744032     0.626163820837136    -1.456450817643479

}
e, wfn = energy('scf', return_wfn=True)
gdma(wfn)
dmavals = variable('DMA DISTRIBUTED MULTIPOLES')
charges = np.array(dmavals)
print(charges)
np.save('SSI-097ALA-117HIE-1-dimer.npy', np.array(charges))--------------------------------------------------------------------------

*** tstart() called on ds3
*** at Tue Apr 28 15:32:45 2020

   => Loading Basis Set <=

    Name: CC-PVDZ
    Role: ORBITAL
    Keyword: BASIS
    atoms 1-2, 9-12  entry C          line   138 file /theoryfs2/ds/metcalf/miniconda2/envs/tf2gpu/share/psi4/basis/cc-pvdz.gbs
    atoms 3-8, 15-20 entry H          line    22 file /theoryfs2/ds/metcalf/miniconda2/envs/tf2gpu/share/psi4/basis/cc-pvdz.gbs
    atoms 13-14      entry N          line   168 file /theoryfs2/ds/metcalf/miniconda2/envs/tf2gpu/share/psi4/basis/cc-pvdz.gbs

         ---------------------------------------------------------
                                   SCF
               by Justin Turney, Rob Parrish, Andy Simmonett
                          and Daniel G. A. Smith
                              RHF Reference
                        1 Threads,    500 MiB Core
         ---------------------------------------------------------

  ==> Geometry <==

    Molecular point group: c1
    Full point group: C1

    Geometry (in Angstrom), charge = 0, multiplicity = 1:

       Center              X                  Y                   Z               Mass
    ------------   -----------------  -----------------  -----------------  -----------------
         C            1.896650011256    -2.069954179163    -1.114422817643    12.000000000000
         C            2.102650011256    -2.724954179163    -2.476422817643    12.000000000000
         H            2.103650011256    -0.999954179163    -1.171422817643     1.007825032230
         H            0.868650011256    -2.216954179163    -0.779422817643     1.007825032230
         H            2.568650011256    -2.521954179163    -0.383422817643     1.007825032230
         H            1.916650011256    -3.790954179163    -2.345422817643     1.007825032230
         H            3.147340011256    -2.595217179163    -2.795485817643     1.007825032230
         H            1.355500011256    -2.356428179163    -3.194723817643     1.007825032230
         C           -1.783349988744    -0.062954179163    -1.044422817643    12.000000000000
         C            0.181650011256     1.185045820837     0.094577182357    12.000000000000
         C           -1.014349988744     0.538045820837     0.094577182357    12.000000000000
         C           -0.662349988744     1.310045820837     2.124577182357    12.000000000000
         N            0.377650011256     1.661045820837     1.374577182357    14.003074004430
         N           -1.520349988744     0.625045820837     1.375577182357    14.003074004430
         H            0.825650011256     1.333045820837    -0.762422817643     1.007825032230
         H            1.166650011256     2.210045820837     1.698577182357     1.007825032230
         H           -2.253349988744    -0.993954179163    -0.727422817643     1.007825032230
         H           -1.078349988744    -0.284954179163    -1.824422817643     1.007825032230
         H           -0.792349988744     1.554045820837     3.172577182357     1.007825032230
         H           -2.535249988744     0.626163820837    -1.456450817643     1.007825032230

  Running in c1 symmetry.

  Rotational constants: A =      0.10410  B =      0.02663  C =      0.02328 [cm^-1]
  Rotational constants: A =   3120.87064  B =    798.44633  C =    697.90853 [MHz]
  Nuclear repulsion =  350.950913936226016

  Charge       = 0
  Multiplicity = 1
  Electrons    = 62
  Nalpha       = 31
  Nbeta        = 31

  ==> Algorithm <==

  SCF Algorithm Type is PK.
  DIIS enabled.
  MOM disabled.
  Fractional occupation disabled.
  Guess Type is SAD.
  Energy threshold   = 1.00e-06
  Density threshold  = 1.00e-10
  Integral threshold = 0.00e+00

  ==> Primary Basis <==

  Basis Set: CC-PVDZ
    Blend: CC-PVDZ
    Number of shells: 84
    Number of basis function: 172
    Number of Cartesian functions: 180
    Spherical Harmonics?: true
    Max angular momentum: 2

  ==> Pre-Iterations <==

   -------------------------------------------------------
    Irrep   Nso     Nmo     Nalpha   Nbeta   Ndocc  Nsocc
   -------------------------------------------------------
     A        172     172       0       0       0       0
   -------------------------------------------------------
    Total     172     172      31      31      31       0
   -------------------------------------------------------

  ==> Integral Setup <==

  Using integral reordering PK algorithm.
  Sizing the integral batches needed.
  Building batch lookup table.
   Calculation information:
      Number of atoms:                  20
      Number of AO shells:              84
      Number of primitives:            236
      Number of atomic orbitals:       180
      Number of basis functions:       172

      Integral cutoff                 1.00e-12
      Number of threads:                 1

	Batch   1 pq = [       0,    9405] index = [             0,44231715] size =     44231715
	Batch   2 pq = [    9405,   13301] index = [      44231715,88464951] size =     44233236
	Batch   3 pq = [   13301,   14878] index = [      88464951,110684881] size =     22219930
  Task number: 11
  Buffer size: 11059200
  Buffer per thread: 2
  We computed 5289707 shell quartets total.
  Whereas there are 6374235 unique shell quartets.

  ==> DiskJK: Disk-Based J/K Matrices <==

    J tasked:                  Yes
    K tasked:                  Yes
    wK tasked:                  No
    Memory [MiB]:              375
    Schwarz Cutoff:          1E-12

    OpenMP threads:              1

  Minimum eigenvalue in the overlap matrix is 1.2355466919E-03.
  Using Symmetric Orthogonalization.

  SCF Guess: Superposition of Atomic Densities via on-the-fly atomic UHF.

  ==> Iterations <==

                        Total Energy        Delta E     RMS |[F,P]|

   @RHF iter SAD:  -342.19789842927457   -3.42198e+02   0.00000e+00
   @RHF iter   1:  -342.88586064772159   -6.87962e-01   3.37235e-03 DIIS
   @RHF iter   2:  -343.05855919046098   -1.72699e-01   1.71427e-03 DIIS
   @RHF iter   3:  -343.09965148024457   -4.10923e-02   4.35897e-04 DIIS
   @RHF iter   4:  -343.10315145209017   -3.49997e-03   1.82365e-04 DIIS
   @RHF iter   5:  -343.10371973890142   -5.68287e-04   2.70103e-05 DIIS
   @RHF iter   6:  -343.10374136110261   -2.16222e-05   1.16836e-05 DIIS
   @RHF iter   7:  -343.10374500461404   -3.64351e-06   4.20931e-06 DIIS
   @RHF iter   8:  -343.10374581435866   -8.09745e-07   1.67546e-06 DIIS
   @RHF iter   9:  -343.10374599026062   -1.75902e-07   6.01420e-07 DIIS
   @RHF iter  10:  -343.10374600730586   -1.70452e-08   1.87192e-07 DIIS
   @RHF iter  11:  -343.10374600923768   -1.93182e-09   8.36210e-08 DIIS
   @RHF iter  12:  -343.10374600950706   -2.69381e-10   3.25466e-08 DIIS
   @RHF iter  13:  -343.10374600955333   -4.62705e-11   8.88592e-09 DIIS
   @RHF iter  14:  -343.10374600955760   -4.26326e-12   3.29432e-09 DIIS
   @RHF iter  15:  -343.10374600955856   -9.66338e-13   1.33644e-09 DIIS
   @RHF iter  16:  -343.10374600955925   -6.82121e-13   4.21324e-10 DIIS
   @RHF iter  17:  -343.10374600955691    2.33058e-12   1.30189e-10 DIIS
   @RHF iter  18:  -343.10374600955862   -1.70530e-12   4.51367e-11 DIIS
  Energy and wave function converged.

  ==> Post-Iterations <==

    Orbital Energies [Eh]
    ---------------------

    Doubly Occupied:

       1A    -15.620521     2A    -15.526837     3A    -11.292010
       4A    -11.250274     5A    -11.240621     6A    -11.221938
       7A    -11.217983     8A    -11.213629     9A     -1.339479
      10A     -1.151864    11A     -1.030496    12A     -1.017597
      13A     -0.940972    14A     -0.832930    15A     -0.816860
      16A     -0.760497    17A     -0.740141    18A     -0.609925
      19A     -0.603609    20A     -0.599550    21A     -0.597427
      22A     -0.592128    23A     -0.552363    24A     -0.540796
      25A     -0.521622    26A     -0.496418    27A     -0.487385
      28A     -0.479410    29A     -0.409193    30A     -0.376798
      31A     -0.308415

    Virtual:

      32A      0.165510    33A      0.176792    34A      0.186642
      35A      0.214209    36A      0.218162    37A      0.226737
      38A      0.233509    39A      0.236710    40A      0.262395
      41A      0.267265    42A      0.279494    43A      0.296944
      44A      0.322490    45A      0.340452    46A      0.375863
      47A      0.393249    48A      0.398342    49A      0.415938
      50A      0.471626    51A      0.489042    52A      0.576747
      53A      0.598766    54A      0.602494    55A      0.610527
      56A      0.629677    57A      0.649054    58A      0.665511
      59A      0.681122    60A      0.698473    61A      0.705732
      62A      0.722647    63A      0.764665    64A      0.774264
      65A      0.801127    66A      0.811397    67A      0.839050
      68A      0.848115    69A      0.870122    70A      0.878274
      71A      0.893154    72A      0.894518    73A      0.895937
      74A      0.912615    75A      0.920487    76A      0.930776
      77A      0.951971    78A      0.959993    79A      0.977333
      80A      0.990236    81A      0.998931    82A      1.029712
      83A      1.059027    84A      1.089254    85A      1.102824
      86A      1.124004    87A      1.130373    88A      1.138799
      89A      1.146418    90A      1.176175    91A      1.240350
      92A      1.256079    93A      1.274987    94A      1.311103
      95A      1.326172    96A      1.338901    97A      1.422734
      98A      1.441919    99A      1.476741   100A      1.481277
     101A      1.491941   102A      1.528109   103A      1.564974
     104A      1.573292   105A      1.604552   106A      1.639892
     107A      1.672491   108A      1.694076   109A      1.696205
     110A      1.707585   111A      1.771355   112A      1.804079
     113A      1.820787   114A      1.856336   115A      1.859275
     116A      1.881135   117A      1.900907   118A      1.906336
     119A      1.927443   120A      1.950238   121A      1.952010
     122A      1.952535   123A      1.961185   124A      1.963933
     125A      1.969861   126A      1.977203   127A      1.984260
     128A      1.991954   129A      2.043196   130A      2.074784
     131A      2.093603   132A      2.104704   133A      2.130802
     134A      2.141626   135A      2.198227   136A      2.219052
     137A      2.232088   138A      2.280328   139A      2.304219
     140A      2.316429   141A      2.337887   142A      2.379461
     143A      2.435031   144A      2.443782   145A      2.451224
     146A      2.478982   147A      2.510511   148A      2.561609
     149A      2.564053   150A      2.577381   151A      2.605759
     152A      2.697812   153A      2.735385   154A      2.746599
     155A      2.766087   156A      2.790141   157A      2.792215
     158A      2.803964   159A      2.838088   160A      2.845549
     161A      2.857510   162A      2.868546   163A      2.885473
     164A      2.918649   165A      2.943994   166A      2.964741
     167A      2.982014   168A      3.058900   169A      3.158495
     170A      3.235757   171A      3.469163   172A      3.790457

    Final Occupation by Irrep:
              A
    DOCC [    31 ]

  @RHF Final Energy:  -343.10374600955862

   => Energetics <=

    Nuclear Repulsion Energy =            350.9509139362260157
    One-Electron Energy =               -1159.3299433422655511
    Two-Electron Energy =                 465.2752833964809156
    Total Energy =                       -343.1037460095586198

Computation Completed

Properties will be evaluated at   0.000000,   0.000000,   0.000000 [a0]

Properties computed using the SCF density matrix

  Nuclear Dipole Moment: [e a0]
     X:     6.8407      Y:    -9.4161      Z:    -9.9165

  Electronic Dipole Moment: [e a0]
     X:    -5.7014      Y:    10.1298      Z:     9.9861

  Dipole Moment: [e a0]
     X:     1.1392      Y:     0.7137      Z:     0.0695     Total:     1.3461

  Dipole Moment: [D]
     X:     2.8957      Y:     1.8140      Z:     0.1768     Total:     3.4215

*** tstop() called on ds3 at Tue Apr 28 15:34:25 2020
Module time:
	user time   =      37.43 seconds =       0.62 minutes
	system time =      16.66 seconds =       0.28 minutes
	total time  =        100 seconds =       1.67 minutes
Total time:
	user time   =      37.43 seconds =       0.62 minutes
	system time =      16.66 seconds =       0.28 minutes
	total time  =        100 seconds =       1.67 minutes
                                     G D M A

                                 by Anthony Stone

                           version 2.2.06, 22 June 2011

               Distributed Multipoles from Gaussian wavefunctions

Starting at 15:34:25 on 28 Apr 2020

Using SCF density matrix from file ./SSI/SSI-097ALA-117HIE-1-dimer.test.936.fchk

                         Distributed Multipole Analysis

Standard DMA

Positions and radii in angstrom
Multipole moments in atomic units, ea_0^k for rank k

C          x =  1.896650  y = -2.069954  z = -1.114423 angstrom
           Maximum rank =  0   Radius =  0.650 angstrom
                   Q00  =  -0.233116

C          x =  2.102650  y = -2.724954  z = -2.476423 angstrom
           Maximum rank =  0   Radius =  0.650 angstrom
                   Q00  =  -0.206131

H          x =  2.103650  y = -0.999954  z = -1.171423 angstrom
           Maximum rank =  0   Radius =  0.325 angstrom
                   Q00  =   0.070804

H          x =  0.868650  y = -2.216954  z = -0.779423 angstrom
           Maximum rank =  0   Radius =  0.325 angstrom
                   Q00  =   0.085363

H          x =  2.568650  y = -2.521954  z = -0.383423 angstrom
           Maximum rank =  0   Radius =  0.325 angstrom
                   Q00  =   0.077022

H          x =  1.916650  y = -3.790954  z = -2.345423 angstrom
           Maximum rank =  0   Radius =  0.325 angstrom
                   Q00  =   0.075976

H          x =  3.147340  y = -2.595217  z = -2.795486 angstrom
           Maximum rank =  0   Radius =  0.325 angstrom
                   Q00  =   0.065579

H          x =  1.355500  y = -2.356428  z = -3.194724 angstrom
           Maximum rank =  0   Radius =  0.325 angstrom
                   Q00  =   0.065209

C          x = -1.783350  y = -0.062954  z = -1.044423 angstrom
           Maximum rank =  0   Radius =  0.650 angstrom
                   Q00  =  -0.193888

C          x =  0.181650  y =  1.185046  z =  0.094577 angstrom
           Maximum rank =  0   Radius =  0.650 angstrom
                   Q00  =  -0.002566

C          x = -1.014350  y =  0.538046  z =  0.094577 angstrom
           Maximum rank =  0   Radius =  0.650 angstrom
                   Q00  =   0.223816

C          x = -0.662350  y =  1.310046  z =  2.124577 angstrom
           Maximum rank =  0   Radius =  0.650 angstrom
                   Q00  =   0.461565

N          x =  0.377650  y =  1.661046  z =  1.374577 angstrom
           Maximum rank =  0   Radius =  0.650 angstrom
                   Q00  =  -0.479880

N          x = -1.520350  y =  0.625046  z =  1.375577 angstrom
           Maximum rank =  0   Radius =  0.650 angstrom
                   Q00  =  -0.768926

H          x =  0.825650  y =  1.333046  z = -0.762423 angstrom
           Maximum rank =  0   Radius =  0.325 angstrom
                   Q00  =   0.102372

H          x =  1.166650  y =  2.210046  z =  1.698577 angstrom
           Maximum rank =  0   Radius =  0.325 angstrom
                   Q00  =   0.219452

H          x = -2.253350  y = -0.993954  z = -0.727423 angstrom
           Maximum rank =  0   Radius =  0.325 angstrom
                   Q00  =   0.115763

H          x = -1.078350  y = -0.284954  z = -1.824423 angstrom
           Maximum rank =  0   Radius =  0.325 angstrom
                   Q00  =   0.092303

H          x = -0.792350  y =  1.554046  z =  3.172577 angstrom
           Maximum rank =  0   Radius =  0.325 angstrom
                   Q00  =   0.123553

H          x = -2.535250  y =  0.626164  z = -1.456451 angstrom
           Maximum rank =  0   Radius =  0.325 angstrom
                   Q00  =   0.105730

Total multipoles referred to origin at
           x =   0.000000,  y =    0.000000,  z =    0.000000 angstrom
                   Q00  =  -0.000000

Finished at 15:34:25 on 28 Apr 2020

  DMA results are available in the Python driver through the
	  variable('DMA DISTRIBUTED MULTIPOLES')
  and
	  variable('DMA TOTAL MULTIPOLES')
  commands.

    Psi4 stopped on: Tuesday, 28 April 2020 03:34PM
    Psi4 wall time for execution: 0:01:39.89

*** Psi4 exiting successfully. Buy a developer a beer!
