                               Psi4 1.3.2 release

  ==> Input File <==

--------------------------------------------------------------------------
import numpy as np
set {scf_type pk
basis cc-pvdz
d_convergence 10
gdma_switch   0
gdma_limit    0
gdma_origin   [ 0.0,  0.0,  0.0 ]
}
molecule test {
    units Angstrom
    0 1
    --
    0 1
    C                0.665001509375366     1.673038801971648     0.634536949027946
    C                0.811001509375366     2.253038801970649    -0.810463050972054
    H                1.422001509375366     2.091038801971648     1.290536949027946
    H               -0.322998490624634     1.904038801971648     1.035536949027946
    H                0.798001509375366     0.626038801971648     0.632536949027946
    H                0.037001509375366     1.818038801971648    -1.446463050972054
    H                1.805491509375366     2.057238801971648    -1.237853050972054
    H                0.654431509375366     3.341838801971649    -0.809023050972054
    C               -0.507998490624634    -1.395961198028352    -0.365463050972054
    C               -0.967998490624634    -2.531961198028351     0.542536949027946
    H               -1.240998490624634    -0.588961198028351    -0.351463050972054
    H                0.448001509375366    -1.057961198028351    -0.027463050972054
    H               -0.386998490624634    -1.757961198028352    -1.382463050972054
    H               -0.220998490624634    -3.326961198028352     0.522536949027946
    H               -1.931098490624634    -2.927361198028352     0.187486949027946
    H               -1.061908490624634    -2.157061198028351     1.572426949027946

}
e, wfn = energy('scf', return_wfn=True)
gdma(wfn)
dmavals = variable('DMA DISTRIBUTED MULTIPOLES')
charges = np.array(dmavals)
print(charges)
np.save('SSI-253ALA-261THR-1-dimer.npy', np.array(charges))--------------------------------------------------------------------------

*** tstart() called on ds3
*** at Tue Apr 28 07:50:04 2020

   => Loading Basis Set <=

    Name: CC-PVDZ
    Role: ORBITAL
    Keyword: BASIS
    atoms 1-2, 9-10  entry C          line   138 file /theoryfs2/ds/metcalf/miniconda2/envs/tf2gpu/share/psi4/basis/cc-pvdz.gbs
    atoms 3-8, 11-16 entry H          line    22 file /theoryfs2/ds/metcalf/miniconda2/envs/tf2gpu/share/psi4/basis/cc-pvdz.gbs

         ---------------------------------------------------------
                                   SCF
               by Justin Turney, Rob Parrish, Andy Simmonett
                          and Daniel G. A. Smith
                              RHF Reference
                        1 Threads,    500 MiB Core
         ---------------------------------------------------------

  ==> Geometry <==

    Molecular point group: c1
    Full point group: C1

    Geometry (in Angstrom), charge = 0, multiplicity = 1:

       Center              X                  Y                   Z               Mass
    ------------   -----------------  -----------------  -----------------  -----------------
         C            0.665001509375     1.673038801972     0.634536949028    12.000000000000
         C            0.811001509375     2.253038801971    -0.810463050972    12.000000000000
         H            1.422001509375     2.091038801972     1.290536949028     1.007825032230
         H           -0.322998490625     1.904038801972     1.035536949028     1.007825032230
         H            0.798001509375     0.626038801972     0.632536949028     1.007825032230
         H            0.037001509375     1.818038801972    -1.446463050972     1.007825032230
         H            1.805491509375     2.057238801972    -1.237853050972     1.007825032230
         H            0.654431509375     3.341838801972    -0.809023050972     1.007825032230
         C           -0.507998490625    -1.395961198028    -0.365463050972    12.000000000000
         C           -0.967998490625    -2.531961198028     0.542536949028    12.000000000000
         H           -1.240998490625    -0.588961198028    -0.351463050972     1.007825032230
         H            0.448001509375    -1.057961198028    -0.027463050972     1.007825032230
         H           -0.386998490625    -1.757961198028    -1.382463050972     1.007825032230
         H           -0.220998490625    -3.326961198028     0.522536949028     1.007825032230
         H           -1.931098490625    -2.927361198028     0.187486949028     1.007825032230
         H           -1.061908490625    -2.157061198028     1.572426949028     1.007825032230

  Running in c1 symmetry.

  Rotational constants: A =      0.49815  B =      0.05717  C =      0.05338 [cm^-1]
  Rotational constants: A =  14934.17143  B =   1713.83988  C =   1600.23602 [MHz]
  Nuclear repulsion =  125.359857599991173

  Charge       = 0
  Multiplicity = 1
  Electrons    = 36
  Nalpha       = 18
  Nbeta        = 18

  ==> Algorithm <==

  SCF Algorithm Type is PK.
  DIIS enabled.
  MOM disabled.
  Fractional occupation disabled.
  Guess Type is SAD.
  Energy threshold   = 1.00e-06
  Density threshold  = 1.00e-10
  Integral threshold = 0.00e+00

  ==> Primary Basis <==

  Basis Set: CC-PVDZ
    Blend: CC-PVDZ
    Number of shells: 60
    Number of basis function: 116
    Number of Cartesian functions: 120
    Spherical Harmonics?: true
    Max angular momentum: 2

  ==> Pre-Iterations <==

   -------------------------------------------------------
    Irrep   Nso     Nmo     Nalpha   Nbeta   Ndocc  Nsocc
   -------------------------------------------------------
     A        116     116       0       0       0       0
   -------------------------------------------------------
    Total     116     116      18      18      18       0
   -------------------------------------------------------

  ==> Integral Setup <==

  Using integral reordering PK algorithm.
  Sizing the integral batches needed.
  Building batch lookup table.
   Calculation information:
      Number of atoms:                  16
      Number of AO shells:              60
      Number of primitives:            148
      Number of atomic orbitals:       120
      Number of basis functions:       116

      Integral cutoff                 1.00e-12
      Number of threads:                 1

	Batch   1 pq = [       0,    6786] index = [             0,23028291] size =     23028291
  Task number: 3
  Buffer size: 11059200
  Buffer per thread: 2
  We computed 1529090 shell quartets total.
  Whereas there are 1675365 unique shell quartets.

  ==> DiskJK: Disk-Based J/K Matrices <==

    J tasked:                  Yes
    K tasked:                  Yes
    wK tasked:                  No
    Memory [MiB]:              375
    Schwarz Cutoff:          1E-12

    OpenMP threads:              1

  Minimum eigenvalue in the overlap matrix is 7.1290068910E-03.
  Using Symmetric Orthogonalization.

  SCF Guess: Superposition of Atomic Densities via on-the-fly atomic UHF.

  ==> Iterations <==

                        Total Energy        Delta E     RMS |[F,P]|

   @RHF iter SAD:  -157.37320542256674   -1.57373e+02   0.00000e+00
   @RHF iter   1:  -158.30394271405967   -9.30737e-01   4.17362e-03 DIIS
   @RHF iter   2:  -158.43637781212607   -1.32435e-01   1.74047e-03 DIIS
   @RHF iter   3:  -158.45849083186013   -2.21130e-02   3.47589e-04 DIIS
   @RHF iter   4:  -158.46028718568880   -1.79635e-03   3.86851e-05 DIIS
   @RHF iter   5:  -158.46031031049333   -2.31248e-05   7.20739e-06 DIIS
   @RHF iter   6:  -158.46031099837245   -6.87879e-07   1.71830e-06 DIIS
   @RHF iter   7:  -158.46031102626512   -2.78927e-08   3.29749e-07 DIIS
   @RHF iter   8:  -158.46031102753892   -1.27380e-09   5.29516e-08 DIIS
   @RHF iter   9:  -158.46031102758474   -4.58158e-11   1.31979e-08 DIIS
   @RHF iter  10:  -158.46031102758732   -2.58638e-12   3.85954e-09 DIIS
   @RHF iter  11:  -158.46031102758784   -5.11591e-13   1.01123e-09 DIIS
   @RHF iter  12:  -158.46031102758766    1.70530e-13   2.10282e-10 DIIS
   @RHF iter  13:  -158.46031102758778   -1.13687e-13   3.58602e-11 DIIS
  Energy and wave function converged.

  ==> Post-Iterations <==

    Orbital Energies [Eh]
    ---------------------

    Doubly Occupied:

       1A    -11.221041     2A    -11.219052     3A    -11.213380
       4A    -11.212712     5A     -1.022334     6A     -1.008799
       7A     -0.845306     8A     -0.835838     9A     -0.610578
      10A     -0.602428    11A     -0.592572    12A     -0.586046
      13A     -0.503667    14A     -0.496201    15A     -0.493061
      16A     -0.489073    17A     -0.487013    18A     -0.473499

    Virtual:

      19A      0.176029    20A      0.196748    21A      0.230812
      22A      0.234961    23A      0.250929    24A      0.260213
      25A      0.263897    26A      0.276243    27A      0.279297
      28A      0.291402    29A      0.309382    30A      0.377489
      31A      0.393921    32A      0.422259    33A      0.567048
      34A      0.587393    35A      0.600015    36A      0.605286
      37A      0.620058    38A      0.640162    39A      0.668245
      40A      0.678867    41A      0.699758    42A      0.820759
      43A      0.847185    44A      0.857343    45A      0.883180
      46A      0.893627    47A      0.895717    48A      0.897111
      49A      0.901310    50A      0.916627    51A      0.920475
      52A      0.926020    53A      0.948316    54A      0.963204
      55A      0.982712    56A      1.005279    57A      1.119126
      58A      1.123900    59A      1.128477    60A      1.183757
      61A      1.225684    62A      1.307106    63A      1.455032
      64A      1.469307    65A      1.485771    66A      1.489036
      67A      1.551988    68A      1.589875    69A      1.674709
      70A      1.682946    71A      1.690510    72A      1.745058
      73A      1.854403    74A      1.856917    75A      1.875983
      76A      1.887619    77A      1.907858    78A      1.923697
      79A      1.928290    80A      1.934219    81A      1.937155
      82A      1.944655    83A      1.953138    84A      1.963948
      85A      1.971646    86A      1.989139    87A      1.994513
      88A      2.042831    89A      2.088547    90A      2.102708
      91A      2.111979    92A      2.143401    93A      2.295517
      94A      2.304418    95A      2.311483    96A      2.339369
      97A      2.440912    98A      2.450573    99A      2.474310
     100A      2.499365   101A      2.562856   102A      2.567177
     103A      2.581922   104A      2.599942   105A      2.761511
     106A      2.763390   107A      2.799137   108A      2.818159
     109A      2.840501   110A      2.855566   111A      2.869655
     112A      2.890747   113A      2.935803   114A      2.972114
     115A      2.986270   116A      3.046347

    Final Occupation by Irrep:
              A
    DOCC [    18 ]

  @RHF Final Energy:  -158.46031102758778

   => Energetics <=

    Nuclear Repulsion Energy =            125.3598575999911731
    One-Electron Energy =                -459.8151368232688014
    Two-Electron Energy =                 175.9949681956898360
    Total Energy =                       -158.4603110275877782

Computation Completed

Properties will be evaluated at   0.000000,   0.000000,   0.000000 [a0]

Properties computed using the SCF density matrix

  Nuclear Dipole Moment: [e a0]
     X:    -0.0001      Y:     0.0206      Z:    -0.0128

  Electronic Dipole Moment: [e a0]
     X:     0.0087      Y:    -0.0545      Z:     0.0093

  Dipole Moment: [e a0]
     X:     0.0087      Y:    -0.0339      Z:    -0.0035     Total:     0.0352

  Dipole Moment: [D]
     X:     0.0220      Y:    -0.0863      Z:    -0.0089     Total:     0.0895

*** tstop() called on ds3 at Tue Apr 28 07:50:15 2020
Module time:
	user time   =       8.34 seconds =       0.14 minutes
	system time =       2.98 seconds =       0.05 minutes
	total time  =         11 seconds =       0.18 minutes
Total time:
	user time   =       8.34 seconds =       0.14 minutes
	system time =       2.98 seconds =       0.05 minutes
	total time  =         11 seconds =       0.18 minutes
                                     G D M A

                                 by Anthony Stone

                           version 2.2.06, 22 June 2011

               Distributed Multipoles from Gaussian wavefunctions

Starting at 7:50:15 on 28 Apr 2020

Using SCF density matrix from file ./SSI/SSI-253ALA-261THR-1-dimer.test.7332.fchk

                         Distributed Multipole Analysis

Standard DMA

Positions and radii in angstrom
Multipole moments in atomic units, ea_0^k for rank k

C          x =  0.665002  y =  1.673039  z =  0.634537 angstrom
           Maximum rank =  0   Radius =  0.650 angstrom
                   Q00  =  -0.250085

C          x =  0.811002  y =  2.253039  z = -0.810463 angstrom
           Maximum rank =  0   Radius =  0.650 angstrom
                   Q00  =  -0.251479

H          x =  1.422002  y =  2.091039  z =  1.290537 angstrom
           Maximum rank =  0   Radius =  0.325 angstrom
                   Q00  =   0.078840

H          x = -0.322998  y =  1.904039  z =  1.035537 angstrom
           Maximum rank =  0   Radius =  0.325 angstrom
                   Q00  =   0.080176

H          x =  0.798002  y =  0.626039  z =  0.632537 angstrom
           Maximum rank =  0   Radius =  0.325 angstrom
                   Q00  =   0.093175

H          x =  0.037002  y =  1.818039  z = -1.446463 angstrom
           Maximum rank =  0   Radius =  0.325 angstrom
                   Q00  =   0.081418

H          x =  1.805492  y =  2.057239  z = -1.237853 angstrom
           Maximum rank =  0   Radius =  0.325 angstrom
                   Q00  =   0.082707

H          x =  0.654432  y =  3.341839  z = -0.809023 angstrom
           Maximum rank =  0   Radius =  0.325 angstrom
                   Q00  =   0.081662

C          x = -0.507998  y = -1.395961  z = -0.365463 angstrom
           Maximum rank =  0   Radius =  0.650 angstrom
                   Q00  =  -0.238161

C          x = -0.967998  y = -2.531961  z =  0.542537 angstrom
           Maximum rank =  0   Radius =  0.650 angstrom
                   Q00  =  -0.225926

H          x = -1.240998  y = -0.588961  z = -0.351463 angstrom
           Maximum rank =  0   Radius =  0.325 angstrom
                   Q00  =   0.078078

H          x =  0.448002  y = -1.057961  z = -0.027463 angstrom
           Maximum rank =  0   Radius =  0.325 angstrom
                   Q00  =   0.078134

H          x = -0.386998  y = -1.757961  z = -1.382463 angstrom
           Maximum rank =  0   Radius =  0.325 angstrom
                   Q00  =   0.077776

H          x = -0.220998  y = -3.326961  z =  0.522537 angstrom
           Maximum rank =  0   Radius =  0.325 angstrom
                   Q00  =   0.078122

H          x = -1.931098  y = -2.927361  z =  0.187487 angstrom
           Maximum rank =  0   Radius =  0.325 angstrom
                   Q00  =   0.078682

H          x = -1.061908  y = -2.157061  z =  1.572427 angstrom
           Maximum rank =  0   Radius =  0.325 angstrom
                   Q00  =   0.076881

Total multipoles referred to origin at
           x =   0.000000,  y =    0.000000,  z =    0.000000 angstrom
                   Q00  =  -0.000000

Finished at 7:50:15 on 28 Apr 2020

  DMA results are available in the Python driver through the
	  variable('DMA DISTRIBUTED MULTIPOLES')
  and
	  variable('DMA TOTAL MULTIPOLES')
  commands.

    Psi4 stopped on: Tuesday, 28 April 2020 07:50AM
    Psi4 wall time for execution: 0:00:11.29

*** Psi4 exiting successfully. Buy a developer a beer!
