                               Psi4 1.3.2 release

  ==> Input File <==

--------------------------------------------------------------------------
import numpy as np
set {scf_type pk
basis cc-pvdz
d_convergence 10
gdma_switch   0
gdma_limit    0
gdma_origin   [ 0.0,  0.0,  0.0 ]
}
molecule test {
    units Angstrom
    0 1
    --
    0 1
    C                0.002581089762225    -3.852362401059658     2.265810945914576
    C                1.142581089762225    -1.965362401059658     1.027810945914576
    C                0.485581089762225    -2.424362401059658     2.175810945914576
    C                1.594581089762225    -0.645362401059658     0.942810945914576
    C                1.384581089762225     0.230637598940342     2.011810945914576
    C                0.282581089762225    -1.538362401059658     3.238810945914576
    C                0.728581089762225    -0.214362401059658     3.160810945914576
    O                1.829581089762225     1.517637598940342     1.935810945914576
    H                1.295581089762225    -2.632362401059658     0.189810945914576
    H                2.090581089762225    -0.309362401059658     0.043810945914576
    H               -0.430418910237775    -4.143362401059658     1.314810945914576
    H               -0.793418910237775    -3.915362401059658     3.009810945914576
    H               -0.221418910237775    -1.880362401059658     4.133810945914576
    H                2.433581089762225     1.625637598940342     1.203810945914576
    H                0.567581089762225     0.471637598940342     3.980810945914576
    H                0.786531089762225    -4.579442401059657     2.524250945914576
    C               -1.012418910237775     2.510637598940342    -4.548189054085424
    C               -1.209418910237775     0.315637598940342    -0.854189054085424
    C               -1.000418910237775    -0.361362401059658    -2.056189054085424
    C               -1.339418910237775     1.703637598940342    -0.852189054085424
    C               -0.922418910237775     0.349637598940342    -3.254189054085424
    C               -1.264418910237775     2.409637598940342    -2.051189054085424
    C               -1.058418910237775     1.742637598940342    -3.258189054085423
    H               -1.272418910237775    -0.236362401059658     0.074810945914576
    H               -0.897418910237775    -1.437362401059658    -2.058189054085424
    H               -1.503418910237775     2.232637598940342     0.070810945914576
    H               -0.726418910237775    -0.201362401059658    -4.160189054085424
    H               -1.383418910237775     3.481637598940342    -2.051189054085424
    H                0.034581089762225     2.601637598940342    -4.841189054085424
    H               -1.412418910237775     3.510637598940342    -4.380189054085424
    H               -1.577728910237775     2.032357598940342    -5.361629054085424

}
e, wfn = energy('scf', return_wfn=True)
gdma(wfn)
dmavals = variable('DMA DISTRIBUTED MULTIPOLES')
charges = np.array(dmavals)
print(charges)
np.save('SSI-079TYR-146PHE-1-dimer.npy', np.array(charges))--------------------------------------------------------------------------

*** tstart() called on ds3
*** at Tue Apr 28 13:47:51 2020

   => Loading Basis Set <=

    Name: CC-PVDZ
    Role: ORBITAL
    Keyword: BASIS
    atoms 1-7, 17-23  entry C          line   138 file /theoryfs2/ds/metcalf/miniconda2/envs/tf2gpu/share/psi4/basis/cc-pvdz.gbs
    atoms 8           entry O          line   198 file /theoryfs2/ds/metcalf/miniconda2/envs/tf2gpu/share/psi4/basis/cc-pvdz.gbs
    atoms 9-16, 24-31 entry H          line    22 file /theoryfs2/ds/metcalf/miniconda2/envs/tf2gpu/share/psi4/basis/cc-pvdz.gbs

         ---------------------------------------------------------
                                   SCF
               by Justin Turney, Rob Parrish, Andy Simmonett
                          and Daniel G. A. Smith
                              RHF Reference
                        1 Threads,    500 MiB Core
         ---------------------------------------------------------

  ==> Geometry <==

    Molecular point group: c1
    Full point group: C1

    Geometry (in Angstrom), charge = 0, multiplicity = 1:

       Center              X                  Y                   Z               Mass
    ------------   -----------------  -----------------  -----------------  -----------------
         C            0.002581089762    -3.852362401060     2.265810945915    12.000000000000
         C            1.142581089762    -1.965362401060     1.027810945915    12.000000000000
         C            0.485581089762    -2.424362401060     2.175810945915    12.000000000000
         C            1.594581089762    -0.645362401060     0.942810945915    12.000000000000
         C            1.384581089762     0.230637598940     2.011810945915    12.000000000000
         C            0.282581089762    -1.538362401060     3.238810945915    12.000000000000
         C            0.728581089762    -0.214362401060     3.160810945915    12.000000000000
         O            1.829581089762     1.517637598940     1.935810945915    15.994914619570
         H            1.295581089762    -2.632362401060     0.189810945915     1.007825032230
         H            2.090581089762    -0.309362401060     0.043810945915     1.007825032230
         H           -0.430418910238    -4.143362401060     1.314810945915     1.007825032230
         H           -0.793418910238    -3.915362401060     3.009810945915     1.007825032230
         H           -0.221418910238    -1.880362401060     4.133810945915     1.007825032230
         H            2.433581089762     1.625637598940     1.203810945915     1.007825032230
         H            0.567581089762     0.471637598940     3.980810945915     1.007825032230
         H            0.786531089762    -4.579442401060     2.524250945915     1.007825032230
         C           -1.012418910238     2.510637598940    -4.548189054085    12.000000000000
         C           -1.209418910238     0.315637598940    -0.854189054085    12.000000000000
         C           -1.000418910238    -0.361362401060    -2.056189054085    12.000000000000
         C           -1.339418910238     1.703637598940    -0.852189054085    12.000000000000
         C           -0.922418910238     0.349637598940    -3.254189054085    12.000000000000
         C           -1.264418910238     2.409637598940    -2.051189054085    12.000000000000
         C           -1.058418910238     1.742637598940    -3.258189054085    12.000000000000
         H           -1.272418910238    -0.236362401060     0.074810945915     1.007825032230
         H           -0.897418910238    -1.437362401060    -2.058189054085     1.007825032230
         H           -1.503418910238     2.232637598940     0.070810945915     1.007825032230
         H           -0.726418910238    -0.201362401060    -4.160189054085     1.007825032230
         H           -1.383418910238     3.481637598940    -2.051189054085     1.007825032230
         H            0.034581089762     2.601637598940    -4.841189054085     1.007825032230
         H           -1.412418910238     3.510637598940    -4.380189054085     1.007825032230
         H           -1.577728910238     2.032357598940    -5.361629054085     1.007825032230

  Running in c1 symmetry.

  Rotational constants: A =      0.03539  B =      0.00907  C =      0.00793 [cm^-1]
  Rotational constants: A =   1060.91458  B =    271.99354  C =    237.88174 [MHz]
  Nuclear repulsion =  883.376969943181962

  Charge       = 0
  Multiplicity = 1
  Electrons    = 108
  Nalpha       = 54
  Nbeta        = 54

  ==> Algorithm <==

  SCF Algorithm Type is PK.
  DIIS enabled.
  MOM disabled.
  Fractional occupation disabled.
  Guess Type is SAD.
  Energy threshold   = 1.00e-06
  Density threshold  = 1.00e-10
  Integral threshold = 0.00e+00

  ==> Primary Basis <==

  Basis Set: CC-PVDZ
    Blend: CC-PVDZ
    Number of shells: 138
    Number of basis function: 290
    Number of Cartesian functions: 305
    Spherical Harmonics?: true
    Max angular momentum: 2

  ==> Pre-Iterations <==

   -------------------------------------------------------
    Irrep   Nso     Nmo     Nalpha   Nbeta   Ndocc  Nsocc
   -------------------------------------------------------
     A        290     290       0       0       0       0
   -------------------------------------------------------
    Total     290     290      54      54      54       0
   -------------------------------------------------------

  ==> Integral Setup <==

  Using integral reordering PK algorithm.
  Sizing the integral batches needed.
  Building batch lookup table.
   Calculation information:
      Number of atoms:                  31
      Number of AO shells:             138
      Number of primitives:            410
      Number of atomic orbitals:       305
      Number of basis functions:       290

      Integral cutoff                 1.00e-12
      Number of threads:                 1

	Batch   1 pq = [       0,    9405] index = [             0,44231715] size =     44231715
	Batch   2 pq = [    9405,   13301] index = [      44231715,88464951] size =     44233236
	Batch   3 pq = [   13301,   16290] index = [      88464951,132690195] size =     44225244
	Batch   4 pq = [   16290,   18810] index = [     132690195,176917455] size =     44227260
	Batch   5 pq = [   18810,   21030] index = [     176917455,221140965] size =     44223510
	Batch   6 pq = [   21030,   23037] index = [     221140965,265363203] size =     44222238
	Batch   7 pq = [   23037,   24883] index = [     265363203,309594286] size =     44231083
	Batch   8 pq = [   24883,   26601] index = [     309594286,353819901] size =     44225615
	Batch   9 pq = [   26601,   28214] index = [     353819901,398029005] size =     44209104
	Batch  10 pq = [   28214,   29740] index = [     398029005,442248670] size =     44219665
	Batch  11 pq = [   29740,   31191] index = [     442248670,486454836] size =     44206166
	Batch  12 pq = [   31191,   32578] index = [     486454836,530679331] size =     44224495
	Batch  13 pq = [   32578,   33908] index = [     530679331,574893186] size =     44213855
	Batch  14 pq = [   33908,   35188] index = [     574893186,619115266] size =     44222080
	Batch  15 pq = [   35188,   36423] index = [     619115266,663335676] size =     44220410
	Batch  16 pq = [   36423,   37617] index = [     663335676,707538153] size =     44202477
	Batch  17 pq = [   37617,   38775] index = [     707538153,751769700] size =     44231547
	Batch  18 pq = [   38775,   39899] index = [     751769700,795985050] size =     44215350
	Batch  19 pq = [   39899,   40992] index = [     795985050,840192528] size =     44207478
	Batch  20 pq = [   40992,   42057] index = [     840192528,884416653] size =     44224125
	Batch  21 pq = [   42057,   42195] index = [     884416653,890230110] size =      5813457
  Task number: 81
  Buffer size: 11059200
  Buffer per thread: 2
  We computed 41919588 shell quartets total.
  Whereas there are 45998436 unique shell quartets.

  ==> DiskJK: Disk-Based J/K Matrices <==

    J tasked:                  Yes
    K tasked:                  Yes
    wK tasked:                  No
    Memory [MiB]:              375
    Schwarz Cutoff:          1E-12

    OpenMP threads:              1

  Minimum eigenvalue in the overlap matrix is 3.1233690046E-04.
  Using Symmetric Orthogonalization.

  SCF Guess: Superposition of Atomic Densities via on-the-fly atomic UHF.

  ==> Iterations <==

                        Total Energy        Delta E     RMS |[F,P]|

   @RHF iter SAD:  -613.11756757032651   -6.13118e+02   0.00000e+00
   @RHF iter   1:  -614.06604360633105   -9.48476e-01   2.35923e-03 DIIS
   @RHF iter   2:  -614.33984515926511   -2.73802e-01   9.65354e-04 DIIS
   @RHF iter   3:  -614.37979475321924   -3.99496e-02   2.28668e-04 DIIS
   @RHF iter   4:  -614.38326750987130   -3.47276e-03   8.57480e-05 DIIS
   @RHF iter   5:  -614.38362466740591   -3.57158e-04   1.74252e-05 DIIS
   @RHF iter   6:  -614.38364528470720   -2.06173e-05   5.64268e-06 DIIS
   @RHF iter   7:  -614.38364750901553   -2.22431e-06   1.60057e-06 DIIS
   @RHF iter   8:  -614.38364777233664   -2.63321e-07   5.97708e-07 DIIS
   @RHF iter   9:  -614.38364780943755   -3.71009e-08   2.36941e-07 DIIS
   @RHF iter  10:  -614.38364781595828   -6.52074e-09   9.08232e-08 DIIS
   @RHF iter  11:  -614.38364781772998   -1.77170e-09   4.29996e-08 DIIS
   @RHF iter  12:  -614.38364781817245   -4.42469e-10   2.25580e-08 DIIS
   @RHF iter  13:  -614.38364781826920   -9.67475e-11   6.76623e-09 DIIS
   @RHF iter  14:  -614.38364781827909   -9.89075e-12   1.95371e-09 DIIS
   @RHF iter  15:  -614.38364781828216   -3.06954e-12   6.67356e-10 DIIS
   @RHF iter  16:  -614.38364781827966    2.50111e-12   2.55765e-10 DIIS
   @RHF iter  17:  -614.38364781828147   -1.81899e-12   1.20445e-10 DIIS
   @RHF iter  18:  -614.38364781828113    3.41061e-13   5.88424e-11 DIIS
  Energy and wave function converged.

  ==> Post-Iterations <==

    Orbital Energies [Eh]
    ---------------------

    Doubly Occupied:

       1A    -20.580787     2A    -11.299019     3A    -11.239650
       4A    -11.239367     5A    -11.238033     6A    -11.235454
       7A    -11.233314     8A    -11.231961     9A    -11.231871
      10A    -11.230198    11A    -11.228209    12A    -11.228159
      13A    -11.227749    14A    -11.226977    15A    -11.225394
      16A     -1.399447    17A     -1.147805    18A     -1.146939
      19A     -1.040424    20A     -1.035374    21A     -1.015436
      22A     -1.007594    23A     -0.927468    24A     -0.925654
      25A     -0.842394    26A     -0.820299    27A     -0.801015
      28A     -0.791442    29A     -0.730450    30A     -0.685571
      31A     -0.665602    32A     -0.641043    33A     -0.629017
      34A     -0.625234    35A     -0.608437    36A     -0.585871
      37A     -0.585627    38A     -0.579637    39A     -0.575830
      40A     -0.569054    41A     -0.564767    42A     -0.557053
      43A     -0.533659    44A     -0.525492    45A     -0.497540
      46A     -0.484679    47A     -0.483130    48A     -0.481319
      49A     -0.477554    50A     -0.463318    51A     -0.338994
      52A     -0.328719    53A     -0.314974    54A     -0.300285

    Virtual:

      55A      0.126604    56A      0.136143    57A      0.147763
      58A      0.155471    59A      0.174951    60A      0.185776
      61A      0.192434    62A      0.208874    63A      0.215260
      64A      0.217279    65A      0.232354    66A      0.249499
      67A      0.257290    68A      0.262313    69A      0.267495
      70A      0.273858    71A      0.281452    72A      0.289790
      73A      0.292871    74A      0.301475    75A      0.365380
      76A      0.370493    77A      0.373192    78A      0.378597
      79A      0.425289    80A      0.452085    81A      0.456258
      82A      0.465039    83A      0.475841    84A      0.485715
      85A      0.494180    86A      0.500107    87A      0.505548
      88A      0.563760    89A      0.594937    90A      0.611217
      91A      0.633092    92A      0.637346    93A      0.640829
      94A      0.655171    95A      0.663649    96A      0.677596
      97A      0.687223    98A      0.693962    99A      0.701767
     100A      0.715009   101A      0.720662   102A      0.727140
     103A      0.729158   104A      0.732237   105A      0.741623
     106A      0.747984   107A      0.750387   108A      0.757945
     109A      0.767025   110A      0.772988   111A      0.774433
     112A      0.787154   113A      0.789872   114A      0.804070
     115A      0.828062   116A      0.832413   117A      0.841583
     118A      0.852882   119A      0.865280   120A      0.873829
     121A      0.878185   122A      0.881495   123A      0.884999
     124A      0.893882   125A      0.895255   126A      0.899587
     127A      0.905201   128A      0.913821   129A      0.923549
     130A      0.923616   131A      0.932432   132A      0.935696
     133A      0.943231   134A      0.944205   135A      0.946886
     136A      0.978423   137A      1.003768   138A      1.013274
     139A      1.026571   140A      1.033662   141A      1.053625
     142A      1.071255   143A      1.105021   144A      1.114895
     145A      1.136312   146A      1.144135   147A      1.146832
     148A      1.157182   149A      1.164683   150A      1.168355
     151A      1.199160   152A      1.204563   153A      1.230944
     154A      1.237823   155A      1.241084   156A      1.250284
     157A      1.265319   158A      1.267561   159A      1.272583
     160A      1.289272   161A      1.299805   162A      1.303749
     163A      1.303880   164A      1.307344   165A      1.322269
     166A      1.326464   167A      1.348604   168A      1.365488
     169A      1.377994   170A      1.387137   171A      1.417637
     172A      1.475118   173A      1.501715   174A      1.512841
     175A      1.518217   176A      1.543655   177A      1.551670
     178A      1.567625   179A      1.603688   180A      1.617941
     181A      1.626093   182A      1.671836   183A      1.688252
     184A      1.698364   185A      1.701475   186A      1.727288
     187A      1.738008   188A      1.748464   189A      1.755372
     190A      1.774167   191A      1.783738   192A      1.795293
     193A      1.806622   194A      1.814096   195A      1.819622
     196A      1.861575   197A      1.872549   198A      1.884811
     199A      1.890209   200A      1.897315   201A      1.898069
     202A      1.905740   203A      1.910832   204A      1.913308
     205A      1.925695   206A      1.928203   207A      1.931655
     208A      1.944697   209A      1.949962   210A      1.957385
     211A      1.960937   212A      1.964555   213A      1.972001
     214A      1.988208   215A      1.989748   216A      2.004596
     217A      2.035813   218A      2.042808   219A      2.051577
     220A      2.056871   221A      2.063753   222A      2.065843
     223A      2.080750   224A      2.085203   225A      2.118090
     226A      2.128349   227A      2.135250   228A      2.139665
     229A      2.160956   230A      2.171372   231A      2.173079
     232A      2.183374   233A      2.197604   234A      2.207230
     235A      2.227975   236A      2.253161   237A      2.259218
     238A      2.269016   239A      2.273914   240A      2.290501
     241A      2.299969   242A      2.305800   243A      2.327101
     244A      2.343625   245A      2.353788   246A      2.377231
     247A      2.415369   248A      2.451580   249A      2.463359
     250A      2.474509   251A      2.477329   252A      2.492916
     253A      2.497282   254A      2.537781   255A      2.547621
     256A      2.549524   257A      2.596996   258A      2.636579
     259A      2.642122   260A      2.733909   261A      2.745495
     262A      2.755198   263A      2.769234   264A      2.773126
     265A      2.784460   266A      2.799561   267A      2.804823
     268A      2.815192   269A      2.845426   270A      2.850631
     271A      2.862076   272A      2.901810   273A      2.959122
     274A      2.983399   275A      2.996705   276A      3.024400
     277A      3.035454   278A      3.078666   279A      3.110440
     280A      3.165971   281A      3.207081   282A      3.267962
     283A      3.272032   284A      3.301722   285A      3.353077
     286A      3.574482   287A      3.674461   288A      3.957764
     289A      3.970570   290A      4.188313

    Final Occupation by Irrep:
              A
    DOCC [    54 ]

  @RHF Final Energy:  -614.38364781828113

   => Energetics <=

    Nuclear Repulsion Energy =            883.3769699431819618
    One-Electron Energy =               -2586.2606605179007602
    Two-Electron Energy =                1088.5000427564377787
    Total Energy =                       -614.3836478182811334

Computation Completed

Properties will be evaluated at   0.000000,   0.000000,   0.000000 [a0]

Properties computed using the SCF density matrix

  Nuclear Dipole Moment: [e a0]
     X:    -2.8131      Y:    -3.1606      Z:    -5.9024

  Electronic Dipole Moment: [e a0]
     X:     3.0856      Y:     2.9043      Z:     5.4484

  Dipole Moment: [e a0]
     X:     0.2726      Y:    -0.2563      Z:    -0.4540     Total:     0.5883

  Dipole Moment: [D]
     X:     0.6929      Y:    -0.6514      Z:    -1.1540     Total:     1.4954

*** tstop() called on ds3 at Tue Apr 28 13:57:59 2020
Module time:
	user time   =     370.80 seconds =       6.18 minutes
	system time =     137.07 seconds =       2.28 minutes
	total time  =        608 seconds =      10.13 minutes
Total time:
	user time   =     370.80 seconds =       6.18 minutes
	system time =     137.07 seconds =       2.28 minutes
	total time  =        608 seconds =      10.13 minutes
                                     G D M A

                                 by Anthony Stone

                           version 2.2.06, 22 June 2011

               Distributed Multipoles from Gaussian wavefunctions

Starting at 13:57:59 on 28 Apr 2020

Using SCF density matrix from file ./SSI/SSI-079TYR-146PHE-1-dimer.test.15289.fchk

                         Distributed Multipole Analysis

Standard DMA

Positions and radii in angstrom
Multipole moments in atomic units, ea_0^k for rank k

C          x =  0.002581  y = -3.852362  z =  2.265811 angstrom
           Maximum rank =  0   Radius =  0.650 angstrom
                   Q00  =  -0.195217

C          x =  1.142581  y = -1.965362  z =  1.027811 angstrom
           Maximum rank =  0   Radius =  0.650 angstrom
                   Q00  =  -0.034878

C          x =  0.485581  y = -2.424362  z =  2.175811 angstrom
           Maximum rank =  0   Radius =  0.650 angstrom
                   Q00  =  -0.135088

C          x =  1.594581  y = -0.645362  z =  0.942811 angstrom
           Maximum rank =  0   Radius =  0.650 angstrom
                   Q00  =  -0.166857

C          x =  1.384581  y =  0.230638  z =  2.011811 angstrom
           Maximum rank =  0   Radius =  0.650 angstrom
                   Q00  =   0.298263

C          x =  0.282581  y = -1.538362  z =  3.238811 angstrom
           Maximum rank =  0   Radius =  0.650 angstrom
                   Q00  =   0.027269

C          x =  0.728581  y = -0.214362  z =  3.160811 angstrom
           Maximum rank =  0   Radius =  0.650 angstrom
                   Q00  =  -0.113810

O          x =  1.829581  y =  1.517638  z =  1.935811 angstrom
           Maximum rank =  0   Radius =  0.650 angstrom
                   Q00  =  -0.667032

H          x =  1.295581  y = -2.632362  z =  0.189811 angstrom
           Maximum rank =  0   Radius =  0.325 angstrom
                   Q00  =   0.067479

H          x =  2.090581  y = -0.309362  z =  0.043811 angstrom
           Maximum rank =  0   Radius =  0.325 angstrom
                   Q00  =   0.079227

H          x = -0.430419  y = -4.143362  z =  1.314811 angstrom
           Maximum rank =  0   Radius =  0.325 angstrom
                   Q00  =   0.095963

H          x = -0.793419  y = -3.915362  z =  3.009811 angstrom
           Maximum rank =  0   Radius =  0.325 angstrom
                   Q00  =   0.095733

H          x = -0.221419  y = -1.880362  z =  4.133811 angstrom
           Maximum rank =  0   Radius =  0.325 angstrom
                   Q00  =   0.065602

H          x =  2.433581  y =  1.625638  z =  1.203811 angstrom
           Maximum rank =  0   Radius =  0.325 angstrom
                   Q00  =   0.405511

H          x =  0.567581  y =  0.471638  z =  3.980811 angstrom
           Maximum rank =  0   Radius =  0.325 angstrom
                   Q00  =   0.081408

H          x =  0.786531  y = -4.579442  z =  2.524251 angstrom
           Maximum rank =  0   Radius =  0.325 angstrom
                   Q00  =   0.100059

C          x = -1.012419  y =  2.510638  z = -4.548189 angstrom
           Maximum rank =  0   Radius =  0.650 angstrom
                   Q00  =  -0.201424

C          x = -1.209419  y =  0.315638  z = -0.854189 angstrom
           Maximum rank =  0   Radius =  0.650 angstrom
                   Q00  =  -0.083510

C          x = -1.000419  y = -0.361362  z = -2.056189 angstrom
           Maximum rank =  0   Radius =  0.650 angstrom
                   Q00  =  -0.065181

C          x = -1.339419  y =  1.703638  z = -0.852189 angstrom
           Maximum rank =  0   Radius =  0.650 angstrom
                   Q00  =  -0.076943

C          x = -0.922419  y =  0.349638  z = -3.254189 angstrom
           Maximum rank =  0   Radius =  0.650 angstrom
                   Q00  =  -0.096202

C          x = -1.264419  y =  2.409638  z = -2.051189 angstrom
           Maximum rank =  0   Radius =  0.650 angstrom
                   Q00  =   0.010161

C          x = -1.058419  y =  1.742638  z = -3.258189 angstrom
           Maximum rank =  0   Radius =  0.650 angstrom
                   Q00  =  -0.098276

H          x = -1.272419  y = -0.236362  z =  0.074811 angstrom
           Maximum rank =  0   Radius =  0.325 angstrom
                   Q00  =   0.072216

H          x = -0.897419  y = -1.437362  z = -2.058189 angstrom
           Maximum rank =  0   Radius =  0.325 angstrom
                   Q00  =   0.059899

H          x = -1.503419  y =  2.232638  z =  0.070811 angstrom
           Maximum rank =  0   Radius =  0.325 angstrom
                   Q00  =   0.068533

H          x = -0.726419  y = -0.201362  z = -4.160189 angstrom
           Maximum rank =  0   Radius =  0.325 angstrom
                   Q00  =   0.053529

H          x = -1.383419  y =  3.481638  z = -2.051189 angstrom
           Maximum rank =  0   Radius =  0.325 angstrom
                   Q00  =   0.056203

H          x =  0.034581  y =  2.601638  z = -4.841189 angstrom
           Maximum rank =  0   Radius =  0.325 angstrom
                   Q00  =   0.099983

H          x = -1.412419  y =  3.510638  z = -4.380189 angstrom
           Maximum rank =  0   Radius =  0.325 angstrom
                   Q00  =   0.096756

H          x = -1.577729  y =  2.032358  z = -5.361629 angstrom
           Maximum rank =  0   Radius =  0.325 angstrom
                   Q00  =   0.100624

Total multipoles referred to origin at
           x =   0.000000,  y =    0.000000,  z =    0.000000 angstrom
                   Q00  =  -0.000000

Finished at 13:57:59 on 28 Apr 2020

  DMA results are available in the Python driver through the
	  variable('DMA DISTRIBUTED MULTIPOLES')
  and
	  variable('DMA TOTAL MULTIPOLES')
  commands.

    Psi4 stopped on: Tuesday, 28 April 2020 01:57PM
    Psi4 wall time for execution: 0:10:08.46

*** Psi4 exiting successfully. Buy a developer a beer!
