                               Psi4 1.3.2 release

  ==> Input File <==

--------------------------------------------------------------------------
import numpy as np
set {scf_type pk
basis cc-pvdz
d_convergence 10
gdma_switch   0
gdma_limit    0
gdma_origin   [ 0.0,  0.0,  0.0 ]
}
molecule test {
    units Angstrom
    0 1
    --
    0 1
    C                2.287873649567200     1.589887735031133     2.483344837849509
    C                2.655873649567201     2.049887735031132     3.893344837849508
    H                1.275873649567201     1.914887735031132     2.236344837849509
    H                2.972873649567201     1.993887735031133     1.745344837849508
    H                2.345873649567201     0.506887735031133     2.413344837849508
    H                3.646873649567201     1.664887735031133     4.134344837849508
    H                1.925938649567200     1.664424635031132     4.620404837849509
    H                2.679590649567201     3.148757835031132     3.937184837849508
    C               -3.389126350432799    -0.317112264968867     0.217344837849508
    C                0.370873649567201    -0.128112264968867    -0.091655162150492
    C                0.581873649567200    -0.557112264968867    -1.392655162150491
    C               -0.905126350432799    -0.065112264968867     0.400344837849508
    C               -2.005126350432799    -0.430112264968867    -0.370655162150491
    C               -0.505126350432799    -0.948112264968867    -2.203655162150491
    C               -1.807126350432799    -0.887112264968867    -1.674655162150491
    O                1.865873649567200    -0.655112264968867    -1.824655162150492
    H                1.209873649567200     0.156887735031133     0.514344837849509
    H               -1.055126350432799     0.272887735031133     1.418344837849508
    H               -0.342126350432799    -1.304112264968867    -3.211655162150491
    H                1.882873649567200    -1.085112264968868    -2.680655162150491
    H               -3.339126350432799    -0.625112264968867     1.254344837849509
    H               -4.009126350432799    -1.054112264968867    -0.276655162150491
    H               -2.648126350432799    -1.198112264968868    -2.272655162150491
    H               -3.830235350432799     0.684886735031133     0.110474837849508

}
e, wfn = energy('scf', return_wfn=True)
gdma(wfn)
dmavals = variable('DMA DISTRIBUTED MULTIPOLES')
charges = np.array(dmavals)
print(charges)
np.save('SSI-125ILE-136TYR-1-dimer.npy', np.array(charges))--------------------------------------------------------------------------

*** tstart() called on ds3
*** at Sun Apr 26 18:22:53 2020

   => Loading Basis Set <=

    Name: CC-PVDZ
    Role: ORBITAL
    Keyword: BASIS
    atoms 1-2, 9-15  entry C          line   138 file /theoryfs2/ds/metcalf/miniconda2/envs/tf2gpu/share/psi4/basis/cc-pvdz.gbs
    atoms 3-8, 17-24 entry H          line    22 file /theoryfs2/ds/metcalf/miniconda2/envs/tf2gpu/share/psi4/basis/cc-pvdz.gbs
    atoms 16         entry O          line   198 file /theoryfs2/ds/metcalf/miniconda2/envs/tf2gpu/share/psi4/basis/cc-pvdz.gbs

         ---------------------------------------------------------
                                   SCF
               by Justin Turney, Rob Parrish, Andy Simmonett
                          and Daniel G. A. Smith
                              RHF Reference
                        1 Threads,    500 MiB Core
         ---------------------------------------------------------

  ==> Geometry <==

    Molecular point group: c1
    Full point group: C1

    Geometry (in Angstrom), charge = 0, multiplicity = 1:

       Center              X                  Y                   Z               Mass
    ------------   -----------------  -----------------  -----------------  -----------------
         C            2.287873649567     1.589887735031     2.483344837850    12.000000000000
         C            2.655873649567     2.049887735031     3.893344837850    12.000000000000
         H            1.275873649567     1.914887735031     2.236344837850     1.007825032230
         H            2.972873649567     1.993887735031     1.745344837850     1.007825032230
         H            2.345873649567     0.506887735031     2.413344837850     1.007825032230
         H            3.646873649567     1.664887735031     4.134344837850     1.007825032230
         H            1.925938649567     1.664424635031     4.620404837850     1.007825032230
         H            2.679590649567     3.148757835031     3.937184837850     1.007825032230
         C           -3.389126350433    -0.317112264969     0.217344837850    12.000000000000
         C            0.370873649567    -0.128112264969    -0.091655162150    12.000000000000
         C            0.581873649567    -0.557112264969    -1.392655162150    12.000000000000
         C           -0.905126350433    -0.065112264969     0.400344837850    12.000000000000
         C           -2.005126350433    -0.430112264969    -0.370655162150    12.000000000000
         C           -0.505126350433    -0.948112264969    -2.203655162150    12.000000000000
         C           -1.807126350433    -0.887112264969    -1.674655162150    12.000000000000
         O            1.865873649567    -0.655112264969    -1.824655162150    15.994914619570
         H            1.209873649567     0.156887735031     0.514344837850     1.007825032230
         H           -1.055126350433     0.272887735031     1.418344837850     1.007825032230
         H           -0.342126350433    -1.304112264969    -3.211655162150     1.007825032230
         H            1.882873649567    -1.085112264969    -2.680655162150     1.007825032230
         H           -3.339126350433    -0.625112264969     1.254344837850     1.007825032230
         H           -4.009126350433    -1.054112264969    -0.276655162150     1.007825032230
         H           -2.648126350433    -1.198112264969    -2.272655162150     1.007825032230
         H           -3.830235350433     0.684886735031     0.110474837850     1.007825032230

  Running in c1 symmetry.

  Rotational constants: A =      0.05052  B =      0.01906  C =      0.01398 [cm^-1]
  Rotational constants: A =   1514.67406  B =    571.41125  C =    419.05719 [MHz]
  Nuclear repulsion =  483.559830554373207

  Charge       = 0
  Multiplicity = 1
  Electrons    = 76
  Nalpha       = 38
  Nbeta        = 38

  ==> Algorithm <==

  SCF Algorithm Type is PK.
  DIIS enabled.
  MOM disabled.
  Fractional occupation disabled.
  Guess Type is SAD.
  Energy threshold   = 1.00e-06
  Density threshold  = 1.00e-10
  Integral threshold = 0.00e+00

  ==> Primary Basis <==

  Basis Set: CC-PVDZ
    Blend: CC-PVDZ
    Number of shells: 102
    Number of basis function: 210
    Number of Cartesian functions: 220
    Spherical Harmonics?: true
    Max angular momentum: 2

  ==> Pre-Iterations <==

   -------------------------------------------------------
    Irrep   Nso     Nmo     Nalpha   Nbeta   Ndocc  Nsocc
   -------------------------------------------------------
     A        210     210       0       0       0       0
   -------------------------------------------------------
    Total     210     210      38      38      38       0
   -------------------------------------------------------

  ==> Integral Setup <==

  Using integral reordering PK algorithm.
  Sizing the integral batches needed.
  Building batch lookup table.
   Calculation information:
      Number of atoms:                  24
      Number of AO shells:             102
      Number of primitives:            290
      Number of atomic orbitals:       220
      Number of basis functions:       210

      Integral cutoff                 1.00e-12
      Number of threads:                 1

	Batch   1 pq = [       0,    9405] index = [             0,44231715] size =     44231715
	Batch   2 pq = [    9405,   13301] index = [      44231715,88464951] size =     44233236
	Batch   3 pq = [   13301,   16290] index = [      88464951,132690195] size =     44225244
	Batch   4 pq = [   16290,   18810] index = [     132690195,176917455] size =     44227260
	Batch   5 pq = [   18810,   21030] index = [     176917455,221140965] size =     44223510
	Batch   6 pq = [   21030,   22155] index = [     221140965,245433090] size =     24292125
  Task number: 23
  Buffer size: 11059200
  Buffer per thread: 2
  We computed 10247657 shell quartets total.
  Whereas there are 13799631 unique shell quartets.

  ==> DiskJK: Disk-Based J/K Matrices <==

    J tasked:                  Yes
    K tasked:                  Yes
    wK tasked:                  No
    Memory [MiB]:              375
    Schwarz Cutoff:          1E-12

    OpenMP threads:              1

  Minimum eigenvalue in the overlap matrix is 3.1766718305E-04.
  Using Symmetric Orthogonalization.

  SCF Guess: Superposition of Atomic Densities via on-the-fly atomic UHF.

  ==> Iterations <==

                        Total Energy        Delta E     RMS |[F,P]|

   @RHF iter SAD:  -422.73021163564079   -4.22730e+02   0.00000e+00
   @RHF iter   1:  -423.59827611858191   -8.68064e-01   2.99332e-03 DIIS
   @RHF iter   2:  -423.81604216677476   -2.17766e-01   1.27034e-03 DIIS
   @RHF iter   3:  -423.85162490771199   -3.55827e-02   2.92816e-04 DIIS
   @RHF iter   4:  -423.85458951884010   -2.96461e-03   1.24667e-04 DIIS
   @RHF iter   5:  -423.85499367948808   -4.04161e-04   2.03620e-05 DIIS
   @RHF iter   6:  -423.85501142851359   -1.77490e-05   6.40361e-06 DIIS
   @RHF iter   7:  -423.85501319636205   -1.76785e-06   2.19371e-06 DIIS
   @RHF iter   8:  -423.85501348171351   -2.85351e-07   8.68316e-07 DIIS
   @RHF iter   9:  -423.85501354219696   -6.04834e-08   3.83714e-07 DIIS
   @RHF iter  10:  -423.85501355646335   -1.42664e-08   1.62967e-07 DIIS
   @RHF iter  11:  -423.85501356068272   -4.21937e-09   6.99098e-08 DIIS
   @RHF iter  12:  -423.85501356124234   -5.59623e-10   2.84491e-08 DIIS
   @RHF iter  13:  -423.85501356131766   -7.53175e-11   8.37017e-09 DIIS
   @RHF iter  14:  -423.85501356132278   -5.11591e-12   2.26537e-09 DIIS
   @RHF iter  15:  -423.85501356131920    3.58114e-12   1.01479e-09 DIIS
   @RHF iter  16:  -423.85501356132022   -1.02318e-12   4.41390e-10 DIIS
   @RHF iter  17:  -423.85501356132090   -6.82121e-13   2.00872e-10 DIIS
   @RHF iter  18:  -423.85501356132062    2.84217e-13   9.02647e-11 DIIS
  Energy and wave function converged.

  ==> Post-Iterations <==

    Orbital Energies [Eh]
    ---------------------

    Doubly Occupied:

       1A    -20.583356     2A    -11.298162     3A    -11.239629
       4A    -11.235943     5A    -11.232255     6A    -11.230027
       7A    -11.224508     8A    -11.222123     9A    -11.219306
      10A    -11.215789    11A     -1.403504    12A     -1.149069
      13A     -1.035341    14A     -1.019279    15A     -1.016752
      16A     -0.924111    17A     -0.843901    18A     -0.838229
      19A     -0.800430    20A     -0.729210    21A     -0.666151
      22A     -0.640810    23A     -0.606005    24A     -0.599480
      25A     -0.597311    26A     -0.587404    27A     -0.586711
      28A     -0.575302    29A     -0.566568    30A     -0.523400
      31A     -0.502664    32A     -0.494436    33A     -0.487051
      34A     -0.486438    35A     -0.479707    36A     -0.466156
      37A     -0.338583    38A     -0.298094

    Virtual:

      39A      0.132092    40A      0.156009    41A      0.177886
      42A      0.182622    43A      0.193888    44A      0.218472
      45A      0.222995    46A      0.239596    47A      0.253693
      48A      0.260747    49A      0.267099    50A      0.280108
      51A      0.286448    52A      0.291654    53A      0.308890
      54A      0.328738    55A      0.374839    56A      0.378872
      57A      0.410162    58A      0.433495    59A      0.454006
      60A      0.479891    61A      0.505489    62A      0.514375
      63A      0.596159    64A      0.601337    65A      0.611604
      66A      0.636658    67A      0.640832    68A      0.656687
      69A      0.669613    70A      0.673181    71A      0.683440
      72A      0.695026    73A      0.712747    74A      0.724683
      75A      0.734120    76A      0.742273    77A      0.765388
      78A      0.770056    79A      0.783057    80A      0.796166
      81A      0.806614    82A      0.833897    83A      0.840233
      84A      0.852098    85A      0.879607    86A      0.882630
      87A      0.890839    88A      0.895026    89A      0.895864
      90A      0.899825    91A      0.911935    92A      0.920878
      93A      0.922824    94A      0.931905    95A      0.940129
      96A      0.946678    97A      0.947657    98A      0.975926
      99A      0.981897   100A      1.021718   101A      1.053907
     102A      1.078619   103A      1.104208   104A      1.132233
     105A      1.139829   106A      1.145623   107A      1.152545
     108A      1.186529   109A      1.224532   110A      1.242188
     111A      1.256591   112A      1.258019   113A      1.277610
     114A      1.288714   115A      1.298068   116A      1.307420
     117A      1.324065   118A      1.367287   119A      1.387061
     120A      1.416154   121A      1.474494   122A      1.478131
     123A      1.490573   124A      1.501043   125A      1.535899
     126A      1.557379   127A      1.583363   128A      1.608869
     129A      1.619208   130A      1.680194   131A      1.686520
     132A      1.697938   133A      1.709370   134A      1.733813
     135A      1.750147   136A      1.778139   137A      1.801529
     138A      1.808794   139A      1.862643   140A      1.869992
     141A      1.873838   142A      1.888725   143A      1.897133
     144A      1.904710   145A      1.908967   146A      1.923960
     147A      1.929254   148A      1.936717   149A      1.946043
     150A      1.950459   151A      1.953358   152A      1.963407
     153A      1.973736   154A      1.988169   155A      1.995596
     156A      2.019202   157A      2.041684   158A      2.054762
     159A      2.066942   160A      2.073399   161A      2.086974
     162A      2.095014   163A      2.112021   164A      2.140617
     165A      2.160371   166A      2.173869   167A      2.218950
     168A      2.237066   169A      2.265661   170A      2.283377
     171A      2.289844   172A      2.310103   173A      2.317728
     174A      2.356178   175A      2.376209   176A      2.450286
     177A      2.456468   178A      2.462543   179A      2.475425
     180A      2.484872   181A      2.505852   182A      2.531571
     183A      2.549867   184A      2.563268   185A      2.574009
     186A      2.614018   187A      2.637757   188A      2.758126
     189A      2.767849   190A      2.790711   191A      2.791011
     192A      2.802621   193A      2.832558   194A      2.850165
     195A      2.855551   196A      2.859273   197A      2.910693
     198A      2.952239   199A      2.959000   200A      2.981103
     201A      3.004885   202A      3.092141   203A      3.110331
     204A      3.266364   205A      3.288510   206A      3.345885
     207A      3.584337   208A      3.707169   209A      3.938514
     210A      4.206433

    Final Occupation by Irrep:
              A
    DOCC [    38 ]

  @RHF Final Energy:  -423.85501356132062

   => Energetics <=

    Nuclear Repulsion Energy =            483.5598305543732067
    One-Electron Energy =               -1532.9032968407695989
    Two-Electron Energy =                 625.4884527250758310
    Total Energy =                       -423.8550135613206749

Computation Completed

Properties will be evaluated at   0.000000,   0.000000,   0.000000 [a0]

Properties computed using the SCF density matrix

  Nuclear Dipole Moment: [e a0]
     X:     2.5550      Y:     6.3171      Z:    13.0622

  Electronic Dipole Moment: [e a0]
     X:    -2.8468      Y:    -6.5468      Z:   -13.4142

  Dipole Moment: [e a0]
     X:    -0.2917      Y:    -0.2297      Z:    -0.3520     Total:     0.5116

  Dipole Moment: [D]
     X:    -0.7415      Y:    -0.5838      Z:    -0.8947     Total:     1.3005

*** tstop() called on ds3 at Sun Apr 26 18:25:42 2020
Module time:
	user time   =      77.24 seconds =       1.29 minutes
	system time =      36.71 seconds =       0.61 minutes
	total time  =        169 seconds =       2.82 minutes
Total time:
	user time   =      77.24 seconds =       1.29 minutes
	system time =      36.71 seconds =       0.61 minutes
	total time  =        169 seconds =       2.82 minutes
                                     G D M A

                                 by Anthony Stone

                           version 2.2.06, 22 June 2011

               Distributed Multipoles from Gaussian wavefunctions

Starting at 18:25:42 on 26 Apr 2020

Using SCF density matrix from file ./SSI/SSI-125ILE-136TYR-1-dimer.test.8578.fchk

                         Distributed Multipole Analysis

Standard DMA

Positions and radii in angstrom
Multipole moments in atomic units, ea_0^k for rank k

C          x =  2.287874  y =  1.589888  z =  2.483345 angstrom
           Maximum rank =  0   Radius =  0.650 angstrom
                   Q00  =  -0.252562

C          x =  2.655874  y =  2.049888  z =  3.893345 angstrom
           Maximum rank =  0   Radius =  0.650 angstrom
                   Q00  =  -0.221661

H          x =  1.275874  y =  1.914888  z =  2.236345 angstrom
           Maximum rank =  0   Radius =  0.325 angstrom
                   Q00  =   0.077256

H          x =  2.972874  y =  1.993888  z =  1.745345 angstrom
           Maximum rank =  0   Radius =  0.325 angstrom
                   Q00  =   0.085939

H          x =  2.345874  y =  0.506888  z =  2.413345 angstrom
           Maximum rank =  0   Radius =  0.325 angstrom
                   Q00  =   0.074527

H          x =  3.646874  y =  1.664888  z =  4.134345 angstrom
           Maximum rank =  0   Radius =  0.325 angstrom
                   Q00  =   0.081630

H          x =  1.925939  y =  1.664425  z =  4.620405 angstrom
           Maximum rank =  0   Radius =  0.325 angstrom
                   Q00  =   0.079816

H          x =  2.679591  y =  3.148758  z =  3.937185 angstrom
           Maximum rank =  0   Radius =  0.325 angstrom
                   Q00  =   0.080910

C          x = -3.389126  y = -0.317112  z =  0.217345 angstrom
           Maximum rank =  0   Radius =  0.650 angstrom
                   Q00  =  -0.190876

C          x =  0.370874  y = -0.128112  z = -0.091655 angstrom
           Maximum rank =  0   Radius =  0.650 angstrom
                   Q00  =  -0.100307

C          x =  0.581874  y = -0.557112  z = -1.392655 angstrom
           Maximum rank =  0   Radius =  0.650 angstrom
                   Q00  =   0.350907

C          x = -0.905126  y = -0.065112  z =  0.400345 angstrom
           Maximum rank =  0   Radius =  0.650 angstrom
                   Q00  =   0.052774

C          x = -2.005126  y = -0.430112  z = -0.370655 angstrom
           Maximum rank =  0   Radius =  0.650 angstrom
                   Q00  =  -0.159185

C          x = -0.505126  y = -0.948112  z = -2.203655 angstrom
           Maximum rank =  0   Radius =  0.650 angstrom
                   Q00  =  -0.204595

C          x = -1.807126  y = -0.887112  z = -1.674655 angstrom
           Maximum rank =  0   Radius =  0.650 angstrom
                   Q00  =  -0.055116

O          x =  1.865874  y = -0.655112  z = -1.824655 angstrom
           Maximum rank =  0   Radius =  0.650 angstrom
                   Q00  =  -0.659078

H          x =  1.209874  y =  0.156888  z =  0.514345 angstrom
           Maximum rank =  0   Radius =  0.325 angstrom
                   Q00  =   0.068071

H          x = -1.055126  y =  0.272888  z =  1.418345 angstrom
           Maximum rank =  0   Radius =  0.325 angstrom
                   Q00  =   0.054438

H          x = -0.342126  y = -1.304112  z = -3.211655 angstrom
           Maximum rank =  0   Radius =  0.325 angstrom
                   Q00  =   0.075619

H          x =  1.882874  y = -1.085112  z = -2.680655 angstrom
           Maximum rank =  0   Radius =  0.325 angstrom
                   Q00  =   0.399616

H          x = -3.339126  y = -0.625112  z =  1.254345 angstrom
           Maximum rank =  0   Radius =  0.325 angstrom
                   Q00  =   0.095996

H          x = -4.009126  y = -1.054112  z = -0.276655 angstrom
           Maximum rank =  0   Radius =  0.325 angstrom
                   Q00  =   0.093653

H          x = -2.648126  y = -1.198112  z = -2.272655 angstrom
           Maximum rank =  0   Radius =  0.325 angstrom
                   Q00  =   0.071302

H          x = -3.830235  y =  0.684887  z =  0.110475 angstrom
           Maximum rank =  0   Radius =  0.325 angstrom
                   Q00  =   0.100925

Total multipoles referred to origin at
           x =   0.000000,  y =    0.000000,  z =    0.000000 angstrom
                   Q00  =  -0.000000

Finished at 18:25:42 on 26 Apr 2020

  DMA results are available in the Python driver through the
	  variable('DMA DISTRIBUTED MULTIPOLES')
  and
	  variable('DMA TOTAL MULTIPOLES')
  commands.

    Psi4 stopped on: Sunday, 26 April 2020 06:25PM
    Psi4 wall time for execution: 0:02:49.07

*** Psi4 exiting successfully. Buy a developer a beer!
