                               Psi4 1.3.2 release

  ==> Input File <==

--------------------------------------------------------------------------
import numpy as np
set {scf_type pk
basis cc-pvdz
d_convergence 10
gdma_switch   0
gdma_limit    0
gdma_origin   [ 0.0,  0.0,  0.0 ]
}
molecule test {
    units Angstrom
    0 1
    --
    0 1
    C                1.110630908277917     2.221028231990412     2.192407048994841
    C                2.549630908277917     1.972028231990412     1.784407048994841
    H                0.959630908277917     3.281028231990412     2.400407048994841
    H                0.434630908277917     1.932028231990412     1.390407048994841
    H                0.862630908277917     1.638028231990412     3.079407048994841
    H                2.688630908277917     0.895028231990412     1.699407048994841
    H                3.260560908277916     2.370408231990412     2.523237048994841
    H                2.775280908277917     2.418338231990412     0.804667048994841
    C                0.147630908277917    -0.269971768009588    -0.219592951005159
    C               -2.386369091722083    -1.058971768009588    -0.926592951005159
    S               -0.650369091722083    -1.371971768009588    -1.357592951005159
    H               -0.032369091722083    -0.587971768009588     0.806407048994841
    H                1.221630908277917    -0.277971768009588    -0.403592951005159
    H               -0.234369091722083     0.739028231990412    -0.367592951005159
    H               -3.002369091722084    -1.553971768009588    -1.673592951005159
    H               -2.582369091722083     0.012028231990412    -0.965592951005159
    H               -2.645159091722083    -1.444301768009588     0.070677048994841

}
e, wfn = energy('scf', return_wfn=True)
gdma(wfn)
dmavals = variable('DMA DISTRIBUTED MULTIPOLES')
charges = np.array(dmavals)
print(charges)
np.save('SSI-115VAL-122MET-1-dimer.npy', np.array(charges))--------------------------------------------------------------------------

*** tstart() called on ds3
*** at Tue Apr 28 10:52:17 2020

   => Loading Basis Set <=

    Name: CC-PVDZ
    Role: ORBITAL
    Keyword: BASIS
    atoms 1-2, 9-10  entry C          line   138 file /theoryfs2/ds/metcalf/miniconda2/envs/tf2gpu/share/psi4/basis/cc-pvdz.gbs
    atoms 3-8, 12-17 entry H          line    22 file /theoryfs2/ds/metcalf/miniconda2/envs/tf2gpu/share/psi4/basis/cc-pvdz.gbs
    atoms 11         entry S          line   598 file /theoryfs2/ds/metcalf/miniconda2/envs/tf2gpu/share/psi4/basis/cc-pvdz.gbs

         ---------------------------------------------------------
                                   SCF
               by Justin Turney, Rob Parrish, Andy Simmonett
                          and Daniel G. A. Smith
                              RHF Reference
                        1 Threads,    500 MiB Core
         ---------------------------------------------------------

  ==> Geometry <==

    Molecular point group: c1
    Full point group: C1

    Geometry (in Angstrom), charge = 0, multiplicity = 1:

       Center              X                  Y                   Z               Mass
    ------------   -----------------  -----------------  -----------------  -----------------
         C            1.110630908278     2.221028231990     2.192407048995    12.000000000000
         C            2.549630908278     1.972028231990     1.784407048995    12.000000000000
         H            0.959630908278     3.281028231990     2.400407048995     1.007825032230
         H            0.434630908278     1.932028231990     1.390407048995     1.007825032230
         H            0.862630908278     1.638028231990     3.079407048995     1.007825032230
         H            2.688630908278     0.895028231990     1.699407048995     1.007825032230
         H            3.260560908278     2.370408231990     2.523237048995     1.007825032230
         H            2.775280908278     2.418338231990     0.804667048995     1.007825032230
         C            0.147630908278    -0.269971768010    -0.219592951005    12.000000000000
         C           -2.386369091722    -1.058971768010    -0.926592951005    12.000000000000
         S           -0.650369091722    -1.371971768010    -1.357592951005    31.972071174400
         H           -0.032369091722    -0.587971768010     0.806407048995     1.007825032230
         H            1.221630908278    -0.277971768010    -0.403592951005     1.007825032230
         H           -0.234369091722     0.739028231990    -0.367592951005     1.007825032230
         H           -3.002369091722    -1.553971768010    -1.673592951005     1.007825032230
         H           -2.582369091722     0.012028231990    -0.965592951005     1.007825032230
         H           -2.645159091722    -1.444301768010     0.070677048995     1.007825032230

  Running in c1 symmetry.

  Rotational constants: A =      0.26521  B =      0.02891  C =      0.02660 [cm^-1]
  Rotational constants: A =   7950.66759  B =    866.65627  C =    797.35506 [MHz]
  Nuclear repulsion =  219.232917386615071

  Charge       = 0
  Multiplicity = 1
  Electrons    = 52
  Nalpha       = 26
  Nbeta        = 26

  ==> Algorithm <==

  SCF Algorithm Type is PK.
  DIIS enabled.
  MOM disabled.
  Fractional occupation disabled.
  Guess Type is SAD.
  Energy threshold   = 1.00e-06
  Density threshold  = 1.00e-10
  Integral threshold = 0.00e+00

  ==> Primary Basis <==

  Basis Set: CC-PVDZ
    Blend: CC-PVDZ
    Number of shells: 68
    Number of basis function: 134
    Number of Cartesian functions: 139
    Spherical Harmonics?: true
    Max angular momentum: 2

  ==> Pre-Iterations <==

   -------------------------------------------------------
    Irrep   Nso     Nmo     Nalpha   Nbeta   Ndocc  Nsocc
   -------------------------------------------------------
     A        134     134       0       0       0       0
   -------------------------------------------------------
    Total     134     134      26      26      26       0
   -------------------------------------------------------

  ==> Integral Setup <==

  Using integral reordering PK algorithm.
  Sizing the integral batches needed.
  Building batch lookup table.
   Calculation information:
      Number of atoms:                  17
      Number of AO shells:              68
      Number of primitives:            198
      Number of atomic orbitals:       139
      Number of basis functions:       134

      Integral cutoff                 1.00e-12
      Number of threads:                 1

	Batch   1 pq = [       0,    9045] index = [             0,40910535] size =     40910535
  Task number: 4
  Buffer size: 11059200
  Buffer per thread: 2
  We computed 2174005 shell quartets total.
  Whereas there are 2753031 unique shell quartets.

  ==> DiskJK: Disk-Based J/K Matrices <==

    J tasked:                  Yes
    K tasked:                  Yes
    wK tasked:                  No
    Memory [MiB]:              375
    Schwarz Cutoff:          1E-12

    OpenMP threads:              1

  Minimum eigenvalue in the overlap matrix is 7.6634011615E-03.
  Using Symmetric Orthogonalization.

  SCF Guess: Superposition of Atomic Densities via on-the-fly atomic UHF.

  ==> Iterations <==

                        Total Energy        Delta E     RMS |[F,P]|

   @RHF iter SAD:  -554.95600691517234   -5.54956e+02   0.00000e+00
   @RHF iter   1:  -555.84405029604966   -8.88043e-01   3.39733e-03 DIIS
   @RHF iter   2:  -555.96871993360446   -1.24670e-01   1.35598e-03 DIIS
   @RHF iter   3:  -555.98715591834650   -1.84360e-02   3.17099e-04 DIIS
   @RHF iter   4:  -555.98904145106599   -1.88553e-03   4.76747e-05 DIIS
   @RHF iter   5:  -555.98907955688662   -3.81058e-05   1.07899e-05 DIIS
   @RHF iter   6:  -555.98908156696461   -2.01008e-06   2.57940e-06 DIIS
   @RHF iter   7:  -555.98908168055561   -1.13591e-07   7.13793e-07 DIIS
   @RHF iter   8:  -555.98908168986316   -9.30754e-09   1.80263e-07 DIIS
   @RHF iter   9:  -555.98908169074048   -8.77321e-10   5.35629e-08 DIIS
   @RHF iter  10:  -555.98908169081926   -7.87850e-11   1.33360e-08 DIIS
   @RHF iter  11:  -555.98908169082290   -3.63798e-12   3.16416e-09 DIIS
   @RHF iter  12:  -555.98908169082301   -1.13687e-13   1.15003e-09 DIIS
   @RHF iter  13:  -555.98908169082404   -1.02318e-12   4.69620e-10 DIIS
   @RHF iter  14:  -555.98908169082392    1.13687e-13   1.35967e-10 DIIS
   @RHF iter  15:  -555.98908169082324    6.82121e-13   3.02601e-11 DIIS
  Energy and wave function converged.

  ==> Post-Iterations <==

    Orbital Energies [Eh]
    ---------------------

    Doubly Occupied:

       1A    -91.934558     2A    -11.257270     3A    -11.253191
       4A    -11.222076     5A    -11.219656     6A     -8.938661
       7A     -6.620753     8A     -6.619157     9A     -6.616883
      10A     -1.065491    11A     -1.025097    12A     -0.952389
      13A     -0.840854    14A     -0.805022    15A     -0.607587
      16A     -0.604512    17A     -0.602177    18A     -0.599561
      19A     -0.575061    20A     -0.562364    21A     -0.509759
      22A     -0.496779    23A     -0.487920    24A     -0.486937
      25A     -0.427640    26A     -0.331112

    Virtual:

      27A      0.163897    28A      0.182046    29A      0.208152
      30A      0.220205    31A      0.224545    32A      0.245937
      33A      0.251239    34A      0.255777    35A      0.264560
      36A      0.273429    37A      0.282291    38A      0.301628
      39A      0.308144    40A      0.351905    41A      0.401604
      42A      0.509479    43A      0.555138    44A      0.566456
      45A      0.597412    46A      0.599946    47A      0.609171
      48A      0.635360    49A      0.664007    50A      0.682479
      51A      0.706667    52A      0.727352    53A      0.742112
      54A      0.796827    55A      0.804757    56A      0.822379
      57A      0.839498    58A      0.853884    59A      0.866496
      60A      0.875964    61A      0.881062    62A      0.891177
      63A      0.895344    64A      0.897910    65A      0.902042
      66A      0.912840    67A      0.925150    68A      0.937539
      69A      0.948531    70A      0.967199    71A      0.988005
      72A      1.006562    73A      1.118303    74A      1.134784
      75A      1.173423    76A      1.255936    77A      1.268083
      78A      1.301134    79A      1.323249    80A      1.372501
      81A      1.401655    82A      1.466260    83A      1.470182
      84A      1.477114    85A      1.487232    86A      1.567215
      87A      1.664862    88A      1.671901    89A      1.683697
      90A      1.694774    91A      1.847718    92A      1.867063
      93A      1.874053    94A      1.887515    95A      1.893454
      96A      1.909897    97A      1.916161    98A      1.938164
      99A      1.943683   100A      1.948559   101A      1.953223
     102A      1.969399   103A      1.980161   104A      2.000249
     105A      2.002199   106A      2.017929   107A      2.062132
     108A      2.091723   109A      2.111251   110A      2.136621
     111A      2.220977   112A      2.245525   113A      2.313589
     114A      2.316020   115A      2.403873   116A      2.437301
     117A      2.438241   118A      2.450021   119A      2.463145
     120A      2.470325   121A      2.561771   122A      2.583085
     123A      2.730293   124A      2.757396   125A      2.759356
     126A      2.766749   127A      2.783683   128A      2.794617
     129A      2.811216   130A      2.830380   131A      2.857377
     132A      2.867239   133A      2.953000   134A      2.970059

    Final Occupation by Irrep:
              A
    DOCC [    26 ]

  @RHF Final Energy:  -555.98908169082324

   => Energetics <=

    Nuclear Repulsion Energy =            219.2329173866150711
    One-Electron Energy =               -1197.1190634686240628
    Two-Electron Energy =                 421.8970643911856655
    Total Energy =                       -555.9890816908232409

Computation Completed

Properties will be evaluated at   0.000000,   0.000000,   0.000000 [a0]

Properties computed using the SCF density matrix

  Nuclear Dipole Moment: [e a0]
     X:     3.4574      Y:     8.7964      Z:     8.7429

  Electronic Dipole Moment: [e a0]
     X:    -3.7164      Y:    -8.3865      Z:    -8.3033

  Dipole Moment: [e a0]
     X:    -0.2589      Y:     0.4099      Z:     0.4395     Total:     0.6544

  Dipole Moment: [D]
     X:    -0.6581      Y:     1.0418      Z:     1.1172     Total:     1.6633

*** tstop() called on ds3 at Tue Apr 28 10:52:38 2020
Module time:
	user time   =      15.83 seconds =       0.26 minutes
	system time =       5.31 seconds =       0.09 minutes
	total time  =         21 seconds =       0.35 minutes
Total time:
	user time   =      15.83 seconds =       0.26 minutes
	system time =       5.31 seconds =       0.09 minutes
	total time  =         21 seconds =       0.35 minutes
                                     G D M A

                                 by Anthony Stone

                           version 2.2.06, 22 June 2011

               Distributed Multipoles from Gaussian wavefunctions

Starting at 10:52:38 on 28 Apr 2020

Using SCF density matrix from file ./SSI/SSI-115VAL-122MET-1-dimer.test.19390.fchk

                         Distributed Multipole Analysis

Standard DMA

Positions and radii in angstrom
Multipole moments in atomic units, ea_0^k for rank k

C          x =  1.110631  y =  2.221028  z =  2.192407 angstrom
           Maximum rank =  0   Radius =  0.650 angstrom
                   Q00  =  -0.236129

C          x =  2.549631  y =  1.972028  z =  1.784407 angstrom
           Maximum rank =  0   Radius =  0.650 angstrom
                   Q00  =  -0.235917

H          x =  0.959631  y =  3.281028  z =  2.400407 angstrom
           Maximum rank =  0   Radius =  0.325 angstrom
                   Q00  =   0.078411

H          x =  0.434631  y =  1.932028  z =  1.390407 angstrom
           Maximum rank =  0   Radius =  0.325 angstrom
                   Q00  =   0.078085

H          x =  0.862631  y =  1.638028  z =  3.079407 angstrom
           Maximum rank =  0   Radius =  0.325 angstrom
                   Q00  =   0.078522

H          x =  2.688631  y =  0.895028  z =  1.699407 angstrom
           Maximum rank =  0   Radius =  0.325 angstrom
                   Q00  =   0.074039

H          x =  3.260561  y =  2.370408  z =  2.523237 angstrom
           Maximum rank =  0   Radius =  0.325 angstrom
                   Q00  =   0.082265

H          x =  2.775281  y =  2.418338  z =  0.804667 angstrom
           Maximum rank =  0   Radius =  0.325 angstrom
                   Q00  =   0.077851

C          x =  0.147631  y = -0.269972  z = -0.219593 angstrom
           Maximum rank =  0   Radius =  0.650 angstrom
                   Q00  =  -0.351242

C          x = -2.386369  y = -1.058972  z = -0.926593 angstrom
           Maximum rank =  0   Radius =  0.650 angstrom
                   Q00  =  -0.364739

S          x = -0.650369  y = -1.371972  z = -1.357593 angstrom
           Maximum rank =  0   Radius =  0.650 angstrom
                   Q00  =   0.135642

H          x = -0.032369  y = -0.587972  z =  0.806407 angstrom
           Maximum rank =  0   Radius =  0.325 angstrom
                   Q00  =   0.082525

H          x =  1.221631  y = -0.277972  z = -0.403593 angstrom
           Maximum rank =  0   Radius =  0.325 angstrom
                   Q00  =   0.121192

H          x = -0.234369  y =  0.739028  z = -0.367593 angstrom
           Maximum rank =  0   Radius =  0.325 angstrom
                   Q00  =   0.079860

H          x = -3.002369  y = -1.553972  z = -1.673593 angstrom
           Maximum rank =  0   Radius =  0.325 angstrom
                   Q00  =   0.121202

H          x = -2.582369  y =  0.012028  z = -0.965593 angstrom
           Maximum rank =  0   Radius =  0.325 angstrom
                   Q00  =   0.087730

H          x = -2.645159  y = -1.444302  z =  0.070677 angstrom
           Maximum rank =  0   Radius =  0.325 angstrom
                   Q00  =   0.090703

Total multipoles referred to origin at
           x =   0.000000,  y =    0.000000,  z =    0.000000 angstrom
                   Q00  =  -0.000000

Finished at 10:52:38 on 28 Apr 2020

  DMA results are available in the Python driver through the
	  variable('DMA DISTRIBUTED MULTIPOLES')
  and
	  variable('DMA TOTAL MULTIPOLES')
  commands.

    Psi4 stopped on: Tuesday, 28 April 2020 10:52AM
    Psi4 wall time for execution: 0:00:21.28

*** Psi4 exiting successfully. Buy a developer a beer!
