                               Psi4 1.3.2 release

  ==> Input File <==

--------------------------------------------------------------------------
import numpy as np
set {scf_type pk
basis cc-pvdz
d_convergence 10
gdma_switch   0
gdma_limit    0
gdma_origin   [ 0.0,  0.0,  0.0 ]
}
molecule test {
    units Angstrom
    0 1
    --
    0 1
    C               -1.938868033289437     3.338957868126312    -0.232924767377722
    C               -1.203868033289437     0.990957868126312    -0.531924767377722
    N               -1.253868033289437    -0.129042131873687    -1.221924767377722
    N               -1.918868033289437     2.039957868126313    -0.916924767377722
    N               -0.435868033289437     1.051957868126313     0.538075232622278
    H               -1.899868033289437    -0.238042131873687    -1.989924767377722
    H               -0.658868033289437    -0.907042131873687    -0.935924767377722
    H               -2.518868033289438     1.926957868126313    -1.722924767377722
    H               -0.589868033289437     1.780957868126313     1.223075232622278
    H                0.115131966710563     0.235957868126313     0.819075232622278
    H               -1.937868033289437     3.202957868126312     0.850075232622278
    H               -2.858868033289438     3.868957868126313    -0.486924767377722
    H               -1.077288033289437     3.956436868126312    -0.526854767377722
    C                2.786131966710563    -2.705042131873688     0.888075232622278
    C                1.633131966710563    -1.766042131873687     0.563075232622278
    O                1.063131966710563    -1.876042131873688    -0.542924767377722
    O                1.280131966710563    -0.924042131873687     1.419075232622278
    H                3.064131966710562    -3.284042131873687     0.006075232622278
    H                2.445131966710563    -3.412042131873688     1.647075232622278
    H                3.667611966710562    -2.178022631873687     1.282085232622278

}
e, wfn = energy('scf', return_wfn=True)
gdma(wfn)
dmavals = variable('DMA DISTRIBUTED MULTIPOLES')
charges = np.array(dmavals)
print(charges)
np.save('SSI-143ARG-187ASP-1-dimer.npy', np.array(charges))--------------------------------------------------------------------------

*** tstart() called on ds3
*** at Tue Apr 28 01:14:50 2020

   => Loading Basis Set <=

    Name: CC-PVDZ
    Role: ORBITAL
    Keyword: BASIS
    atoms 1-2, 14-15  entry C          line   138 file /theoryfs2/ds/metcalf/miniconda2/envs/tf2gpu/share/psi4/basis/cc-pvdz.gbs
    atoms 3-5         entry N          line   168 file /theoryfs2/ds/metcalf/miniconda2/envs/tf2gpu/share/psi4/basis/cc-pvdz.gbs
    atoms 6-13, 18-20 entry H          line    22 file /theoryfs2/ds/metcalf/miniconda2/envs/tf2gpu/share/psi4/basis/cc-pvdz.gbs
    atoms 16-17       entry O          line   198 file /theoryfs2/ds/metcalf/miniconda2/envs/tf2gpu/share/psi4/basis/cc-pvdz.gbs

         ---------------------------------------------------------
                                   SCF
               by Justin Turney, Rob Parrish, Andy Simmonett
                          and Daniel G. A. Smith
                              RHF Reference
                        1 Threads,    500 MiB Core
         ---------------------------------------------------------

  ==> Geometry <==

    Molecular point group: c1
    Full point group: C1

    Geometry (in Angstrom), charge = 0, multiplicity = 1:

       Center              X                  Y                   Z               Mass
    ------------   -----------------  -----------------  -----------------  -----------------
         C           -1.938868033289     3.338957868126    -0.232924767378    12.000000000000
         C           -1.203868033289     0.990957868126    -0.531924767378    12.000000000000
         N           -1.253868033289    -0.129042131874    -1.221924767378    14.003074004430
         N           -1.918868033289     2.039957868126    -0.916924767378    14.003074004430
         N           -0.435868033289     1.051957868126     0.538075232622    14.003074004430
         H           -1.899868033289    -0.238042131874    -1.989924767378     1.007825032230
         H           -0.658868033289    -0.907042131874    -0.935924767378     1.007825032230
         H           -2.518868033289     1.926957868126    -1.722924767378     1.007825032230
         H           -0.589868033289     1.780957868126     1.223075232622     1.007825032230
         H            0.115131966711     0.235957868126     0.819075232622     1.007825032230
         H           -1.937868033289     3.202957868126     0.850075232622     1.007825032230
         H           -2.858868033289     3.868957868126    -0.486924767378     1.007825032230
         H           -1.077288033289     3.956436868126    -0.526854767378     1.007825032230
         C            2.786131966711    -2.705042131874     0.888075232622    12.000000000000
         C            1.633131966711    -1.766042131874     0.563075232622    12.000000000000
         O            1.063131966711    -1.876042131874    -0.542924767378    15.994914619570
         O            1.280131966711    -0.924042131874     1.419075232622    15.994914619570
         H            3.064131966711    -3.284042131874     0.006075232622     1.007825032230
         H            2.445131966711    -3.412042131874     1.647075232622     1.007825032230
         H            3.667611966711    -2.178022631874     1.282085232622     1.007825032230

  Running in c1 symmetry.

  Rotational constants: A =      0.14565  B =      0.01977  C =      0.01775 [cm^-1]
  Rotational constants: A =   4366.52876  B =    592.74166  C =    532.02236 [MHz]
  Nuclear repulsion =  457.959544233340182

  Charge       = 0
  Multiplicity = 1
  Electrons    = 72
  Nalpha       = 36
  Nbeta        = 36

  ==> Algorithm <==

  SCF Algorithm Type is PK.
  DIIS enabled.
  MOM disabled.
  Fractional occupation disabled.
  Guess Type is SAD.
  Energy threshold   = 1.00e-06
  Density threshold  = 1.00e-10
  Integral threshold = 0.00e+00

  ==> Primary Basis <==

  Basis Set: CC-PVDZ
    Blend: CC-PVDZ
    Number of shells: 87
    Number of basis function: 181
    Number of Cartesian functions: 190
    Spherical Harmonics?: true
    Max angular momentum: 2

  ==> Pre-Iterations <==

   -------------------------------------------------------
    Irrep   Nso     Nmo     Nalpha   Nbeta   Ndocc  Nsocc
   -------------------------------------------------------
     A        181     181       0       0       0       0
   -------------------------------------------------------
    Total     181     181      36      36      36       0
   -------------------------------------------------------

  ==> Integral Setup <==

  Using integral reordering PK algorithm.
  Sizing the integral batches needed.
  Building batch lookup table.
   Calculation information:
      Number of atoms:                  20
      Number of AO shells:              87
      Number of primitives:            253
      Number of atomic orbitals:       190
      Number of basis functions:       181

      Integral cutoff                 1.00e-12
      Number of threads:                 1

	Batch   1 pq = [       0,    9405] index = [             0,44231715] size =     44231715
	Batch   2 pq = [    9405,   13301] index = [      44231715,88464951] size =     44233236
	Batch   3 pq = [   13301,   16471] index = [      88464951,135655156] size =     47190205
  Task number: 13
  Buffer size: 11059200
  Buffer per thread: 2
  We computed 5663939 shell quartets total.
  Whereas there are 7328706 unique shell quartets.

  ==> DiskJK: Disk-Based J/K Matrices <==

    J tasked:                  Yes
    K tasked:                  Yes
    wK tasked:                  No
    Memory [MiB]:              375
    Schwarz Cutoff:          1E-12

    OpenMP threads:              1

  Minimum eigenvalue in the overlap matrix is 3.8358666944E-03.
  Using Symmetric Orthogonalization.

  SCF Guess: Superposition of Atomic Densities via on-the-fly atomic UHF.

  ==> Iterations <==

                        Total Energy        Delta E     RMS |[F,P]|

   @RHF iter SAD:  -469.73200783468468   -4.69732e+02   0.00000e+00
   @RHF iter   1:  -470.72717666663425   -9.95169e-01   4.19291e-03 DIIS
   @RHF iter   2:  -470.94826316841699   -2.21087e-01   2.16156e-03 DIIS
   @RHF iter   3:  -471.00410177210983   -5.58386e-02   3.85831e-04 DIIS
   @RHF iter   4:  -471.00723960809910   -3.13784e-03   1.30504e-04 DIIS
   @RHF iter   5:  -471.00759281530935   -3.53207e-04   2.36350e-05 DIIS
   @RHF iter   6:  -471.00760958989844   -1.67746e-05   8.67662e-06 DIIS
   @RHF iter   7:  -471.00761113662782   -1.54673e-06   2.62967e-06 DIIS
   @RHF iter   8:  -471.00761133819958   -2.01572e-07   1.05658e-06 DIIS
   @RHF iter   9:  -471.00761136347006   -2.52705e-08   2.97980e-07 DIIS
   @RHF iter  10:  -471.00761136649788   -3.02782e-09   8.56873e-08 DIIS
   @RHF iter  11:  -471.00761136682763   -3.29749e-10   2.96892e-08 DIIS
   @RHF iter  12:  -471.00761136686401   -3.63798e-11   1.42956e-08 DIIS
   @RHF iter  13:  -471.00761136687288   -8.86757e-12   4.40107e-09 DIIS
   @RHF iter  14:  -471.00761136687311   -2.27374e-13   1.30778e-09 DIIS
   @RHF iter  15:  -471.00761136687549   -2.38742e-12   4.53125e-10 DIIS
   @RHF iter  16:  -471.00761136687373    1.76215e-12   1.43227e-10 DIIS
   @RHF iter  17:  -471.00761136687299    7.38964e-13   6.02787e-11 DIIS
  Energy and wave function converged.

  ==> Post-Iterations <==

    Orbital Energies [Eh]
    ---------------------

    Doubly Occupied:

       1A    -20.425489     2A    -20.425405     3A    -15.645939
       4A    -15.611955     5A    -15.598266     6A    -11.424407
       7A    -11.326985     8A    -11.272689     9A    -11.172099
      10A     -1.383985    11A     -1.317137    12A     -1.249109
      13A     -1.215243    14A     -1.199745    15A     -1.010969
      16A     -0.923148    17A     -0.877104    18A     -0.816045
      19A     -0.771881    20A     -0.698961    21A     -0.688990
      22A     -0.674094    23A     -0.659781    24A     -0.636423
      25A     -0.604538    26A     -0.602916    27A     -0.559687
      28A     -0.549436    29A     -0.540020    30A     -0.482903
      31A     -0.454667    32A     -0.443927    33A     -0.436334
      34A     -0.345790    35A     -0.336942    36A     -0.330235

    Virtual:

      37A      0.126469    38A      0.150558    39A      0.177351
      40A      0.183821    41A      0.221895    42A      0.230383
      43A      0.248345    44A      0.268612    45A      0.275607
      46A      0.292186    47A      0.312821    48A      0.342884
      49A      0.350914    50A      0.399498    51A      0.435616
      52A      0.452008    53A      0.486492    54A      0.499501
      55A      0.566110    56A      0.586845    57A      0.591016
      58A      0.606040    59A      0.647285    60A      0.677119
      61A      0.689073    62A      0.702664    63A      0.710813
      64A      0.721531    65A      0.730972    66A      0.759328
      67A      0.796696    68A      0.805297    69A      0.815587
      70A      0.823941    71A      0.839410    72A      0.849029
      73A      0.880799    74A      0.900524    75A      0.912012
      76A      0.919893    77A      0.920485    78A      0.959773
      79A      0.964344    80A      0.976049    81A      0.986577
      82A      0.997502    83A      1.046598    84A      1.054438
      85A      1.082376    86A      1.101174    87A      1.107111
      88A      1.140435    89A      1.186492    90A      1.216437
      91A      1.242194    92A      1.258912    93A      1.276993
      94A      1.296377    95A      1.312980    96A      1.353076
      97A      1.363788    98A      1.385153    99A      1.412513
     100A      1.437011   101A      1.465223   102A      1.495338
     103A      1.518900   104A      1.533962   105A      1.580469
     106A      1.584814   107A      1.610881   108A      1.636668
     109A      1.656360   110A      1.668377   111A      1.695013
     112A      1.709284   113A      1.730028   114A      1.737355
     115A      1.780024   116A      1.838437   117A      1.852671
     118A      1.865494   119A      1.899287   120A      1.908999
     121A      1.913296   122A      1.925389   123A      1.943112
     124A      1.952858   125A      1.965845   126A      1.977030
     127A      1.978647   128A      1.986282   129A      2.053622
     130A      2.079880   131A      2.088211   132A      2.139040
     133A      2.144786   134A      2.157136   135A      2.195557
     136A      2.222351   137A      2.256643   138A      2.269935
     139A      2.277130   140A      2.322475   141A      2.340263
     142A      2.388862   143A      2.414751   144A      2.429914
     145A      2.476355   146A      2.482248   147A      2.512574
     148A      2.527152   149A      2.574868   150A      2.603772
     151A      2.615219   152A      2.652399   153A      2.653503
     154A      2.693098   155A      2.707329   156A      2.739877
     157A      2.797657   158A      2.801431   159A      2.837072
     160A      2.861692   161A      2.882486   162A      2.901627
     163A      2.944593   164A      2.986706   165A      3.006425
     166A      3.020744   167A      3.082346   168A      3.130438
     169A      3.162975   170A      3.182082   171A      3.232464
     172A      3.281506   173A      3.421104   174A      3.479350
     175A      3.633069   176A      3.666420   177A      3.734670
     178A      3.825828   179A      3.917505   180A      3.933195
     181A      4.074022

    Final Occupation by Irrep:
              A
    DOCC [    36 ]

  @RHF Final Energy:  -471.00761136687299

   => Energetics <=

    Nuclear Repulsion Energy =            457.9595442333401820
    One-Electron Energy =               -1552.5078252404039176
    Two-Electron Energy =                 623.5406696401906856
    Total Energy =                       -471.0076113668729931

Computation Completed

Properties will be evaluated at   0.000000,   0.000000,   0.000000 [a0]

Properties computed using the SCF density matrix

  Nuclear Dipole Moment: [e a0]
     X:    -2.0871      Y:     4.6213      Z:     0.1635

  Electronic Dipole Moment: [e a0]
     X:    -1.1998      Y:    -1.3664      Z:    -1.3326

  Dipole Moment: [e a0]
     X:    -3.2869      Y:     3.2548      Z:    -1.1692     Total:     4.7712

  Dipole Moment: [D]
     X:    -8.3545      Y:     8.2729      Z:    -2.9717     Total:    12.1272

*** tstop() called on ds3 at Tue Apr 28 01:15:49 2020
Module time:
	user time   =      41.11 seconds =       0.69 minutes
	system time =      19.66 seconds =       0.33 minutes
	total time  =         59 seconds =       0.98 minutes
Total time:
	user time   =      41.11 seconds =       0.69 minutes
	system time =      19.66 seconds =       0.33 minutes
	total time  =         59 seconds =       0.98 minutes
                                     G D M A

                                 by Anthony Stone

                           version 2.2.06, 22 June 2011

               Distributed Multipoles from Gaussian wavefunctions

Starting at 1:15:49 on 28 Apr 2020

Using SCF density matrix from file ./SSI/SSI-143ARG-187ASP-1-dimer.test.6986.fchk

                         Distributed Multipole Analysis

Standard DMA

Positions and radii in angstrom
Multipole moments in atomic units, ea_0^k for rank k

C          x = -1.938868  y =  3.338958  z = -0.232925 angstrom
           Maximum rank =  0   Radius =  0.650 angstrom
                   Q00  =  -0.104759

C          x = -1.203868  y =  0.990958  z = -0.531925 angstrom
           Maximum rank =  0   Radius =  0.650 angstrom
                   Q00  =   1.068376

N          x = -1.253868  y = -0.129042  z = -1.221925 angstrom
           Maximum rank =  0   Radius =  0.650 angstrom
                   Q00  =  -0.588735

N          x = -1.918868  y =  2.039958  z = -0.916925 angstrom
           Maximum rank =  0   Radius =  0.650 angstrom
                   Q00  =  -0.504244

N          x = -0.435868  y =  1.051958  z =  0.538075 angstrom
           Maximum rank =  0   Radius =  0.650 angstrom
                   Q00  =  -0.604514

H          x = -1.899868  y = -0.238042  z = -1.989925 angstrom
           Maximum rank =  0   Radius =  0.325 angstrom
                   Q00  =   0.223948

H          x = -0.658868  y = -0.907042  z = -0.935925 angstrom
           Maximum rank =  0   Radius =  0.325 angstrom
                   Q00  =   0.307172

H          x = -2.518868  y =  1.926958  z = -1.722925 angstrom
           Maximum rank =  0   Radius =  0.325 angstrom
                   Q00  =   0.205335

H          x = -0.589868  y =  1.780958  z =  1.223075 angstrom
           Maximum rank =  0   Radius =  0.325 angstrom
                   Q00  =   0.225058

H          x =  0.115132  y =  0.235958  z =  0.819075 angstrom
           Maximum rank =  0   Radius =  0.325 angstrom
                   Q00  =   0.366428

H          x = -1.937868  y =  3.202958  z =  0.850075 angstrom
           Maximum rank =  0   Radius =  0.325 angstrom
                   Q00  =   0.102266

H          x = -2.858868  y =  3.868958  z = -0.486925 angstrom
           Maximum rank =  0   Radius =  0.325 angstrom
                   Q00  =   0.129858

H          x = -1.077288  y =  3.956437  z = -0.526855 angstrom
           Maximum rank =  0   Radius =  0.325 angstrom
                   Q00  =   0.114453

C          x =  2.786132  y = -2.705042  z =  0.888075 angstrom
           Maximum rank =  0   Radius =  0.650 angstrom
                   Q00  =  -0.252712

C          x =  1.633132  y = -1.766042  z =  0.563075 angstrom
           Maximum rank =  0   Radius =  0.650 angstrom
                   Q00  =   0.877675

O          x =  1.063132  y = -1.876042  z = -0.542925 angstrom
           Maximum rank =  0   Radius =  0.650 angstrom
                   Q00  =  -0.906056

O          x =  1.280132  y = -0.924042  z =  1.419075 angstrom
           Maximum rank =  0   Radius =  0.650 angstrom
                   Q00  =  -0.934494

H          x =  3.064132  y = -3.284042  z =  0.006075 angstrom
           Maximum rank =  0   Radius =  0.325 angstrom
                   Q00  =   0.081066

H          x =  2.445132  y = -3.412042  z =  1.647075 angstrom
           Maximum rank =  0   Radius =  0.325 angstrom
                   Q00  =   0.101410

H          x =  3.667612  y = -2.178023  z =  1.282085 angstrom
           Maximum rank =  0   Radius =  0.325 angstrom
                   Q00  =   0.092469

Total multipoles referred to origin at
           x =   0.000000,  y =    0.000000,  z =    0.000000 angstrom
                   Q00  =  -0.000000

Finished at 1:15:49 on 28 Apr 2020

  DMA results are available in the Python driver through the
	  variable('DMA DISTRIBUTED MULTIPOLES')
  and
	  variable('DMA TOTAL MULTIPOLES')
  commands.

    Psi4 stopped on: Tuesday, 28 April 2020 01:15AM
    Psi4 wall time for execution: 0:00:59.15

*** Psi4 exiting successfully. Buy a developer a beer!
