                               Psi4 1.3.2 release

  ==> Input File <==

--------------------------------------------------------------------------
import numpy as np
set {scf_type pk
basis cc-pvdz
d_convergence 10
gdma_switch   0
gdma_limit    0
gdma_origin   [ 0.0,  0.0,  0.0 ]
}
molecule test {
    units Angstrom
    0 1
    --
    0 1
    C               -1.182463566864223    -1.157695717904784     0.215820191813125
    C               -1.574463566864223    -0.968695717904784     1.677820191813125
    C               -0.381463566864223    -2.432695717904784    -0.012179808186875
    H               -2.091463566864223    -1.199695717904784    -0.387179808186875
    H               -0.596463566864223    -0.303695717904784    -0.116179808186875
    H               -2.171463566864223    -1.841695717904784     1.963820191813125
    H                0.536536433135777    -2.409695717904783     0.574820191813125
    H               -1.014463566864223    -3.248695717904783     0.337820191813125
    H               -2.175258566864223    -0.053847717904784     1.787814301813125
    H               -0.690940566864223    -0.924627717904784     2.331612891813125
    H               -0.112268566864223    -2.597085717904784    -1.065987808186875
    C                1.077536433135777     1.646304282095216    -1.109179808186875
    C                1.988536433135777     2.833304282095217    -0.751179808186875
    H                0.058536433135777     1.843304282095217    -0.789179808186875
    H                1.073536433135777     1.499304282095216    -2.190179808186875
    H                1.446536433135777     0.743304282095216    -0.625179808186875
    H                1.522536433135777     3.733304282095216    -1.152179808186875
    H                2.113999433135777     2.977407282095216     0.332099191813125
    H                2.961716433135777     2.728753282095216    -1.253165808186875

}
e, wfn = energy('scf', return_wfn=True)
gdma(wfn)
dmavals = variable('DMA DISTRIBUTED MULTIPOLES')
charges = np.array(dmavals)
print(charges)
np.save('SSI-003LYS-055LEU-1-dimer.npy', np.array(charges))--------------------------------------------------------------------------

*** tstart() called on ds3
*** at Mon Apr 27 23:26:24 2020

   => Loading Basis Set <=

    Name: CC-PVDZ
    Role: ORBITAL
    Keyword: BASIS
    atoms 1-3, 12-13  entry C          line   138 file /theoryfs2/ds/metcalf/miniconda2/envs/tf2gpu/share/psi4/basis/cc-pvdz.gbs
    atoms 4-11, 14-19 entry H          line    22 file /theoryfs2/ds/metcalf/miniconda2/envs/tf2gpu/share/psi4/basis/cc-pvdz.gbs

         ---------------------------------------------------------
                                   SCF
               by Justin Turney, Rob Parrish, Andy Simmonett
                          and Daniel G. A. Smith
                              RHF Reference
                        1 Threads,    500 MiB Core
         ---------------------------------------------------------

  ==> Geometry <==

    Molecular point group: c1
    Full point group: C1

    Geometry (in Angstrom), charge = 0, multiplicity = 1:

       Center              X                  Y                   Z               Mass
    ------------   -----------------  -----------------  -----------------  -----------------
         C           -1.182463566864    -1.157695717905     0.215820191813    12.000000000000
         C           -1.574463566864    -0.968695717905     1.677820191813    12.000000000000
         C           -0.381463566864    -2.432695717905    -0.012179808187    12.000000000000
         H           -2.091463566864    -1.199695717905    -0.387179808187     1.007825032230
         H           -0.596463566864    -0.303695717905    -0.116179808187     1.007825032230
         H           -2.171463566864    -1.841695717905     1.963820191813     1.007825032230
         H            0.536536433136    -2.409695717905     0.574820191813     1.007825032230
         H           -1.014463566864    -3.248695717905     0.337820191813     1.007825032230
         H           -2.175258566864    -0.053847717905     1.787814301813     1.007825032230
         H           -0.690940566864    -0.924627717905     2.331612891813     1.007825032230
         H           -0.112268566864    -2.597085717905    -1.065987808187     1.007825032230
         C            1.077536433136     1.646304282095    -1.109179808187    12.000000000000
         C            1.988536433136     2.833304282095    -0.751179808187    12.000000000000
         H            0.058536433136     1.843304282095    -0.789179808187     1.007825032230
         H            1.073536433136     1.499304282095    -2.190179808187     1.007825032230
         H            1.446536433136     0.743304282095    -0.625179808187     1.007825032230
         H            1.522536433136     3.733304282095    -1.152179808187     1.007825032230
         H            2.113999433136     2.977407282095     0.332099191813     1.007825032230
         H            2.961716433136     2.728753282095    -1.253165808187     1.007825032230

  Running in c1 symmetry.

  Rotational constants: A =      0.22248  B =      0.03689  C =      0.03365 [cm^-1]
  Rotational constants: A =   6669.82815  B =   1105.91891  C =   1008.68121 [MHz]
  Nuclear repulsion =  175.864274118498770

  Charge       = 0
  Multiplicity = 1
  Electrons    = 44
  Nalpha       = 22
  Nbeta        = 22

  ==> Algorithm <==

  SCF Algorithm Type is PK.
  DIIS enabled.
  MOM disabled.
  Fractional occupation disabled.
  Guess Type is SAD.
  Energy threshold   = 1.00e-06
  Density threshold  = 1.00e-10
  Integral threshold = 0.00e+00

  ==> Primary Basis <==

  Basis Set: CC-PVDZ
    Blend: CC-PVDZ
    Number of shells: 72
    Number of basis function: 140
    Number of Cartesian functions: 145
    Spherical Harmonics?: true
    Max angular momentum: 2

  ==> Pre-Iterations <==

   -------------------------------------------------------
    Irrep   Nso     Nmo     Nalpha   Nbeta   Ndocc  Nsocc
   -------------------------------------------------------
     A        140     140       0       0       0       0
   -------------------------------------------------------
    Total     140     140      22      22      22       0
   -------------------------------------------------------

  ==> Integral Setup <==

  Using integral reordering PK algorithm.
  Sizing the integral batches needed.
  Building batch lookup table.
   Calculation information:
      Number of atoms:                  19
      Number of AO shells:              72
      Number of primitives:            180
      Number of atomic orbitals:       145
      Number of basis functions:       140

      Integral cutoff                 1.00e-12
      Number of threads:                 1

	Batch   1 pq = [       0,    9405] index = [             0,44231715] size =     44231715
	Batch   2 pq = [    9405,    9870] index = [      44231715,48713385] size =      4481670
  Task number: 5
  Buffer size: 11059200
  Buffer per thread: 2
  We computed 2719550 shell quartets total.
  Whereas there are 3454506 unique shell quartets.

  ==> DiskJK: Disk-Based J/K Matrices <==

    J tasked:                  Yes
    K tasked:                  Yes
    wK tasked:                  No
    Memory [MiB]:              375
    Schwarz Cutoff:          1E-12

    OpenMP threads:              1

  Minimum eigenvalue in the overlap matrix is 5.4589622428E-03.
  Using Symmetric Orthogonalization.

  SCF Guess: Superposition of Atomic Densities via on-the-fly atomic UHF.

  ==> Iterations <==

                        Total Energy        Delta E     RMS |[F,P]|

   @RHF iter SAD:  -196.36667281575828   -1.96367e+02   0.00000e+00
   @RHF iter   1:  -197.31167309407041   -9.45000e-01   3.79589e-03 DIIS
   @RHF iter   2:  -197.47125184914771   -1.59579e-01   1.63752e-03 DIIS
   @RHF iter   3:  -197.49957485374318   -2.83230e-02   3.26551e-04 DIIS
   @RHF iter   4:  -197.50180549248267   -2.23064e-03   4.91856e-05 DIIS
   @RHF iter   5:  -197.50184562900827   -4.01365e-05   1.50224e-05 DIIS
   @RHF iter   6:  -197.50184912885649   -3.49985e-06   2.55175e-06 DIIS
   @RHF iter   7:  -197.50184924793496   -1.19078e-07   4.91909e-07 DIIS
   @RHF iter   8:  -197.50184925321543   -5.28047e-09   1.27197e-07 DIIS
   @RHF iter   9:  -197.50184925354964   -3.34211e-10   4.11742e-08 DIIS
   @RHF iter  10:  -197.50184925358909   -3.94493e-11   8.63753e-09 DIIS
   @RHF iter  11:  -197.50184925358985   -7.67386e-13   1.58244e-09 DIIS
   @RHF iter  12:  -197.50184925359108   -1.22213e-12   2.82299e-10 DIIS
   @RHF iter  13:  -197.50184925359071    3.69482e-13   5.69000e-11 DIIS
  Energy and wave function converged.

  ==> Post-Iterations <==

    Orbital Energies [Eh]
    ---------------------

    Doubly Occupied:

       1A    -11.220560     2A    -11.218676     3A    -11.217485
       4A    -11.215677     5A    -11.214612     6A     -1.054499
       7A     -1.016987     8A     -0.922147     9A     -0.840018
      10A     -0.794038    11A     -0.628188    12A     -0.598527
      13A     -0.596995    14A     -0.595680    15A     -0.545384
      16A     -0.529332    17A     -0.502514    18A     -0.491334
      19A     -0.484910    20A     -0.472603    21A     -0.468953
      22A     -0.460117

    Virtual:

      23A      0.170919    24A      0.194875    25A      0.216946
      26A      0.227692    27A      0.233562    28A      0.251308
      29A      0.259583    30A      0.261514    31A      0.276001
      32A      0.283470    33A      0.296392    34A      0.299787
      35A      0.310741    36A      0.336070    37A      0.374799
      38A      0.406410    39A      0.428777    40A      0.576403
      41A      0.585317    42A      0.595739    43A      0.609069
      44A      0.615236    45A      0.621240    46A      0.627907
      47A      0.665103    48A      0.681426    49A      0.741528
      50A      0.806238    51A      0.812862    52A      0.853077
      53A      0.867559    54A      0.880322    55A      0.884771
      56A      0.890990    57A      0.892148    58A      0.896026
      59A      0.899944    60A      0.903626    61A      0.910193
      62A      0.913033    63A      0.919184    64A      0.939364
      65A      0.945436    66A      0.971736    67A      0.981946
      68A      1.021507    69A      1.117502    70A      1.127419
      71A      1.132605    72A      1.158328    73A      1.226839
      74A      1.320950    75A      1.370824    76A      1.458602
      77A      1.474855    78A      1.478841    79A      1.499993
      80A      1.542786    81A      1.572483    82A      1.625081
      83A      1.675405    84A      1.681866    85A      1.689059
      86A      1.690567    87A      1.697965    88A      1.844209
      89A      1.863329    90A      1.873930    91A      1.877623
      92A      1.880996    93A      1.904234    94A      1.909192
      95A      1.927959    96A      1.935958    97A      1.941718
      98A      1.949582    99A      1.953169   100A      1.962240
     101A      1.966538   102A      1.972596   103A      1.991923
     104A      2.001078   105A      2.021158   106A      2.025790
     107A      2.054657   108A      2.086932   109A      2.129468
     110A      2.132304   111A      2.164692   112A      2.286073
     113A      2.300673   114A      2.305720   115A      2.319214
     116A      2.323848   117A      2.335627   118A      2.438943
     119A      2.482942   120A      2.502839   121A      2.529282
     122A      2.560361   123A      2.578235   124A      2.586274
     125A      2.618984   126A      2.629689   127A      2.748939
     128A      2.756403   129A      2.766078   130A      2.786307
     131A      2.791355   132A      2.811571   133A      2.842496
     134A      2.863041   135A      2.920376   136A      2.943575
     137A      2.958065   138A      2.961187   139A      2.974672
     140A      3.103639

    Final Occupation by Irrep:
              A
    DOCC [    22 ]

  @RHF Final Energy:  -197.50184925359071

   => Energetics <=

    Nuclear Repulsion Energy =            175.8642741184987699
    One-Electron Energy =                -612.5537704966008050
    Two-Electron Energy =                 239.1876471245113294
    Total Energy =                       -197.5018492535907058

Computation Completed

Properties will be evaluated at   0.000000,   0.000000,   0.000000 [a0]

Properties computed using the SCF density matrix

  Nuclear Dipole Moment: [e a0]
     X:     0.8072      Y:     0.8872      Z:    -0.2355

  Electronic Dipole Moment: [e a0]
     X:    -0.8085      Y:    -0.8362      Z:     0.1879

  Dipole Moment: [e a0]
     X:    -0.0013      Y:     0.0510      Z:    -0.0476     Total:     0.0698

  Dipole Moment: [D]
     X:    -0.0033      Y:     0.1297      Z:    -0.1211     Total:     0.1774

*** tstop() called on ds3 at Mon Apr 27 23:26:46 2020
Module time:
	user time   =      15.07 seconds =       0.25 minutes
	system time =       7.49 seconds =       0.12 minutes
	total time  =         22 seconds =       0.37 minutes
Total time:
	user time   =      15.07 seconds =       0.25 minutes
	system time =       7.49 seconds =       0.12 minutes
	total time  =         22 seconds =       0.37 minutes
                                     G D M A

                                 by Anthony Stone

                           version 2.2.06, 22 June 2011

               Distributed Multipoles from Gaussian wavefunctions

Starting at 23:26:46 on 27 Apr 2020

Using SCF density matrix from file ./SSI/SSI-003LYS-055LEU-1-dimer.test.2817.fchk

                         Distributed Multipole Analysis

Standard DMA

Positions and radii in angstrom
Multipole moments in atomic units, ea_0^k for rank k

C          x = -1.182464  y = -1.157696  z =  0.215820 angstrom
           Maximum rank =  0   Radius =  0.650 angstrom
                   Q00  =  -0.089162

C          x = -1.574464  y = -0.968696  z =  1.677820 angstrom
           Maximum rank =  0   Radius =  0.650 angstrom
                   Q00  =  -0.244042

C          x = -0.381464  y = -2.432696  z = -0.012180 angstrom
           Maximum rank =  0   Radius =  0.650 angstrom
                   Q00  =  -0.232883

H          x = -2.091464  y = -1.199696  z = -0.387180 angstrom
           Maximum rank =  0   Radius =  0.325 angstrom
                   Q00  =   0.044400

H          x = -0.596464  y = -0.303696  z = -0.116180 angstrom
           Maximum rank =  0   Radius =  0.325 angstrom
                   Q00  =   0.055788

H          x = -2.171464  y = -1.841696  z =  1.963820 angstrom
           Maximum rank =  0   Radius =  0.325 angstrom
                   Q00  =   0.072693

H          x =  0.536536  y = -2.409696  z =  0.574820 angstrom
           Maximum rank =  0   Radius =  0.325 angstrom
                   Q00  =   0.074776

H          x = -1.014464  y = -3.248696  z =  0.337820 angstrom
           Maximum rank =  0   Radius =  0.325 angstrom
                   Q00  =   0.071309

H          x = -2.175259  y = -0.053848  z =  1.787814 angstrom
           Maximum rank =  0   Radius =  0.325 angstrom
                   Q00  =   0.084268

H          x = -0.690941  y = -0.924628  z =  2.331613 angstrom
           Maximum rank =  0   Radius =  0.325 angstrom
                   Q00  =   0.076587

H          x = -0.112269  y = -2.597086  z = -1.065988 angstrom
           Maximum rank =  0   Radius =  0.325 angstrom
                   Q00  =   0.085371

C          x =  1.077536  y =  1.646304  z = -1.109180 angstrom
           Maximum rank =  0   Radius =  0.650 angstrom
                   Q00  =  -0.240207

C          x =  1.988536  y =  2.833304  z = -0.751180 angstrom
           Maximum rank =  0   Radius =  0.650 angstrom
                   Q00  =  -0.239102

H          x =  0.058536  y =  1.843304  z = -0.789180 angstrom
           Maximum rank =  0   Radius =  0.325 angstrom
                   Q00  =   0.079259

H          x =  1.073536  y =  1.499304  z = -2.190180 angstrom
           Maximum rank =  0   Radius =  0.325 angstrom
                   Q00  =   0.083532

H          x =  1.446536  y =  0.743304  z = -0.625180 angstrom
           Maximum rank =  0   Radius =  0.325 angstrom
                   Q00  =   0.077214

H          x =  1.522536  y =  3.733304  z = -1.152180 angstrom
           Maximum rank =  0   Radius =  0.325 angstrom
                   Q00  =   0.076620

H          x =  2.113999  y =  2.977407  z =  0.332099 angstrom
           Maximum rank =  0   Radius =  0.325 angstrom
                   Q00  =   0.083006

H          x =  2.961716  y =  2.728753  z = -1.253166 angstrom
           Maximum rank =  0   Radius =  0.325 angstrom
                   Q00  =   0.080572

Total multipoles referred to origin at
           x =   0.000000,  y =    0.000000,  z =    0.000000 angstrom
                   Q00  =  -0.000000

Finished at 23:26:46 on 27 Apr 2020

  DMA results are available in the Python driver through the
	  variable('DMA DISTRIBUTED MULTIPOLES')
  and
	  variable('DMA TOTAL MULTIPOLES')
  commands.

    Psi4 stopped on: Monday, 27 April 2020 11:26PM
    Psi4 wall time for execution: 0:00:21.95

*** Psi4 exiting successfully. Buy a developer a beer!
