                               Psi4 1.3.2 release

  ==> Input File <==

--------------------------------------------------------------------------
import numpy as np
set {scf_type pk
basis cc-pvdz
d_convergence 10
gdma_switch   0
gdma_limit    0
gdma_origin   [ 0.0,  0.0,  0.0 ]
}
molecule test {
    units Angstrom
    0 1
    --
    0 1
    C                1.330640856104603    -1.906213226421487     2.653969113151130
    C                0.169640856104603    -1.000213226421487     2.302969113151130
    O               -0.976359143895397    -1.484213226421487     2.310969113151130
    O                0.420640856104603     0.188786773578513     2.004969113151130
    H                1.952640856104603    -1.443213226421487     3.422969113151130
    H                1.941640856104603    -2.015213226421487     1.756969113151130
    H                0.991790856104603    -2.899023226421487     2.984909113151129
    C                0.717640856104603    -0.469213226421487    -1.273030886848870
    C                1.138640856104603    -1.618213226421487    -2.187030886848870
    C               -0.682359143895397     1.556786773578513    -1.466030886848870
    N                0.114640856104603     0.647786773578513    -2.011030886848870
    N               -0.984359143895397     1.510786773578513    -0.181030886848870
    N               -1.177359143895397     2.526786773578513    -2.209030886848871
    H               -0.010359143895397    -0.860213226421487    -0.559030886848870
    H                1.591640856104603    -0.115213226421487    -0.723030886848870
    H                2.025640856104603    -1.320213226421487    -2.745030886848870
    H                0.332640856104603    -1.836213226421487    -2.889030886848870
    H                0.339640856104603     0.740786773578513    -2.993030886848870
    H               -0.541359143895397     0.838786773578513     0.448969113151130
    H               -1.564359143895397     2.236786773578513     0.217969113151130
    H               -1.026359143895397     2.516786773578513    -3.210030886848870
    H               -1.954359143895397     3.055786773578514    -1.842030886848870
    H                1.342330856104603    -2.515753226421487    -1.584590886848870

}
e, wfn = energy('scf', return_wfn=True)
gdma(wfn)
dmavals = variable('DMA DISTRIBUTED MULTIPOLES')
charges = np.array(dmavals)
print(charges)
np.save('SSI-083ASP-136ARG-1-dimer.npy', np.array(charges))--------------------------------------------------------------------------

*** tstart() called on ds3
*** at Sun Apr 26 18:50:36 2020

   => Loading Basis Set <=

    Name: CC-PVDZ
    Role: ORBITAL
    Keyword: BASIS
    atoms 1-2, 8-10  entry C          line   138 file /theoryfs2/ds/metcalf/miniconda2/envs/tf2gpu/share/psi4/basis/cc-pvdz.gbs
    atoms 3-4        entry O          line   198 file /theoryfs2/ds/metcalf/miniconda2/envs/tf2gpu/share/psi4/basis/cc-pvdz.gbs
    atoms 5-7, 14-23 entry H          line    22 file /theoryfs2/ds/metcalf/miniconda2/envs/tf2gpu/share/psi4/basis/cc-pvdz.gbs
    atoms 11-13      entry N          line   168 file /theoryfs2/ds/metcalf/miniconda2/envs/tf2gpu/share/psi4/basis/cc-pvdz.gbs

         ---------------------------------------------------------
                                   SCF
               by Justin Turney, Rob Parrish, Andy Simmonett
                          and Daniel G. A. Smith
                              RHF Reference
                        1 Threads,    500 MiB Core
         ---------------------------------------------------------

  ==> Geometry <==

    Molecular point group: c1
    Full point group: C1

    Geometry (in Angstrom), charge = 0, multiplicity = 1:

       Center              X                  Y                   Z               Mass
    ------------   -----------------  -----------------  -----------------  -----------------
         C            1.330640856105    -1.906213226421     2.653969113151    12.000000000000
         C            0.169640856105    -1.000213226421     2.302969113151    12.000000000000
         O           -0.976359143895    -1.484213226421     2.310969113151    15.994914619570
         O            0.420640856105     0.188786773579     2.004969113151    15.994914619570
         H            1.952640856105    -1.443213226421     3.422969113151     1.007825032230
         H            1.941640856105    -2.015213226421     1.756969113151     1.007825032230
         H            0.991790856105    -2.899023226421     2.984909113151     1.007825032230
         C            0.717640856105    -0.469213226421    -1.273030886849    12.000000000000
         C            1.138640856105    -1.618213226421    -2.187030886849    12.000000000000
         C           -0.682359143895     1.556786773579    -1.466030886849    12.000000000000
         N            0.114640856105     0.647786773579    -2.011030886849    14.003074004430
         N           -0.984359143895     1.510786773579    -0.181030886849    14.003074004430
         N           -1.177359143895     2.526786773579    -2.209030886849    14.003074004430
         H           -0.010359143895    -0.860213226421    -0.559030886849     1.007825032230
         H            1.591640856105    -0.115213226421    -0.723030886849     1.007825032230
         H            2.025640856105    -1.320213226421    -2.745030886849     1.007825032230
         H            0.332640856105    -1.836213226421    -2.889030886849     1.007825032230
         H            0.339640856105     0.740786773579    -2.993030886849     1.007825032230
         H           -0.541359143895     0.838786773579     0.448969113151     1.007825032230
         H           -1.564359143895     2.236786773579     0.217969113151     1.007825032230
         H           -1.026359143895     2.516786773579    -3.210030886849     1.007825032230
         H           -1.954359143895     3.055786773579    -1.842030886849     1.007825032230
         H            1.342330856105    -2.515753226421    -1.584590886849     1.007825032230

  Running in c1 symmetry.

  Rotational constants: A =      0.05603  B =      0.02128  C =      0.01680 [cm^-1]
  Rotational constants: A =   1679.65898  B =    637.99149  C =    503.51465 [MHz]
  Nuclear repulsion =  547.127886123561552

  Charge       = 0
  Multiplicity = 1
  Electrons    = 80
  Nalpha       = 40
  Nbeta        = 40

  ==> Algorithm <==

  SCF Algorithm Type is PK.
  DIIS enabled.
  MOM disabled.
  Fractional occupation disabled.
  Guess Type is SAD.
  Energy threshold   = 1.00e-06
  Density threshold  = 1.00e-10
  Integral threshold = 0.00e+00

  ==> Primary Basis <==

  Basis Set: CC-PVDZ
    Blend: CC-PVDZ
    Number of shells: 99
    Number of basis function: 205
    Number of Cartesian functions: 215
    Spherical Harmonics?: true
    Max angular momentum: 2

  ==> Pre-Iterations <==

   -------------------------------------------------------
    Irrep   Nso     Nmo     Nalpha   Nbeta   Ndocc  Nsocc
   -------------------------------------------------------
     A        205     205       0       0       0       0
   -------------------------------------------------------
    Total     205     205      40      40      40       0
   -------------------------------------------------------

  ==> Integral Setup <==

  Using integral reordering PK algorithm.
  Sizing the integral batches needed.
  Building batch lookup table.
   Calculation information:
      Number of atoms:                  23
      Number of AO shells:              99
      Number of primitives:            285
      Number of atomic orbitals:       215
      Number of basis functions:       205

      Integral cutoff                 1.00e-12
      Number of threads:                 1

	Batch   1 pq = [       0,    9405] index = [             0,44231715] size =     44231715
	Batch   2 pq = [    9405,   13301] index = [      44231715,88464951] size =     44233236
	Batch   3 pq = [   13301,   16290] index = [      88464951,132690195] size =     44225244
	Batch   4 pq = [   16290,   18810] index = [     132690195,176917455] size =     44227260
	Batch   5 pq = [   18810,   21115] index = [     176917455,222932170] size =     46014715
  Task number: 21
  Buffer size: 11059200
  Buffer per thread: 2
  We computed 10170601 shell quartets total.
  Whereas there are 12253725 unique shell quartets.

  ==> DiskJK: Disk-Based J/K Matrices <==

    J tasked:                  Yes
    K tasked:                  Yes
    wK tasked:                  No
    Memory [MiB]:              375
    Schwarz Cutoff:          1E-12

    OpenMP threads:              1

  Minimum eigenvalue in the overlap matrix is 3.6192651020E-03.
  Using Symmetric Orthogonalization.

  SCF Guess: Superposition of Atomic Densities via on-the-fly atomic UHF.

  ==> Iterations <==

                        Total Energy        Delta E     RMS |[F,P]|

   @RHF iter SAD:  -508.69617116500064   -5.08696e+02   0.00000e+00
   @RHF iter   1:  -509.68236307066985   -9.86192e-01   3.93895e-03 DIIS
   @RHF iter   2:  -509.94495971925812   -2.62597e-01   2.03044e-03 DIIS
   @RHF iter   3:  -510.00886240367720   -6.39027e-02   3.71152e-04 DIIS
   @RHF iter   4:  -510.01265076794874   -3.78836e-03   1.32252e-04 DIIS
   @RHF iter   5:  -510.01310353080828   -4.52763e-04   2.52079e-05 DIIS
   @RHF iter   6:  -510.01312769262256   -2.41618e-05   1.24692e-05 DIIS
   @RHF iter   7:  -510.01313155733567   -3.86471e-06   3.22325e-06 DIIS
   @RHF iter   8:  -510.01313214244340   -5.85108e-07   1.57360e-06 DIIS
   @RHF iter   9:  -510.01313224909700   -1.06654e-07   5.51903e-07 DIIS
   @RHF iter  10:  -510.01313226973150   -2.06345e-08   1.98239e-07 DIIS
   @RHF iter  11:  -510.01313227210619   -2.37469e-09   4.97237e-08 DIIS
   @RHF iter  12:  -510.01313227223807   -1.31877e-10   1.72754e-08 DIIS
   @RHF iter  13:  -510.01313227224580   -7.73070e-12   4.93323e-09 DIIS
   @RHF iter  14:  -510.01313227224904   -3.24007e-12   1.09469e-09 DIIS
   @RHF iter  15:  -510.01313227224625    2.78533e-12   4.53006e-10 DIIS
   @RHF iter  16:  -510.01313227224654   -2.84217e-13   2.08870e-10 DIIS
   @RHF iter  17:  -510.01313227224784   -1.30740e-12   9.00821e-11 DIIS
  Energy and wave function converged.

  ==> Post-Iterations <==

    Orbital Energies [Eh]
    ---------------------

    Doubly Occupied:

       1A    -20.402830     2A    -20.390456     3A    -15.666516
       4A    -15.652608     5A    -15.627350     6A    -11.450861
       7A    -11.296831     8A    -11.256086     9A    -11.244510
      10A    -11.158811    11A     -1.410216    12A     -1.288752
      13A     -1.274729    14A     -1.243578    15A     -1.174736
      16A     -1.060074    17A     -0.923348    18A     -0.909999
      19A     -0.881843    20A     -0.837907    21A     -0.800709
      22A     -0.724469    23A     -0.702217    24A     -0.694239
      25A     -0.663411    26A     -0.636030    27A     -0.624257
      28A     -0.570502    29A     -0.546877    30A     -0.536703
      31A     -0.536371    32A     -0.527423    33A     -0.523699
      34A     -0.477359    35A     -0.466352    36A     -0.445447
      37A     -0.432185    38A     -0.320259    39A     -0.304425
      40A     -0.300637

    Virtual:

      41A      0.103742    42A      0.142965    43A      0.158886
      44A      0.162338    45A      0.191148    46A      0.212787
      47A      0.225124    48A      0.231986    49A      0.255679
      50A      0.271336    51A      0.278998    52A      0.309880
      53A      0.317919    54A      0.333033    55A      0.354769
      56A      0.384933    57A      0.403840    58A      0.422949
      59A      0.465587    60A      0.480984    61A      0.489114
      62A      0.556462    63A      0.585472    64A      0.599185
      65A      0.608956    66A      0.628330    67A      0.639879
      68A      0.655262    69A      0.673908    70A      0.684382
      71A      0.691515    72A      0.705612    73A      0.719874
      74A      0.734799    75A      0.760911    76A      0.808578
      77A      0.842658    78A      0.849676    79A      0.856422
      80A      0.861140    81A      0.869098    82A      0.880010
      83A      0.883255    84A      0.895677    85A      0.901262
      86A      0.910059    87A      0.922480    88A      0.935782
      89A      0.944308    90A      0.949158    91A      0.985211
      92A      0.988197    93A      0.999697    94A      1.008483
      95A      1.034194    96A      1.040212    97A      1.064809
      98A      1.094854    99A      1.125338   100A      1.151279
     101A      1.168832   102A      1.215799   103A      1.225510
     104A      1.246996   105A      1.257560   106A      1.279926
     107A      1.301827   108A      1.323396   109A      1.348015
     110A      1.373715   111A      1.408277   112A      1.429406
     113A      1.437052   114A      1.455068   115A      1.478132
     116A      1.494297   117A      1.526775   118A      1.536380
     119A      1.566315   120A      1.598901   121A      1.611117
     122A      1.634045   123A      1.639242   124A      1.661741
     125A      1.683139   126A      1.698158   127A      1.729153
     128A      1.734439   129A      1.753558   130A      1.761482
     131A      1.788165   132A      1.827758   133A      1.854228
     134A      1.861890   135A      1.891695   136A      1.902383
     137A      1.905042   138A      1.929062   139A      1.930778
     140A      1.941954   141A      1.955566   142A      1.967010
     143A      1.980827   144A      1.995317   145A      2.018334
     146A      2.028811   147A      2.045609   148A      2.083490
     149A      2.096321   150A      2.116997   151A      2.132865
     152A      2.151002   153A      2.178142   154A      2.199593
     155A      2.213276   156A      2.230285   157A      2.246480
     158A      2.306809   159A      2.310850   160A      2.331857
     161A      2.355068   162A      2.374440   163A      2.409749
     164A      2.420915   165A      2.441662   166A      2.479370
     167A      2.481236   168A      2.512639   169A      2.535205
     170A      2.552908   171A      2.573273   172A      2.602761
     173A      2.631651   174A      2.651613   175A      2.653617
     176A      2.722269   177A      2.745262   178A      2.761811
     179A      2.767861   180A      2.804689   181A      2.815646
     182A      2.845751   183A      2.862983   184A      2.880068
     185A      2.890086   186A      2.929534   187A      2.957735
     188A      2.972385   189A      3.015398   190A      3.063264
     191A      3.106961   192A      3.138543   193A      3.175171
     194A      3.182358   195A      3.228898   196A      3.246488
     197A      3.305212   198A      3.505626   199A      3.676236
     200A      3.695936   201A      3.707457   202A      3.787999
     203A      3.953220   204A      3.963007   205A      4.080808

    Final Occupation by Irrep:
              A
    DOCC [    40 ]

  @RHF Final Energy:  -510.01313227224784

   => Energetics <=

    Nuclear Repulsion Energy =            547.1278861235615523
    One-Electron Energy =               -1782.3108173574030388
    Two-Electron Energy =                 725.1697989615935285
    Total Energy =                       -510.0131322722478444

Computation Completed

Properties will be evaluated at   0.000000,   0.000000,   0.000000 [a0]

Properties computed using the SCF density matrix

  Nuclear Dipole Moment: [e a0]
     X:     5.0855      Y:    -3.4098      Z:    -7.1981

  Electronic Dipole Moment: [e a0]
     X:    -5.3788      Y:     6.2666      Z:     1.6321

  Dipole Moment: [e a0]
     X:    -0.2934      Y:     2.8567      Z:    -5.5660     Total:     6.2632

  Dipole Moment: [D]
     X:    -0.7457      Y:     7.2611      Z:   -14.1474     Total:    15.9194

*** tstop() called on ds3 at Sun Apr 26 18:52:19 2020
Module time:
	user time   =      72.75 seconds =       1.21 minutes
	system time =      33.12 seconds =       0.55 minutes
	total time  =        103 seconds =       1.72 minutes
Total time:
	user time   =      72.75 seconds =       1.21 minutes
	system time =      33.12 seconds =       0.55 minutes
	total time  =        103 seconds =       1.72 minutes
                                     G D M A

                                 by Anthony Stone

                           version 2.2.06, 22 June 2011

               Distributed Multipoles from Gaussian wavefunctions

Starting at 18:52:19 on 26 Apr 2020

Using SCF density matrix from file ./SSI/SSI-083ASP-136ARG-1-dimer.test.21540.fchk

                         Distributed Multipole Analysis

Standard DMA

Positions and radii in angstrom
Multipole moments in atomic units, ea_0^k for rank k

C          x =  1.330641  y = -1.906213  z =  2.653969 angstrom
           Maximum rank =  0   Radius =  0.650 angstrom
                   Q00  =  -0.263852

C          x =  0.169641  y = -1.000213  z =  2.302969 angstrom
           Maximum rank =  0   Radius =  0.650 angstrom
                   Q00  =   0.910958

O          x = -0.976359  y = -1.484213  z =  2.310969 angstrom
           Maximum rank =  0   Radius =  0.650 angstrom
                   Q00  =  -0.890214

O          x =  0.420641  y =  0.188787  z =  2.004969 angstrom
           Maximum rank =  0   Radius =  0.650 angstrom
                   Q00  =  -0.941564

H          x =  1.952641  y = -1.443213  z =  3.422969 angstrom
           Maximum rank =  0   Radius =  0.325 angstrom
                   Q00  =   0.090563

H          x =  1.941641  y = -2.015213  z =  1.756969 angstrom
           Maximum rank =  0   Radius =  0.325 angstrom
                   Q00  =   0.065020

H          x =  0.991791  y = -2.899023  z =  2.984909 angstrom
           Maximum rank =  0   Radius =  0.325 angstrom
                   Q00  =   0.078066

C          x =  0.717641  y = -0.469213  z = -1.273031 angstrom
           Maximum rank =  0   Radius =  0.650 angstrom
                   Q00  =   0.044014

C          x =  1.138641  y = -1.618213  z = -2.187031 angstrom
           Maximum rank =  0   Radius =  0.650 angstrom
                   Q00  =  -0.228116

C          x = -0.682359  y =  1.556787  z = -1.466031 angstrom
           Maximum rank =  0   Radius =  0.650 angstrom
                   Q00  =   1.073336

N          x =  0.114641  y =  0.647787  z = -2.011031 angstrom
           Maximum rank =  0   Radius =  0.650 angstrom
                   Q00  =  -0.498638

N          x = -0.984359  y =  1.510787  z = -0.181031 angstrom
           Maximum rank =  0   Radius =  0.650 angstrom
                   Q00  =  -0.582508

N          x = -1.177359  y =  2.526787  z = -2.209031 angstrom
           Maximum rank =  0   Radius =  0.650 angstrom
                   Q00  =  -0.582242

H          x = -0.010359  y = -0.860213  z = -0.559031 angstrom
           Maximum rank =  0   Radius =  0.325 angstrom
                   Q00  =   0.098371

H          x =  1.591641  y = -0.115213  z = -0.723031 angstrom
           Maximum rank =  0   Radius =  0.325 angstrom
                   Q00  =   0.098331

H          x =  2.025641  y = -1.320213  z = -2.745031 angstrom
           Maximum rank =  0   Radius =  0.325 angstrom
                   Q00  =   0.082904

H          x =  0.332641  y = -1.836213  z = -2.889031 angstrom
           Maximum rank =  0   Radius =  0.325 angstrom
                   Q00  =   0.078802

H          x =  0.339641  y =  0.740787  z = -2.993031 angstrom
           Maximum rank =  0   Radius =  0.325 angstrom
                   Q00  =   0.198684

H          x = -0.541359  y =  0.838787  z =  0.448969 angstrom
           Maximum rank =  0   Radius =  0.325 angstrom
                   Q00  =   0.311963

H          x = -1.564359  y =  2.236787  z =  0.217969 angstrom
           Maximum rank =  0   Radius =  0.325 angstrom
                   Q00  =   0.242035

H          x = -1.026359  y =  2.516787  z = -3.210031 angstrom
           Maximum rank =  0   Radius =  0.325 angstrom
                   Q00  =   0.236371

H          x = -1.954359  y =  3.055787  z = -1.842031 angstrom
           Maximum rank =  0   Radius =  0.325 angstrom
                   Q00  =   0.242946

H          x =  1.342331  y = -2.515753  z = -1.584591 angstrom
           Maximum rank =  0   Radius =  0.325 angstrom
                   Q00  =   0.134768

Total multipoles referred to origin at
           x =   0.000000,  y =    0.000000,  z =    0.000000 angstrom
                   Q00  =  -0.000000

Finished at 18:52:19 on 26 Apr 2020

  DMA results are available in the Python driver through the
	  variable('DMA DISTRIBUTED MULTIPOLES')
  and
	  variable('DMA TOTAL MULTIPOLES')
  commands.

    Psi4 stopped on: Sunday, 26 April 2020 06:52PM
    Psi4 wall time for execution: 0:01:42.51

*** Psi4 exiting successfully. Buy a developer a beer!
