                               Psi4 1.3.2 release

  ==> Input File <==

--------------------------------------------------------------------------
import numpy as np
set {scf_type pk
basis cc-pvdz
d_convergence 10
gdma_switch   0
gdma_limit    0
gdma_origin   [ 0.0,  0.0,  0.0 ]
}
molecule test {
    units Angstrom
    0 1
    --
    0 1
    C                4.036042659830867    -1.258686194538748    -0.129802137929745
    C                1.742042659830868    -0.360686194538748     0.109197862070255
    N                0.894042659830868     0.629313805461252    -0.069802137929745
    N                2.989042659830867    -0.245686194538748    -0.320802137929745
    N                1.347042659830868    -1.445686194538749     0.750197862070255
    H                1.208042659830868     1.500313805461252    -0.465802137929745
    H               -0.106957340169132     0.425313805461252    -0.011802137929745
    H                3.240042659830868     0.605313805461252    -0.813802137929745
    H                1.973042659830868    -2.222686194538748     0.872197862070255
    H                0.403042659830868    -1.487686194538748     1.117197862070255
    H                4.672042659830867    -1.277686194538748    -1.015802137929745
    H                3.622042659830868    -2.261686194538748    -0.011802137929745
    H                4.651222659830868    -0.998446194538748     0.744167862070255
    C               -2.637957340169133     1.461313805461252     1.098197862070255
    C               -2.762957340169133     0.636313805461251    -0.162802137929745
    O               -1.754957340169132    -0.013686194538748    -0.518802137929745
    O               -3.852957340169133     0.632313805461252    -0.777802137929745
    H               -1.586957340169132     1.561313805461252     1.382197862070254
    H               -3.155957340169133     0.936313805461252     1.902197862070255
    H               -3.078067340169133     2.463663805461251     0.990517862070255

}
e, wfn = energy('scf', return_wfn=True)
gdma(wfn)
dmavals = variable('DMA DISTRIBUTED MULTIPOLES')
charges = np.array(dmavals)
print(charges)
np.save('SSI-089ARG-106ASP-1-dimer.npy', np.array(charges))--------------------------------------------------------------------------

*** tstart() called on ds3
*** at Tue Apr 28 01:27:59 2020

   => Loading Basis Set <=

    Name: CC-PVDZ
    Role: ORBITAL
    Keyword: BASIS
    atoms 1-2, 14-15  entry C          line   138 file /theoryfs2/ds/metcalf/miniconda2/envs/tf2gpu/share/psi4/basis/cc-pvdz.gbs
    atoms 3-5         entry N          line   168 file /theoryfs2/ds/metcalf/miniconda2/envs/tf2gpu/share/psi4/basis/cc-pvdz.gbs
    atoms 6-13, 18-20 entry H          line    22 file /theoryfs2/ds/metcalf/miniconda2/envs/tf2gpu/share/psi4/basis/cc-pvdz.gbs
    atoms 16-17       entry O          line   198 file /theoryfs2/ds/metcalf/miniconda2/envs/tf2gpu/share/psi4/basis/cc-pvdz.gbs

         ---------------------------------------------------------
                                   SCF
               by Justin Turney, Rob Parrish, Andy Simmonett
                          and Daniel G. A. Smith
                              RHF Reference
                        1 Threads,    500 MiB Core
         ---------------------------------------------------------

  ==> Geometry <==

    Molecular point group: c1
    Full point group: C1

    Geometry (in Angstrom), charge = 0, multiplicity = 1:

       Center              X                  Y                   Z               Mass
    ------------   -----------------  -----------------  -----------------  -----------------
         C            4.036042659831    -1.258686194539    -0.129802137930    12.000000000000
         C            1.742042659831    -0.360686194539     0.109197862070    12.000000000000
         N            0.894042659831     0.629313805461    -0.069802137930    14.003074004430
         N            2.989042659831    -0.245686194539    -0.320802137930    14.003074004430
         N            1.347042659831    -1.445686194539     0.750197862070    14.003074004430
         H            1.208042659831     1.500313805461    -0.465802137930     1.007825032230
         H           -0.106957340169     0.425313805461    -0.011802137930     1.007825032230
         H            3.240042659831     0.605313805461    -0.813802137930     1.007825032230
         H            1.973042659831    -2.222686194539     0.872197862070     1.007825032230
         H            0.403042659831    -1.487686194539     1.117197862070     1.007825032230
         H            4.672042659831    -1.277686194539    -1.015802137930     1.007825032230
         H            3.622042659831    -2.261686194539    -0.011802137930     1.007825032230
         H            4.651222659831    -0.998446194539     0.744167862070     1.007825032230
         C           -2.637957340169     1.461313805461     1.098197862070    12.000000000000
         C           -2.762957340169     0.636313805461    -0.162802137930    12.000000000000
         O           -1.754957340169    -0.013686194539    -0.518802137930    15.994914619570
         O           -3.852957340169     0.632313805461    -0.777802137930    15.994914619570
         H           -1.586957340169     1.561313805461     1.382197862070     1.007825032230
         H           -3.155957340169     0.936313805461     1.902197862070     1.007825032230
         H           -3.078067340169     2.463663805461     0.990517862070     1.007825032230

  Running in c1 symmetry.

  Rotational constants: A =      0.15808  B =      0.01587  C =      0.01572 [cm^-1]
  Rotational constants: A =   4739.06895  B =    475.74186  C =    471.22609 [MHz]
  Nuclear repulsion =  445.443955162248415

  Charge       = 0
  Multiplicity = 1
  Electrons    = 72
  Nalpha       = 36
  Nbeta        = 36

  ==> Algorithm <==

  SCF Algorithm Type is PK.
  DIIS enabled.
  MOM disabled.
  Fractional occupation disabled.
  Guess Type is SAD.
  Energy threshold   = 1.00e-06
  Density threshold  = 1.00e-10
  Integral threshold = 0.00e+00

  ==> Primary Basis <==

  Basis Set: CC-PVDZ
    Blend: CC-PVDZ
    Number of shells: 87
    Number of basis function: 181
    Number of Cartesian functions: 190
    Spherical Harmonics?: true
    Max angular momentum: 2

  ==> Pre-Iterations <==

   -------------------------------------------------------
    Irrep   Nso     Nmo     Nalpha   Nbeta   Ndocc  Nsocc
   -------------------------------------------------------
     A        181     181       0       0       0       0
   -------------------------------------------------------
    Total     181     181      36      36      36       0
   -------------------------------------------------------

  ==> Integral Setup <==

  Using integral reordering PK algorithm.
  Sizing the integral batches needed.
  Building batch lookup table.
   Calculation information:
      Number of atoms:                  20
      Number of AO shells:              87
      Number of primitives:            253
      Number of atomic orbitals:       190
      Number of basis functions:       181

      Integral cutoff                 1.00e-12
      Number of threads:                 1

	Batch   1 pq = [       0,    9405] index = [             0,44231715] size =     44231715
	Batch   2 pq = [    9405,   13301] index = [      44231715,88464951] size =     44233236
	Batch   3 pq = [   13301,   16471] index = [      88464951,135655156] size =     47190205
  Task number: 13
  Buffer size: 11059200
  Buffer per thread: 2
  We computed 5523275 shell quartets total.
  Whereas there are 7328706 unique shell quartets.

  ==> DiskJK: Disk-Based J/K Matrices <==

    J tasked:                  Yes
    K tasked:                  Yes
    wK tasked:                  No
    Memory [MiB]:              375
    Schwarz Cutoff:          1E-12

    OpenMP threads:              1

  Minimum eigenvalue in the overlap matrix is 3.6830528539E-03.
  Using Symmetric Orthogonalization.

  SCF Guess: Superposition of Atomic Densities via on-the-fly atomic UHF.

  ==> Iterations <==

                        Total Energy        Delta E     RMS |[F,P]|

   @RHF iter SAD:  -469.72014112842328   -4.69720e+02   0.00000e+00
   @RHF iter   1:  -470.67200552719441   -9.51864e-01   4.26990e-03 DIIS
   @RHF iter   2:  -470.90123412317212   -2.29229e-01   2.26828e-03 DIIS
   @RHF iter   3:  -470.96202135057547   -6.07872e-02   4.07250e-04 DIIS
   @RHF iter   4:  -470.96543843673606   -3.41709e-03   1.50693e-04 DIIS
   @RHF iter   5:  -470.96588833931520   -4.49903e-04   3.05219e-05 DIIS
   @RHF iter   6:  -470.96591420995196   -2.58706e-05   1.56823e-05 DIIS
   @RHF iter   7:  -470.96591934099001   -5.13104e-06   3.97708e-06 DIIS
   @RHF iter   8:  -470.96592011599233   -7.75002e-07   1.83860e-06 DIIS
   @RHF iter   9:  -470.96592024179637   -1.25804e-07   6.57217e-07 DIIS
   @RHF iter  10:  -470.96592026561405   -2.38177e-08   2.11458e-07 DIIS
   @RHF iter  11:  -470.96592026769474   -2.08070e-09   6.32406e-08 DIIS
   @RHF iter  12:  -470.96592026780763   -1.12891e-10   2.07835e-08 DIIS
   @RHF iter  13:  -470.96592026782497   -1.73372e-11   6.05036e-09 DIIS
   @RHF iter  14:  -470.96592026782548   -5.11591e-13   1.92288e-09 DIIS
   @RHF iter  15:  -470.96592026782639   -9.09495e-13   6.46236e-10 DIIS
   @RHF iter  16:  -470.96592026782605    3.41061e-13   2.11640e-10 DIIS
   @RHF iter  17:  -470.96592026782679   -7.38964e-13   6.88214e-11 DIIS
  Energy and wave function converged.

  ==> Post-Iterations <==

    Orbital Energies [Eh]
    ---------------------

    Doubly Occupied:

       1A    -20.410893     2A    -20.383063     3A    -15.670686
       4A    -15.659170     5A    -15.623247     6A    -11.454943
       7A    -11.348417     8A    -11.247080     9A    -11.167637
      10A     -1.414680    11A     -1.287382    12A     -1.278427
      13A     -1.247886    14A     -1.172371    15A     -1.033730
      16A     -0.918152    17A     -0.911797    18A     -0.849665
      19A     -0.796933    20A     -0.732077    21A     -0.723407
      22A     -0.703520    23A     -0.677467    24A     -0.632325
      25A     -0.629316    26A     -0.625104    27A     -0.539263
      28A     -0.532709    29A     -0.531032    30A     -0.482925
      31A     -0.469121    32A     -0.458586    33A     -0.434423
      34A     -0.325290    35A     -0.299733    36A     -0.297135

    Virtual:

      37A      0.107154    38A      0.128176    39A      0.149924
      40A      0.167804    41A      0.189975    42A      0.201664
      43A      0.213971    44A      0.243404    45A      0.254615
      46A      0.278278    47A      0.287213    48A      0.311781
      49A      0.364729    50A      0.391662    51A      0.402269
      52A      0.455722    53A      0.465885    54A      0.482857
      55A      0.536909    56A      0.550087    57A      0.578074
      58A      0.614503    59A      0.627673    60A      0.658061
      61A      0.665968    62A      0.680774    63A      0.700410
      64A      0.701723    65A      0.728684    66A      0.757266
      67A      0.778260    68A      0.790238    69A      0.798625
      70A      0.809374    71A      0.832669    72A      0.850671
      73A      0.852165    74A      0.872910    75A      0.900276
      76A      0.905204    77A      0.921679    78A      0.925195
      79A      0.945058    80A      0.961413    81A      0.980512
      82A      0.993687    83A      1.009801    84A      1.039899
      85A      1.057743    86A      1.090697    87A      1.100870
      88A      1.134385    89A      1.181169    90A      1.210648
      91A      1.224498    92A      1.239238    93A      1.263571
      94A      1.277521    95A      1.307691    96A      1.325770
      97A      1.345988    98A      1.373290    99A      1.412847
     100A      1.440402   101A      1.450960   102A      1.485426
     103A      1.487064   104A      1.515913   105A      1.567257
     106A      1.571321   107A      1.613430   108A      1.620459
     109A      1.640747   110A      1.653807   111A      1.673185
     112A      1.687220   113A      1.723260   114A      1.728613
     115A      1.749294   116A      1.812930   117A      1.821350
     118A      1.828942   119A      1.851561   120A      1.857576
     121A      1.884965   122A      1.904281   123A      1.932126
     124A      1.948226   125A      1.954939   126A      1.976335
     127A      1.982709   128A      1.999981   129A      2.018816
     130A      2.039361   131A      2.087194   132A      2.115132
     133A      2.126536   134A      2.145965   135A      2.150593
     136A      2.231108   137A      2.237711   138A      2.262160
     139A      2.263584   140A      2.296761   141A      2.321244
     142A      2.367868   143A      2.408591   144A      2.444726
     145A      2.457655   146A      2.471170   147A      2.485345
     148A      2.495571   149A      2.549210   150A      2.563345
     151A      2.618240   152A      2.628195   153A      2.646372
     154A      2.672479   155A      2.690701   156A      2.714247
     157A      2.750886   158A      2.810265   159A      2.838198
     160A      2.849436   161A      2.869363   162A      2.873107
     163A      2.907347   164A      2.960155   165A      2.984714
     166A      3.032919   167A      3.102688   168A      3.123565
     169A      3.162499   170A      3.186175   171A      3.222423
     172A      3.261854   173A      3.354815   174A      3.501348
     175A      3.665573   176A      3.705158   177A      3.709575
     178A      3.778439   179A      3.931161   180A      3.973774
     181A      4.059838

    Final Occupation by Irrep:
              A
    DOCC [    36 ]

  @RHF Final Energy:  -470.96592026782679

   => Energetics <=

    Nuclear Repulsion Energy =            445.4439551622484146
    One-Electron Energy =               -1526.8805642118563810
    Two-Electron Energy =                 610.4706887817811776
    Total Energy =                       -470.9659202678268457

Computation Completed

Properties will be evaluated at   0.000000,   0.000000,   0.000000 [a0]

Properties computed using the SCF density matrix

  Nuclear Dipole Moment: [e a0]
     X:    11.0589      Y:    -0.7026      Z:     4.3890

  Electronic Dipole Moment: [e a0]
     X:    -3.6400      Y:    -0.3187      Z:    -2.9742

  Dipole Moment: [e a0]
     X:     7.4190      Y:    -1.0213      Z:     1.4147     Total:     7.6214

  Dipole Moment: [D]
     X:    18.8572      Y:    -2.5960      Z:     3.5959     Total:    19.3717

*** tstop() called on ds3 at Tue Apr 28 01:28:56 2020
Module time:
	user time   =      39.51 seconds =       0.66 minutes
	system time =      18.81 seconds =       0.31 minutes
	total time  =         57 seconds =       0.95 minutes
Total time:
	user time   =      39.51 seconds =       0.66 minutes
	system time =      18.81 seconds =       0.31 minutes
	total time  =         57 seconds =       0.95 minutes
                                     G D M A

                                 by Anthony Stone

                           version 2.2.06, 22 June 2011

               Distributed Multipoles from Gaussian wavefunctions

Starting at 1:28:56 on 28 Apr 2020

Using SCF density matrix from file ./SSI/SSI-089ARG-106ASP-1-dimer.test.8596.fchk

                         Distributed Multipole Analysis

Standard DMA

Positions and radii in angstrom
Multipole moments in atomic units, ea_0^k for rank k

C          x =  4.036043  y = -1.258686  z = -0.129802 angstrom
           Maximum rank =  0   Radius =  0.650 angstrom
                   Q00  =  -0.111433

C          x =  1.742043  y = -0.360686  z =  0.109198 angstrom
           Maximum rank =  0   Radius =  0.650 angstrom
                   Q00  =   1.069826

N          x =  0.894043  y =  0.629314  z = -0.069802 angstrom
           Maximum rank =  0   Radius =  0.650 angstrom
                   Q00  =  -0.595603

N          x =  2.989043  y = -0.245686  z = -0.320802 angstrom
           Maximum rank =  0   Radius =  0.650 angstrom
                   Q00  =  -0.505734

N          x =  1.347043  y = -1.445686  z =  0.750198 angstrom
           Maximum rank =  0   Radius =  0.650 angstrom
                   Q00  =  -0.572409

H          x =  1.208043  y =  1.500314  z = -0.465802 angstrom
           Maximum rank =  0   Radius =  0.325 angstrom
                   Q00  =   0.233478

H          x = -0.106957  y =  0.425314  z = -0.011802 angstrom
           Maximum rank =  0   Radius =  0.325 angstrom
                   Q00  =   0.351695

H          x =  3.240043  y =  0.605314  z = -0.813802 angstrom
           Maximum rank =  0   Radius =  0.325 angstrom
                   Q00  =   0.224240

H          x =  1.973043  y = -2.222686  z =  0.872198 angstrom
           Maximum rank =  0   Radius =  0.325 angstrom
                   Q00  =   0.241488

H          x =  0.403043  y = -1.487686  z =  1.117198 angstrom
           Maximum rank =  0   Radius =  0.325 angstrom
                   Q00  =   0.276574

H          x =  4.672043  y = -1.277686  z = -1.015802 angstrom
           Maximum rank =  0   Radius =  0.325 angstrom
                   Q00  =   0.138093

H          x =  3.622043  y = -2.261686  z = -0.011802 angstrom
           Maximum rank =  0   Radius =  0.325 angstrom
                   Q00  =   0.107483

H          x =  4.651223  y = -0.998446  z =  0.744168 angstrom
           Maximum rank =  0   Radius =  0.325 angstrom
                   Q00  =   0.113304

C          x = -2.637957  y =  1.461314  z =  1.098198 angstrom
           Maximum rank =  0   Radius =  0.650 angstrom
                   Q00  =  -0.281396

C          x = -2.762957  y =  0.636314  z = -0.162802 angstrom
           Maximum rank =  0   Radius =  0.650 angstrom
                   Q00  =   0.913042

O          x = -1.754957  y = -0.013686  z = -0.518802 angstrom
           Maximum rank =  0   Radius =  0.650 angstrom
                   Q00  =  -0.950526

O          x = -3.852957  y =  0.632314  z = -0.777802 angstrom
           Maximum rank =  0   Radius =  0.650 angstrom
                   Q00  =  -0.871286

H          x = -1.586957  y =  1.561314  z =  1.382198 angstrom
           Maximum rank =  0   Radius =  0.325 angstrom
                   Q00  =   0.021433

H          x = -3.155957  y =  0.936314  z =  1.902198 angstrom
           Maximum rank =  0   Radius =  0.325 angstrom
                   Q00  =   0.103286

H          x = -3.078067  y =  2.463664  z =  0.990518 angstrom
           Maximum rank =  0   Radius =  0.325 angstrom
                   Q00  =   0.094447

Total multipoles referred to origin at
           x =   0.000000,  y =    0.000000,  z =    0.000000 angstrom
                   Q00  =  -0.000000

Finished at 1:28:56 on 28 Apr 2020

  DMA results are available in the Python driver through the
	  variable('DMA DISTRIBUTED MULTIPOLES')
  and
	  variable('DMA TOTAL MULTIPOLES')
  commands.

    Psi4 stopped on: Tuesday, 28 April 2020 01:28AM
    Psi4 wall time for execution: 0:00:56.83

*** Psi4 exiting successfully. Buy a developer a beer!
