                               Psi4 1.3.2 release

  ==> Input File <==

--------------------------------------------------------------------------
import numpy as np
set {scf_type pk
basis cc-pvdz
d_convergence 10
gdma_switch   0
gdma_limit    0
gdma_origin   [ 0.0,  0.0,  0.0 ]
}
molecule test {
    units Angstrom
    0 1
    --
    0 1
    C               -1.395608740475738     3.615711791946284    -1.640457616186360
    C               -0.406608740475738     0.188711791946284    -0.424457616186360
    C                0.665391259524262    -0.116288208053716    -1.259457616186360
    C               -1.071608740475738     1.401711791946284    -0.544457616186360
    C               -0.657608740475738     2.329711791946284    -1.489457616186360
    C                1.083391259524262     0.807711791946284    -2.205457616186360
    C                0.414391259524262     2.021711791946284    -2.322457616186360
    H               -0.722608740475738    -0.518288208053716     0.326542383813640
    H                1.183391259524261    -1.061288208053716    -1.156457616186360
    H               -1.891608740475738     1.632711791946284     0.120542383813640
    H                1.934391259524262     0.588711791946284    -2.836457616186360
    H               -0.699608740475738     4.448711791946283    -1.536457616186360
    H               -2.121608740475738     3.707711791946284    -0.830457616186360
    H                0.801391259524262     2.751711791946284    -3.016457616186360
    H               -1.941918740475738     3.681841791946284    -2.592907616186360
    C                1.317391259524262    -1.111288208053716     2.285542383813640
    C               -1.043608740475738    -2.567288208053716     2.647542383813640
    S                0.509391259524262    -2.629288208053716     1.729542383813640
    H                1.710391259524262    -1.239288208053716     3.292542383813640
    H                2.144391259524262    -0.877288208053716     1.614542383813640
    H                0.611391259524262    -0.280288208053716     2.272542383813640
    H               -1.674608740475738    -3.388288208053716     2.304542383813640
    H               -1.546608740475738    -1.629288208053716     2.408542383813640
    H               -0.914848740475738    -2.638988208053716     3.737622383813640

}
e, wfn = energy('scf', return_wfn=True)
gdma(wfn)
dmavals = variable('DMA DISTRIBUTED MULTIPOLES')
charges = np.array(dmavals)
print(charges)
np.save('SSI-034PHE-069MET-1-dimer.npy', np.array(charges))--------------------------------------------------------------------------

*** tstart() called on ds3
*** at Tue Apr 28 00:31:51 2020

   => Loading Basis Set <=

    Name: CC-PVDZ
    Role: ORBITAL
    Keyword: BASIS
    atoms 1-7, 16-17  entry C          line   138 file /theoryfs2/ds/metcalf/miniconda2/envs/tf2gpu/share/psi4/basis/cc-pvdz.gbs
    atoms 8-15, 19-24 entry H          line    22 file /theoryfs2/ds/metcalf/miniconda2/envs/tf2gpu/share/psi4/basis/cc-pvdz.gbs
    atoms 18          entry S          line   598 file /theoryfs2/ds/metcalf/miniconda2/envs/tf2gpu/share/psi4/basis/cc-pvdz.gbs

         ---------------------------------------------------------
                                   SCF
               by Justin Turney, Rob Parrish, Andy Simmonett
                          and Daniel G. A. Smith
                              RHF Reference
                        1 Threads,    500 MiB Core
         ---------------------------------------------------------

  ==> Geometry <==

    Molecular point group: c1
    Full point group: C1

    Geometry (in Angstrom), charge = 0, multiplicity = 1:

       Center              X                  Y                   Z               Mass
    ------------   -----------------  -----------------  -----------------  -----------------
         C           -1.395608740476     3.615711791946    -1.640457616186    12.000000000000
         C           -0.406608740476     0.188711791946    -0.424457616186    12.000000000000
         C            0.665391259524    -0.116288208054    -1.259457616186    12.000000000000
         C           -1.071608740476     1.401711791946    -0.544457616186    12.000000000000
         C           -0.657608740476     2.329711791946    -1.489457616186    12.000000000000
         C            1.083391259524     0.807711791946    -2.205457616186    12.000000000000
         C            0.414391259524     2.021711791946    -2.322457616186    12.000000000000
         H           -0.722608740476    -0.518288208054     0.326542383814     1.007825032230
         H            1.183391259524    -1.061288208054    -1.156457616186     1.007825032230
         H           -1.891608740476     1.632711791946     0.120542383814     1.007825032230
         H            1.934391259524     0.588711791946    -2.836457616186     1.007825032230
         H           -0.699608740476     4.448711791946    -1.536457616186     1.007825032230
         H           -2.121608740476     3.707711791946    -0.830457616186     1.007825032230
         H            0.801391259524     2.751711791946    -3.016457616186     1.007825032230
         H           -1.941918740476     3.681841791946    -2.592907616186     1.007825032230
         C            1.317391259524    -1.111288208054     2.285542383814    12.000000000000
         C           -1.043608740476    -2.567288208054     2.647542383814    12.000000000000
         S            0.509391259524    -2.629288208054     1.729542383814    31.972071174400
         H            1.710391259524    -1.239288208054     3.292542383814     1.007825032230
         H            2.144391259524    -0.877288208054     1.614542383814     1.007825032230
         H            0.611391259524    -0.280288208054     2.272542383814     1.007825032230
         H           -1.674608740476    -3.388288208054     2.304542383814     1.007825032230
         H           -1.546608740476    -1.629288208054     2.408542383814     1.007825032230
         H           -0.914848740476    -2.638988208054     3.737622383814     1.007825032230

  Running in c1 symmetry.

  Rotational constants: A =      0.07658  B =      0.01411  C =      0.01284 [cm^-1]
  Rotational constants: A =   2295.70188  B =    422.94088  C =    385.01487 [MHz]
  Nuclear repulsion =  556.643961603083767

  Charge       = 0
  Multiplicity = 1
  Electrons    = 84
  Nalpha       = 42
  Nbeta        = 42

  ==> Algorithm <==

  SCF Algorithm Type is PK.
  DIIS enabled.
  MOM disabled.
  Fractional occupation disabled.
  Guess Type is SAD.
  Energy threshold   = 1.00e-06
  Density threshold  = 1.00e-10
  Integral threshold = 0.00e+00

  ==> Primary Basis <==

  Basis Set: CC-PVDZ
    Blend: CC-PVDZ
    Number of shells: 104
    Number of basis function: 214
    Number of Cartesian functions: 224
    Spherical Harmonics?: true
    Max angular momentum: 2

  ==> Pre-Iterations <==

   -------------------------------------------------------
    Irrep   Nso     Nmo     Nalpha   Nbeta   Ndocc  Nsocc
   -------------------------------------------------------
     A        214     214       0       0       0       0
   -------------------------------------------------------
    Total     214     214      42      42      42       0
   -------------------------------------------------------

  ==> Integral Setup <==

  Using integral reordering PK algorithm.
  Sizing the integral batches needed.
  Building batch lookup table.
   Calculation information:
      Number of atoms:                  24
      Number of AO shells:             104
      Number of primitives:            318
      Number of atomic orbitals:       224
      Number of basis functions:       214

      Integral cutoff                 1.00e-12
      Number of threads:                 1

	Batch   1 pq = [       0,    9405] index = [             0,44231715] size =     44231715
	Batch   2 pq = [    9405,   13301] index = [      44231715,88464951] size =     44233236
	Batch   3 pq = [   13301,   16290] index = [      88464951,132690195] size =     44225244
	Batch   4 pq = [   16290,   18810] index = [     132690195,176917455] size =     44227260
	Batch   5 pq = [   18810,   21030] index = [     176917455,221140965] size =     44223510
	Batch   6 pq = [   21030,   23005] index = [     221140965,264626515] size =     43485550
  Task number: 24
  Buffer size: 11059200
  Buffer per thread: 2
  We computed 12835789 shell quartets total.
  Whereas there are 14908530 unique shell quartets.

  ==> DiskJK: Disk-Based J/K Matrices <==

    J tasked:                  Yes
    K tasked:                  Yes
    wK tasked:                  No
    Memory [MiB]:              375
    Schwarz Cutoff:          1E-12

    OpenMP threads:              1

  Minimum eigenvalue in the overlap matrix is 3.0179075313E-04.
  Using Symmetric Orthogonalization.

  SCF Guess: Superposition of Atomic Densities via on-the-fly atomic UHF.

  ==> Iterations <==

                        Total Energy        Delta E     RMS |[F,P]|

   @RHF iter SAD:  -745.48750412433094   -7.45488e+02   0.00000e+00
   @RHF iter   1:  -746.30309654283110   -8.15592e-01   2.51627e-03 DIIS
   @RHF iter   2:  -746.48752229048296   -1.84426e-01   9.87828e-04 DIIS
   @RHF iter   3:  -746.51260286990851   -2.50806e-02   2.46677e-04 DIIS
   @RHF iter   4:  -746.51514522379432   -2.54235e-03   5.24236e-05 DIIS
   @RHF iter   5:  -746.51523345787120   -8.82341e-05   1.64544e-05 DIIS
   @RHF iter   6:  -746.51524135370869   -7.89584e-06   4.80276e-06 DIIS
   @RHF iter   7:  -746.51524217518136   -8.21473e-07   1.29777e-06 DIIS
   @RHF iter   8:  -746.51524224543027   -7.02489e-08   3.43906e-07 DIIS
   @RHF iter   9:  -746.51524225441312   -8.98285e-09   1.21547e-07 DIIS
   @RHF iter  10:  -746.51524225579010   -1.37697e-09   5.92639e-08 DIIS
   @RHF iter  11:  -746.51524225614185   -3.51747e-10   2.59025e-08 DIIS
   @RHF iter  12:  -746.51524225623825   -9.64064e-11   1.12718e-08 DIIS
   @RHF iter  13:  -746.51524225625144   -1.31877e-11   5.11819e-09 DIIS
   @RHF iter  14:  -746.51524225625610   -4.66116e-12   1.23544e-09 DIIS
   @RHF iter  15:  -746.51524225625701   -9.09495e-13   3.99436e-10 DIIS
   @RHF iter  16:  -746.51524225625326    3.75167e-12   1.91748e-10 DIIS
   @RHF iter  17:  -746.51524225625656   -3.29692e-12   7.50500e-11 DIIS
  Energy and wave function converged.

  ==> Post-Iterations <==

    Orbital Energies [Eh]
    ---------------------

    Doubly Occupied:

       1A    -91.938861     2A    -11.260365     3A    -11.254910
       4A    -11.236273     5A    -11.232122     6A    -11.229227
       7A    -11.226664     8A    -11.226569     9A    -11.226454
      10A    -11.225833    11A     -8.942441    12A     -6.624539
      13A     -6.622935    14A     -6.620764    15A     -1.152160
      16A     -1.062548    17A     -1.044192    18A     -1.009840
      19A     -0.953207    20A     -0.929209    21A     -0.822431
      22A     -0.807423    23A     -0.793252    24A     -0.688538
      25A     -0.631580    26A     -0.628609    27A     -0.604409
      28A     -0.599090    29A     -0.579083    30A     -0.577670
      31A     -0.575945    32A     -0.563910    33A     -0.559242
      34A     -0.530195    35A     -0.499302    36A     -0.485930
      37A     -0.482810    38A     -0.476902    39A     -0.428373
      40A     -0.334874    41A     -0.330266    42A     -0.318717

    Virtual:

      43A      0.136617    44A      0.144515    45A      0.168928
      46A      0.183194    47A      0.194210    48A      0.211179
      49A      0.215322    50A      0.231631    51A      0.245403
      52A      0.248856    53A      0.259464    54A      0.263282
      55A      0.273448    56A      0.275889    57A      0.284259
      58A      0.300101    59A      0.312893    60A      0.337386
      61A      0.372821    62A      0.381420    63A      0.450354
      64A      0.464901    65A      0.475072    66A      0.503734
      67A      0.508067    68A      0.559893    69A      0.567771
      70A      0.585111    71A      0.602024    72A      0.627325
      73A      0.632104    74A      0.650915    75A      0.686298
      76A      0.693158    77A      0.699625    78A      0.708740
      79A      0.725432    80A      0.740764    81A      0.743476
      82A      0.746718    83A      0.754653    84A      0.762430
      85A      0.768887    86A      0.781580    87A      0.782329
      88A      0.796411    89A      0.805762    90A      0.817341
      91A      0.841349    92A      0.850925    93A      0.863529
      94A      0.869478    95A      0.871727    96A      0.880069
      97A      0.885459    98A      0.888900    99A      0.894781
     100A      0.898637   101A      0.916366   102A      0.921724
     103A      0.929313   104A      0.939824   105A      0.940648
     106A      0.948810   107A      0.967133   108A      0.978131
     109A      1.000881   110A      1.019534   111A      1.069721
     112A      1.076527   113A      1.133190   114A      1.147468
     115A      1.161594   116A      1.182165   117A      1.197313
     118A      1.207492   119A      1.229140   120A      1.246517
     121A      1.255611   122A      1.263321   123A      1.266591
     124A      1.297841   125A      1.307199   126A      1.315846
     127A      1.320623   128A      1.328772   129A      1.355823
     130A      1.373622   131A      1.399903   132A      1.419406
     133A      1.469673   134A      1.497003   135A      1.516733
     136A      1.556144   137A      1.562274   138A      1.625343
     139A      1.672606   140A      1.679121   141A      1.682426
     142A      1.691961   143A      1.741820   144A      1.750768
     145A      1.773470   146A      1.797158   147A      1.825732
     148A      1.863402   149A      1.869901   150A      1.881998
     151A      1.897012   152A      1.899577   153A      1.903685
     154A      1.907148   155A      1.919044   156A      1.922958
     157A      1.936979   158A      1.942841   159A      1.955241
     160A      1.963617   161A      1.978046   162A      1.979854
     163A      1.989733   164A      1.999482   165A      2.015103
     166A      2.021833   167A      2.026912   168A      2.041834
     169A      2.063404   170A      2.069142   171A      2.079275
     172A      2.119722   173A      2.137306   174A      2.173443
     175A      2.175945   176A      2.190567   177A      2.205131
     178A      2.224877   179A      2.239424   180A      2.256521
     181A      2.271580   182A      2.296875   183A      2.312942
     184A      2.339992   185A      2.359722   186A      2.404714
     187A      2.434121   188A      2.440757   189A      2.456067
     190A      2.473430   191A      2.485693   192A      2.529386
     193A      2.542852   194A      2.639696   195A      2.733548
     196A      2.745807   197A      2.757704   198A      2.759726
     199A      2.770794   200A      2.777302   201A      2.786891
     202A      2.798739   203A      2.815769   204A      2.829975
     205A      2.843740   206A      2.850953   207A      2.885478
     208A      2.993845   209A      3.017574   210A      3.034977
     211A      3.166035   212A      3.218485   213A      3.316079
     214A      3.983928

    Final Occupation by Irrep:
              A
    DOCC [    42 ]

  @RHF Final Energy:  -746.51524225625656

   => Energetics <=

    Nuclear Repulsion Energy =            556.6439616030837669
    One-Electron Energy =               -2125.6430754448583684
    Two-Electron Energy =                 822.4838715855179316
    Total Energy =                       -746.5152422562565562

Computation Completed

Properties will be evaluated at   0.000000,   0.000000,   0.000000 [a0]

Properties computed using the SCF density matrix

  Nuclear Dipole Moment: [e a0]
     X:    -2.9190      Y:     4.7852      Z:     3.8970

  Electronic Dipole Moment: [e a0]
     X:     2.6946      Y:    -4.2776      Z:    -3.4467

  Dipole Moment: [e a0]
     X:    -0.2244      Y:     0.5076      Z:     0.4503     Total:     0.7147

  Dipole Moment: [D]
     X:    -0.5704      Y:     1.2902      Z:     1.1445     Total:     1.8166

*** tstop() called on ds3 at Tue Apr 28 00:35:52 2020
Module time:
	user time   =     108.20 seconds =       1.80 minutes
	system time =      36.89 seconds =       0.61 minutes
	total time  =        241 seconds =       4.02 minutes
Total time:
	user time   =     108.20 seconds =       1.80 minutes
	system time =      36.89 seconds =       0.61 minutes
	total time  =        241 seconds =       4.02 minutes
                                     G D M A

                                 by Anthony Stone

                           version 2.2.06, 22 June 2011

               Distributed Multipoles from Gaussian wavefunctions

Starting at 0:35:52 on 28 Apr 2020

Using SCF density matrix from file ./SSI/SSI-034PHE-069MET-1-dimer.test.5387.fchk

                         Distributed Multipole Analysis

Standard DMA

Positions and radii in angstrom
Multipole moments in atomic units, ea_0^k for rank k

C          x = -1.395609  y =  3.615712  z = -1.640458 angstrom
           Maximum rank =  0   Radius =  0.650 angstrom
                   Q00  =  -0.204350

C          x = -0.406609  y =  0.188712  z = -0.424458 angstrom
           Maximum rank =  0   Radius =  0.650 angstrom
                   Q00  =  -0.049448

C          x =  0.665391  y = -0.116288  z = -1.259458 angstrom
           Maximum rank =  0   Radius =  0.650 angstrom
                   Q00  =  -0.081970

C          x = -1.071609  y =  1.401712  z = -0.544458 angstrom
           Maximum rank =  0   Radius =  0.650 angstrom
                   Q00  =  -0.080568

C          x = -0.657609  y =  2.329712  z = -1.489458 angstrom
           Maximum rank =  0   Radius =  0.650 angstrom
                   Q00  =  -0.090749

C          x =  1.083391  y =  0.807712  z = -2.205458 angstrom
           Maximum rank =  0   Radius =  0.650 angstrom
                   Q00  =  -0.077982

C          x =  0.414391  y =  2.021712  z = -2.322458 angstrom
           Maximum rank =  0   Radius =  0.650 angstrom
                   Q00  =  -0.000394

H          x = -0.722609  y = -0.518288  z =  0.326542 angstrom
           Maximum rank =  0   Radius =  0.325 angstrom
                   Q00  =   0.056978

H          x =  1.183391  y = -1.061288  z = -1.156458 angstrom
           Maximum rank =  0   Radius =  0.325 angstrom
                   Q00  =   0.063677

H          x = -1.891609  y =  1.632712  z =  0.120542 angstrom
           Maximum rank =  0   Radius =  0.325 angstrom
                   Q00  =   0.052091

H          x =  1.934391  y =  0.588712  z = -2.836458 angstrom
           Maximum rank =  0   Radius =  0.325 angstrom
                   Q00  =   0.063681

H          x = -0.699609  y =  4.448712  z = -1.536458 angstrom
           Maximum rank =  0   Radius =  0.325 angstrom
                   Q00  =   0.099947

H          x = -2.121609  y =  3.707712  z = -0.830458 angstrom
           Maximum rank =  0   Radius =  0.325 angstrom
                   Q00  =   0.092194

H          x =  0.801391  y =  2.751712  z = -3.016458 angstrom
           Maximum rank =  0   Radius =  0.325 angstrom
                   Q00  =   0.053834

H          x = -1.941919  y =  3.681842  z = -2.592908 angstrom
           Maximum rank =  0   Radius =  0.325 angstrom
                   Q00  =   0.103817

C          x =  1.317391  y = -1.111288  z =  2.285542 angstrom
           Maximum rank =  0   Radius =  0.650 angstrom
                   Q00  =  -0.346072

C          x = -1.043609  y = -2.567288  z =  2.647542 angstrom
           Maximum rank =  0   Radius =  0.650 angstrom
                   Q00  =  -0.358316

S          x =  0.509391  y = -2.629288  z =  1.729542 angstrom
           Maximum rank =  0   Radius =  0.650 angstrom
                   Q00  =   0.100552

H          x =  1.710391  y = -1.239288  z =  3.292542 angstrom
           Maximum rank =  0   Radius =  0.325 angstrom
                   Q00  =   0.092821

H          x =  2.144391  y = -0.877288  z =  1.614542 angstrom
           Maximum rank =  0   Radius =  0.325 angstrom
                   Q00  =   0.123346

H          x =  0.611391  y = -0.280288  z =  2.272542 angstrom
           Maximum rank =  0   Radius =  0.325 angstrom
                   Q00  =   0.090690

H          x = -1.674609  y = -3.388288  z =  2.304542 angstrom
           Maximum rank =  0   Radius =  0.325 angstrom
                   Q00  =   0.123572

H          x = -1.546609  y = -1.629288  z =  2.408542 angstrom
           Maximum rank =  0   Radius =  0.325 angstrom
                   Q00  =   0.079807

H          x = -0.914849  y = -2.638988  z =  3.737622 angstrom
           Maximum rank =  0   Radius =  0.325 angstrom
                   Q00  =   0.092844

Total multipoles referred to origin at
           x =   0.000000,  y =    0.000000,  z =    0.000000 angstrom
                   Q00  =  -0.000000

Finished at 0:35:52 on 28 Apr 2020

  DMA results are available in the Python driver through the
	  variable('DMA DISTRIBUTED MULTIPOLES')
  and
	  variable('DMA TOTAL MULTIPOLES')
  commands.

    Psi4 stopped on: Tuesday, 28 April 2020 12:35AM
    Psi4 wall time for execution: 0:04:00.97

*** Psi4 exiting successfully. Buy a developer a beer!
