                               Psi4 1.3.2 release

  ==> Input File <==

--------------------------------------------------------------------------
import numpy as np
set {scf_type pk
basis cc-pvdz
d_convergence 10
gdma_switch   0
gdma_limit    0
gdma_origin   [ 0.0,  0.0,  0.0 ]
}
molecule test {
    units Angstrom
    0 1
    --
    0 1
    C                0.600072676189851    -1.436134747464165     0.585627943915062
    C                0.155072676189851    -2.892134747464165     0.560627943915062
    H               -0.244927323810149    -0.781134747464165     0.797627943915062
    H                1.344072676189851    -1.329134747464165     1.365627943915062
    H                1.086072676189851    -1.139134747464165    -0.343372056084938
    H                1.006072676189851    -3.510134747464165     0.283627943915062
    H               -0.636661323810149    -3.039814747464165    -0.188602056084938
    H               -0.196920323810149    -3.215454747464165     1.551368943915062
    C                0.268072676189851     2.267865252535835    -0.189372056084938
    C               -1.025927323810149     2.067865252535835    -0.962372056084938
    H                0.617072676189851     3.295865252535835    -0.286372056084938
    H                0.060072676189851     2.038865252535835     0.847627943915062
    H                1.031072676189851     1.581865252535835    -0.558372056084938
    H               -1.380927323810149     1.058865252535835    -0.756372056084938
    H               -0.863973323810149     2.176555252535835    -2.044942036084938
    H               -1.788767323810149     2.773955252535835    -0.602501056084938

}
e, wfn = energy('scf', return_wfn=True)
gdma(wfn)
dmavals = variable('DMA DISTRIBUTED MULTIPOLES')
charges = np.array(dmavals)
print(charges)
np.save('SSI-083VAL-087LEU-1-dimer.npy', np.array(charges))--------------------------------------------------------------------------

*** tstart() called on ds3
*** at Tue Apr 28 20:00:24 2020

   => Loading Basis Set <=

    Name: CC-PVDZ
    Role: ORBITAL
    Keyword: BASIS
    atoms 1-2, 9-10  entry C          line   138 file /theoryfs2/ds/metcalf/miniconda2/envs/tf2gpu/share/psi4/basis/cc-pvdz.gbs
    atoms 3-8, 11-16 entry H          line    22 file /theoryfs2/ds/metcalf/miniconda2/envs/tf2gpu/share/psi4/basis/cc-pvdz.gbs

         ---------------------------------------------------------
                                   SCF
               by Justin Turney, Rob Parrish, Andy Simmonett
                          and Daniel G. A. Smith
                              RHF Reference
                        1 Threads,    500 MiB Core
         ---------------------------------------------------------

  ==> Geometry <==

    Molecular point group: c1
    Full point group: C1

    Geometry (in Angstrom), charge = 0, multiplicity = 1:

       Center              X                  Y                   Z               Mass
    ------------   -----------------  -----------------  -----------------  -----------------
         C            0.600072676190    -1.436134747464     0.585627943915    12.000000000000
         C            0.155072676190    -2.892134747464     0.560627943915    12.000000000000
         H           -0.244927323810    -0.781134747464     0.797627943915     1.007825032230
         H            1.344072676190    -1.329134747464     1.365627943915     1.007825032230
         H            1.086072676190    -1.139134747464    -0.343372056085     1.007825032230
         H            1.006072676190    -3.510134747464     0.283627943915     1.007825032230
         H           -0.636661323810    -3.039814747464    -0.188602056085     1.007825032230
         H           -0.196920323810    -3.215454747464     1.551368943915     1.007825032230
         C            0.268072676190     2.267865252536    -0.189372056085    12.000000000000
         C           -1.025927323810     2.067865252536    -0.962372056085    12.000000000000
         H            0.617072676190     3.295865252536    -0.286372056085     1.007825032230
         H            0.060072676190     2.038865252536     0.847627943915     1.007825032230
         H            1.031072676190     1.581865252536    -0.558372056085     1.007825032230
         H           -1.380927323810     1.058865252536    -0.756372056085     1.007825032230
         H           -0.863973323810     2.176555252536    -2.044942036085     1.007825032230
         H           -1.788767323810     2.773955252536    -0.602501056085     1.007825032230

  Running in c1 symmetry.

  Rotational constants: A =      0.47465  B =      0.05000  C =      0.04685 [cm^-1]
  Rotational constants: A =  14229.62678  B =   1499.10820  C =   1404.62948 [MHz]
  Nuclear repulsion =  122.639235499068789

  Charge       = 0
  Multiplicity = 1
  Electrons    = 36
  Nalpha       = 18
  Nbeta        = 18

  ==> Algorithm <==

  SCF Algorithm Type is PK.
  DIIS enabled.
  MOM disabled.
  Fractional occupation disabled.
  Guess Type is SAD.
  Energy threshold   = 1.00e-06
  Density threshold  = 1.00e-10
  Integral threshold = 0.00e+00

  ==> Primary Basis <==

  Basis Set: CC-PVDZ
    Blend: CC-PVDZ
    Number of shells: 60
    Number of basis function: 116
    Number of Cartesian functions: 120
    Spherical Harmonics?: true
    Max angular momentum: 2

  ==> Pre-Iterations <==

   -------------------------------------------------------
    Irrep   Nso     Nmo     Nalpha   Nbeta   Ndocc  Nsocc
   -------------------------------------------------------
     A        116     116       0       0       0       0
   -------------------------------------------------------
    Total     116     116      18      18      18       0
   -------------------------------------------------------

  ==> Integral Setup <==

  Using integral reordering PK algorithm.
  Sizing the integral batches needed.
  Building batch lookup table.
   Calculation information:
      Number of atoms:                  16
      Number of AO shells:              60
      Number of primitives:            148
      Number of atomic orbitals:       120
      Number of basis functions:       116

      Integral cutoff                 1.00e-12
      Number of threads:                 1

	Batch   1 pq = [       0,    6786] index = [             0,23028291] size =     23028291
  Task number: 3
  Buffer size: 11059200
  Buffer per thread: 2
  We computed 1439637 shell quartets total.
  Whereas there are 1675365 unique shell quartets.

  ==> DiskJK: Disk-Based J/K Matrices <==

    J tasked:                  Yes
    K tasked:                  Yes
    wK tasked:                  No
    Memory [MiB]:              375
    Schwarz Cutoff:          1E-12

    OpenMP threads:              1

  Minimum eigenvalue in the overlap matrix is 6.9357372147E-03.
  Using Symmetric Orthogonalization.

  SCF Guess: Superposition of Atomic Densities via on-the-fly atomic UHF.

  ==> Iterations <==

                        Total Energy        Delta E     RMS |[F,P]|

   @RHF iter SAD:  -157.37780573768762   -1.57378e+02   0.00000e+00
   @RHF iter   1:  -158.30536203937152   -9.27556e-01   4.24497e-03 DIIS
   @RHF iter   2:  -158.44025087930976   -1.34889e-01   1.81347e-03 DIIS
   @RHF iter   3:  -158.46405825028572   -2.38074e-02   3.50540e-04 DIIS
   @RHF iter   4:  -158.46589371068958   -1.83546e-03   3.85353e-05 DIIS
   @RHF iter   5:  -158.46591696506476   -2.32544e-05   6.42632e-06 DIIS
   @RHF iter   6:  -158.46591757775496   -6.12690e-07   1.03776e-06 DIIS
   @RHF iter   7:  -158.46591758836047   -1.06055e-08   3.04951e-07 DIIS
   @RHF iter   8:  -158.46591758916594   -8.05471e-10   3.74603e-08 DIIS
   @RHF iter   9:  -158.46591758918828   -2.23395e-11   6.69670e-09 DIIS
   @RHF iter  10:  -158.46591758918848   -1.98952e-13   1.77970e-09 DIIS
   @RHF iter  11:  -158.46591758918871   -2.27374e-13   4.70589e-10 DIIS
   @RHF iter  12:  -158.46591758918888   -1.70530e-13   1.30409e-10 DIIS
   @RHF iter  13:  -158.46591758918905   -1.70530e-13   2.09732e-11 DIIS
  Energy and wave function converged.

  ==> Post-Iterations <==

    Orbital Energies [Eh]
    ---------------------

    Doubly Occupied:

       1A    -11.219106     2A    -11.217456     3A    -11.216402
       4A    -11.214310     5A     -1.021778     6A     -1.019420
       7A     -0.838374     8A     -0.833617     9A     -0.605016
      10A     -0.600863    11A     -0.597826    12A     -0.594803
      13A     -0.504992    14A     -0.497430    15A     -0.488115
      16A     -0.486342    17A     -0.483145    18A     -0.482482

    Virtual:

      19A      0.170401    20A      0.197544    21A      0.223407
      22A      0.234434    23A      0.242831    24A      0.256817
      25A      0.264627    26A      0.274621    27A      0.277867
      28A      0.291114    29A      0.319485    30A      0.350699
      31A      0.389542    32A      0.406041    33A      0.566865
      34A      0.588822    35A      0.597085    36A      0.607181
      37A      0.607767    38A      0.628309    39A      0.679023
      40A      0.689699    41A      0.701039    42A      0.762245
      43A      0.849300    44A      0.863608    45A      0.886816
      46A      0.890264    47A      0.891511    48A      0.895208
      49A      0.905617    50A      0.907630    51A      0.918706
      52A      0.920345    53A      0.947285    54A      0.955800
      55A      0.973464    56A      0.999929    57A      1.124497
      58A      1.127877    59A      1.129531    60A      1.140117
      61A      1.221867    62A      1.259988    63A      1.470112
      64A      1.475880    65A      1.480531    66A      1.493604
      67A      1.574652    68A      1.584139    69A      1.679630
      70A      1.683075    71A      1.693371    72A      1.698157
      73A      1.847823    74A      1.857989    75A      1.868014
      76A      1.875690    77A      1.898109    78A      1.916652
      79A      1.930391    80A      1.942662    81A      1.944548
      82A      1.949378    83A      1.953541    84A      1.962775
      85A      1.973434    86A      1.977282    87A      1.986862
      88A      2.044291    89A      2.089703    90A      2.115343
      91A      2.122203    92A      2.132783    93A      2.291470
      94A      2.304937    95A      2.312737    96A      2.328670
      97A      2.455650    98A      2.457276    99A      2.463997
     100A      2.470214   101A      2.554009   102A      2.573905
     103A      2.581699   104A      2.583603   105A      2.760261
     106A      2.764792   107A      2.791914   108A      2.808567
     109A      2.848755   110A      2.849830   111A      2.855023
     112A      2.870308   113A      2.948737   114A      2.959041
     115A      2.963384   116A      2.968521

    Final Occupation by Irrep:
              A
    DOCC [    18 ]

  @RHF Final Energy:  -158.46591758918905

   => Energetics <=

    Nuclear Repulsion Energy =            122.6392354990687892
    One-Electron Energy =                -454.3673506971705933
    Two-Electron Energy =                 173.2621976089127713
    Total Energy =                       -158.4659175891890470

Computation Completed

Properties will be evaluated at   0.000000,   0.000000,   0.000000 [a0]

Properties computed using the SCF density matrix

  Nuclear Dipole Moment: [e a0]
     X:     0.0302      Y:    -0.0833      Z:     0.0613

  Electronic Dipole Moment: [e a0]
     X:    -0.0054      Y:     0.0667      Z:    -0.0430

  Dipole Moment: [e a0]
     X:     0.0248      Y:    -0.0166      Z:     0.0182     Total:     0.0350

  Dipole Moment: [D]
     X:     0.0632      Y:    -0.0421      Z:     0.0464     Total:     0.0889

*** tstop() called on ds3 at Tue Apr 28 20:00:35 2020
Module time:
	user time   =       8.35 seconds =       0.14 minutes
	system time =       3.25 seconds =       0.05 minutes
	total time  =         11 seconds =       0.18 minutes
Total time:
	user time   =       8.35 seconds =       0.14 minutes
	system time =       3.25 seconds =       0.05 minutes
	total time  =         11 seconds =       0.18 minutes
                                     G D M A

                                 by Anthony Stone

                           version 2.2.06, 22 June 2011

               Distributed Multipoles from Gaussian wavefunctions

Starting at 20:0:35 on 28 Apr 2020

Using SCF density matrix from file ./SSI/SSI-083VAL-087LEU-1-dimer.test.7881.fchk

                         Distributed Multipole Analysis

Standard DMA

Positions and radii in angstrom
Multipole moments in atomic units, ea_0^k for rank k

C          x =  0.600073  y = -1.436135  z =  0.585628 angstrom
           Maximum rank =  0   Radius =  0.650 angstrom
                   Q00  =  -0.247242

C          x =  0.155073  y = -2.892135  z =  0.560628 angstrom
           Maximum rank =  0   Radius =  0.650 angstrom
                   Q00  =  -0.226293

H          x = -0.244927  y = -0.781135  z =  0.797628 angstrom
           Maximum rank =  0   Radius =  0.325 angstrom
                   Q00  =   0.079711

H          x =  1.344073  y = -1.329135  z =  1.365628 angstrom
           Maximum rank =  0   Radius =  0.325 angstrom
                   Q00  =   0.077369

H          x =  1.086073  y = -1.139135  z = -0.343372 angstrom
           Maximum rank =  0   Radius =  0.325 angstrom
                   Q00  =   0.079819

H          x =  1.006073  y = -3.510135  z =  0.283628 angstrom
           Maximum rank =  0   Radius =  0.325 angstrom
                   Q00  =   0.078549

H          x = -0.636661  y = -3.039815  z = -0.188602 angstrom
           Maximum rank =  0   Radius =  0.325 angstrom
                   Q00  =   0.077507

H          x = -0.196920  y = -3.215455  z =  1.551369 angstrom
           Maximum rank =  0   Radius =  0.325 angstrom
                   Q00  =   0.080053

C          x =  0.268073  y =  2.267865  z = -0.189372 angstrom
           Maximum rank =  0   Radius =  0.650 angstrom
                   Q00  =  -0.230596

C          x = -1.025927  y =  2.067865  z = -0.962372 angstrom
           Maximum rank =  0   Radius =  0.650 angstrom
                   Q00  =  -0.235071

H          x =  0.617073  y =  3.295865  z = -0.286372 angstrom
           Maximum rank =  0   Radius =  0.325 angstrom
                   Q00  =   0.078206

H          x =  0.060073  y =  2.038865  z =  0.847628 angstrom
           Maximum rank =  0   Radius =  0.325 angstrom
                   Q00  =   0.077418

H          x =  1.031073  y =  1.581865  z = -0.558372 angstrom
           Maximum rank =  0   Radius =  0.325 angstrom
                   Q00  =   0.079847

H          x = -1.380927  y =  1.058865  z = -0.756372 angstrom
           Maximum rank =  0   Radius =  0.325 angstrom
                   Q00  =   0.075187

H          x = -0.863973  y =  2.176555  z = -2.044942 angstrom
           Maximum rank =  0   Radius =  0.325 angstrom
                   Q00  =   0.078423

H          x = -1.788767  y =  2.773955  z = -0.602501 angstrom
           Maximum rank =  0   Radius =  0.325 angstrom
                   Q00  =   0.077115

Total multipoles referred to origin at
           x =   0.000000,  y =    0.000000,  z =    0.000000 angstrom
                   Q00  =  -0.000000

Finished at 20:0:35 on 28 Apr 2020

  DMA results are available in the Python driver through the
	  variable('DMA DISTRIBUTED MULTIPOLES')
  and
	  variable('DMA TOTAL MULTIPOLES')
  commands.

    Psi4 stopped on: Tuesday, 28 April 2020 08:00PM
    Psi4 wall time for execution: 0:00:11.21

*** Psi4 exiting successfully. Buy a developer a beer!
