                               Psi4 1.3.2 release

  ==> Input File <==

--------------------------------------------------------------------------
import numpy as np
set {scf_type pk
basis cc-pvdz
d_convergence 10
gdma_switch   0
gdma_limit    0
gdma_origin   [ 0.0,  0.0,  0.0 ]
}
molecule test {
    units Angstrom
    0 1
    --
    0 1
    C                2.859793374012360    -0.277484293026261    -4.726403095977397
    C                0.266793374012360    -1.728484293026262    -1.649403095977396
    C               -0.193206625987640    -1.595484293026262    -2.943403095977396
    C                1.569793374012360    -1.377484293026262    -1.337403095977396
    C                0.649793374012360    -1.122484293026262    -3.940403095977397
    C                2.397793374012359    -0.874484293026261    -2.321403095977396
    C                1.955793374012360    -0.764484293026261    -3.635403095977396
    H               -0.394206625987640    -2.103484293026262    -0.882403095977396
    H               -1.216206625987640    -1.860484293026262    -3.175403095977396
    H                1.925793374012360    -1.463484293026261    -0.320403095977396
    H                0.284793374012360    -1.010484293026261    -4.949403095977397
    H                3.388793374012360    -0.554484293026261    -2.057403095977397
    H                3.603793374012359     0.403515706973739    -4.308403095977397
    H                2.250793374012360     0.299515706973738    -5.425403095977397
    H                3.366603374012359    -1.097114293026261    -5.256833095977396
    C               -1.064206625987640    -0.813484293026261     1.592596904022604
    C               -1.906206625987640    -1.921484293026262     2.235596904022604
    C               -1.093206625987640     0.527515706973739     2.275596904022604
    C                0.101793374012360     1.153515706973738     2.598596904022604
    C               -2.287206625987640     1.209515706973739     2.478596904022603
    C                0.106793374012360     2.414515706973738     3.139596904022603
    C               -2.285206625987641     2.468515706973738     3.046596904022604
    C               -1.083206625987640     3.084515706973738     3.363596904022604
    H               -0.033206625987640    -1.166484293026262     1.556596904022604
    H               -1.387206625987640    -0.676484293026262     0.563596904022604
    H               -1.607206625987640    -2.862484293026262     1.809596904022604
    H                1.041793374012360     0.658515706973739     2.413596904022604
    H               -3.221206625987640     0.765515706973738     2.182596904022604
    H                1.045793374012360     2.892515706973738     3.382596904022604
    H               -3.217206625987640     2.986515706973738     3.220596904022604
    H               -1.072206625987640     4.080515706973738     3.781596904022603
    H               -2.985536625987641    -1.836414293026262     2.041146904022604
    H               -1.725156625987640    -2.012374293026262     3.316776904022603

}
e, wfn = energy('scf', return_wfn=True)
gdma(wfn)
dmavals = variable('DMA DISTRIBUTED MULTIPOLES')
charges = np.array(dmavals)
print(charges)
np.save('SSI-198PHE-217PHE-1-dimer.npy', np.array(charges))--------------------------------------------------------------------------

*** tstart() called on ds3
*** at Mon Apr 27 16:18:43 2020

   => Loading Basis Set <=

    Name: CC-PVDZ
    Role: ORBITAL
    Keyword: BASIS
    atoms 1-7, 16-23  entry C          line   138 file /theoryfs2/ds/metcalf/miniconda2/envs/tf2gpu/share/psi4/basis/cc-pvdz.gbs
    atoms 8-15, 24-33 entry H          line    22 file /theoryfs2/ds/metcalf/miniconda2/envs/tf2gpu/share/psi4/basis/cc-pvdz.gbs

         ---------------------------------------------------------
                                   SCF
               by Justin Turney, Rob Parrish, Andy Simmonett
                          and Daniel G. A. Smith
                              RHF Reference
                        1 Threads,    500 MiB Core
         ---------------------------------------------------------

  ==> Geometry <==

    Molecular point group: c1
    Full point group: C1

    Geometry (in Angstrom), charge = 0, multiplicity = 1:

       Center              X                  Y                   Z               Mass
    ------------   -----------------  -----------------  -----------------  -----------------
         C            2.859793374012    -0.277484293026    -4.726403095977    12.000000000000
         C            0.266793374012    -1.728484293026    -1.649403095977    12.000000000000
         C           -0.193206625988    -1.595484293026    -2.943403095977    12.000000000000
         C            1.569793374012    -1.377484293026    -1.337403095977    12.000000000000
         C            0.649793374012    -1.122484293026    -3.940403095977    12.000000000000
         C            2.397793374012    -0.874484293026    -2.321403095977    12.000000000000
         C            1.955793374012    -0.764484293026    -3.635403095977    12.000000000000
         H           -0.394206625988    -2.103484293026    -0.882403095977     1.007825032230
         H           -1.216206625988    -1.860484293026    -3.175403095977     1.007825032230
         H            1.925793374012    -1.463484293026    -0.320403095977     1.007825032230
         H            0.284793374012    -1.010484293026    -4.949403095977     1.007825032230
         H            3.388793374012    -0.554484293026    -2.057403095977     1.007825032230
         H            3.603793374012     0.403515706974    -4.308403095977     1.007825032230
         H            2.250793374012     0.299515706974    -5.425403095977     1.007825032230
         H            3.366603374012    -1.097114293026    -5.256833095977     1.007825032230
         C           -1.064206625988    -0.813484293026     1.592596904023    12.000000000000
         C           -1.906206625988    -1.921484293026     2.235596904023    12.000000000000
         C           -1.093206625988     0.527515706974     2.275596904023    12.000000000000
         C            0.101793374012     1.153515706974     2.598596904023    12.000000000000
         C           -2.287206625988     1.209515706974     2.478596904023    12.000000000000
         C            0.106793374012     2.414515706974     3.139596904023    12.000000000000
         C           -2.285206625988     2.468515706974     3.046596904023    12.000000000000
         C           -1.083206625988     3.084515706974     3.363596904023    12.000000000000
         H           -0.033206625988    -1.166484293026     1.556596904023     1.007825032230
         H           -1.387206625988    -0.676484293026     0.563596904023     1.007825032230
         H           -1.607206625988    -2.862484293026     1.809596904023     1.007825032230
         H            1.041793374012     0.658515706974     2.413596904023     1.007825032230
         H           -3.221206625988     0.765515706974     2.182596904023     1.007825032230
         H            1.045793374012     2.892515706974     3.382596904023     1.007825032230
         H           -3.217206625988     2.986515706974     3.220596904023     1.007825032230
         H           -1.072206625988     4.080515706974     3.781596904023     1.007825032230
         H           -2.985536625988    -1.836414293026     2.041146904023     1.007825032230
         H           -1.725156625988    -2.012374293026     3.316776904023     1.007825032230

  Running in c1 symmetry.

  Rotational constants: A =      0.03388  B =      0.00700  C =      0.00638 [cm^-1]
  Rotational constants: A =   1015.67666  B =    209.82234  C =    191.25621 [MHz]
  Nuclear repulsion =  849.744028106618543

  Charge       = 0
  Multiplicity = 1
  Electrons    = 108
  Nalpha       = 54
  Nbeta        = 54

  ==> Algorithm <==

  SCF Algorithm Type is PK.
  DIIS enabled.
  MOM disabled.
  Fractional occupation disabled.
  Guess Type is SAD.
  Energy threshold   = 1.00e-06
  Density threshold  = 1.00e-10
  Integral threshold = 0.00e+00

  ==> Primary Basis <==

  Basis Set: CC-PVDZ
    Blend: CC-PVDZ
    Number of shells: 144
    Number of basis function: 300
    Number of Cartesian functions: 315
    Spherical Harmonics?: true
    Max angular momentum: 2

  ==> Pre-Iterations <==

   -------------------------------------------------------
    Irrep   Nso     Nmo     Nalpha   Nbeta   Ndocc  Nsocc
   -------------------------------------------------------
     A        300     300       0       0       0       0
   -------------------------------------------------------
    Total     300     300      54      54      54       0
   -------------------------------------------------------

  ==> Integral Setup <==

  Using integral reordering PK algorithm.
  Sizing the integral batches needed.
  Building batch lookup table.
   Calculation information:
      Number of atoms:                  33
      Number of AO shells:             144
      Number of primitives:            420
      Number of atomic orbitals:       315
      Number of basis functions:       300

      Integral cutoff                 1.00e-12
      Number of threads:                 1

	Batch   1 pq = [       0,    9405] index = [             0,44231715] size =     44231715
	Batch   2 pq = [    9405,   13301] index = [      44231715,88464951] size =     44233236
	Batch   3 pq = [   13301,   16290] index = [      88464951,132690195] size =     44225244
	Batch   4 pq = [   16290,   18810] index = [     132690195,176917455] size =     44227260
	Batch   5 pq = [   18810,   21030] index = [     176917455,221140965] size =     44223510
	Batch   6 pq = [   21030,   23037] index = [     221140965,265363203] size =     44222238
	Batch   7 pq = [   23037,   24883] index = [     265363203,309594286] size =     44231083
	Batch   8 pq = [   24883,   26601] index = [     309594286,353819901] size =     44225615
	Batch   9 pq = [   26601,   28214] index = [     353819901,398029005] size =     44209104
	Batch  10 pq = [   28214,   29740] index = [     398029005,442248670] size =     44219665
	Batch  11 pq = [   29740,   31191] index = [     442248670,486454836] size =     44206166
	Batch  12 pq = [   31191,   32578] index = [     486454836,530679331] size =     44224495
	Batch  13 pq = [   32578,   33908] index = [     530679331,574893186] size =     44213855
	Batch  14 pq = [   33908,   35188] index = [     574893186,619115266] size =     44222080
	Batch  15 pq = [   35188,   36423] index = [     619115266,663335676] size =     44220410
	Batch  16 pq = [   36423,   37617] index = [     663335676,707538153] size =     44202477
	Batch  17 pq = [   37617,   38775] index = [     707538153,751769700] size =     44231547
	Batch  18 pq = [   38775,   39899] index = [     751769700,795985050] size =     44215350
	Batch  19 pq = [   39899,   40992] index = [     795985050,840192528] size =     44207478
	Batch  20 pq = [   40992,   42057] index = [     840192528,884416653] size =     44224125
	Batch  21 pq = [   42057,   43095] index = [     884416653,928611060] size =     44194407
	Batch  22 pq = [   43095,   44109] index = [     928611060,972823995] size =     44212935
	Batch  23 pq = [   44109,   45150] index = [     972823995,1019283825] size =     46459830
  Task number: 93
  Buffer size: 11059200
  Buffer per thread: 2
  We computed 44578765 shell quartets total.
  Whereas there are 54502020 unique shell quartets.

  ==> DiskJK: Disk-Based J/K Matrices <==

    J tasked:                  Yes
    K tasked:                  Yes
    wK tasked:                  No
    Memory [MiB]:              375
    Schwarz Cutoff:          1E-12

    OpenMP threads:              1

  Minimum eigenvalue in the overlap matrix is 2.8941392741E-04.
  Using Symmetric Orthogonalization.

  SCF Guess: Superposition of Atomic Densities via on-the-fly atomic UHF.

  ==> Iterations <==

                        Total Energy        Delta E     RMS |[F,P]|

   @RHF iter SAD:  -577.60113474623847   -5.77601e+02   0.00000e+00
   @RHF iter   1:  -578.22654716794932   -6.25412e-01   2.25003e-03 DIIS
   @RHF iter   2:  -578.50624596212629   -2.79699e-01   9.29542e-04 DIIS
   @RHF iter   3:  -578.54872211740042   -4.24762e-02   2.10453e-04 DIIS
   @RHF iter   4:  -578.55227845624029   -3.55634e-03   4.97153e-05 DIIS
   @RHF iter   5:  -578.55241984584688   -1.41390e-04   1.60791e-05 DIIS
   @RHF iter   6:  -578.55243449794943   -1.46521e-05   3.92868e-06 DIIS
   @RHF iter   7:  -578.55243558735708   -1.08941e-06   1.04354e-06 DIIS
   @RHF iter   8:  -578.55243567879324   -9.14362e-08   2.90229e-07 DIIS
   @RHF iter   9:  -578.55243569207732   -1.32841e-08   1.25412e-07 DIIS
   @RHF iter  10:  -578.55243569499919   -2.92187e-09   6.38700e-08 DIIS
   @RHF iter  11:  -578.55243569600759   -1.00840e-09   2.67699e-08 DIIS
   @RHF iter  12:  -578.55243569615061   -1.43018e-10   1.22904e-08 DIIS
   @RHF iter  13:  -578.55243569617267   -2.20552e-11   3.83345e-09 DIIS
   @RHF iter  14:  -578.55243569617744   -4.77485e-12   9.71735e-10 DIIS
   @RHF iter  15:  -578.55243569618028   -2.84217e-12   3.38419e-10 DIIS
   @RHF iter  16:  -578.55243569617824    2.04636e-12   1.16294e-10 DIIS
   @RHF iter  17:  -578.55243569617994   -1.70530e-12   5.31798e-11 DIIS
  Energy and wave function converged.

  ==> Post-Iterations <==

    Orbital Energies [Eh]
    ---------------------

    Doubly Occupied:

       1A    -11.238294     2A    -11.234190     3A    -11.233532
       4A    -11.233273     5A    -11.231407     6A    -11.229109
       7A    -11.228848     8A    -11.228540     9A    -11.228337
      10A    -11.228124    11A    -11.227954    12A    -11.226789
      13A    -11.225850    14A    -11.224285    15A    -11.222285
      16A     -1.157331    17A     -1.156891    18A     -1.061918
      19A     -1.047369    20A     -1.014594    21A     -1.014485
      22A     -0.982559    23A     -0.932092    24A     -0.866437
      25A     -0.826795    26A     -0.822364    27A     -0.796504
      28A     -0.785993    29A     -0.695684    30A     -0.690349
      31A     -0.638693    32A     -0.634071    33A     -0.630278
      34A     -0.628609    35A     -0.597357    36A     -0.586909
      37A     -0.584221    38A     -0.579464    39A     -0.578258
      40A     -0.562229    41A     -0.537816    42A     -0.534440
      43A     -0.518192    44A     -0.500399    45A     -0.490619
      46A     -0.485853    47A     -0.484297    48A     -0.479540
      49A     -0.473768    50A     -0.466788    51A     -0.334126
      52A     -0.333333    53A     -0.323343    54A     -0.318934

    Virtual:

      55A      0.135365    56A      0.139497    57A      0.142187
      58A      0.144382    59A      0.170135    60A      0.189434
      61A      0.195291    62A      0.196505    63A      0.213237
      64A      0.225705    65A      0.232114    66A      0.239111
      67A      0.249097    68A      0.258316    69A      0.259978
      70A      0.267073    71A      0.280725    72A      0.289433
      73A      0.299440    74A      0.305376    75A      0.313040
      76A      0.334601    77A      0.360872    78A      0.370370
      79A      0.383423    80A      0.401768    81A      0.426394
      82A      0.455046    83A      0.458781    84A      0.465779
      85A      0.480556    86A      0.487697    87A      0.492912
      88A      0.498099    89A      0.503056    90A      0.563147
      91A      0.578200    92A      0.593317    93A      0.604946
      94A      0.612402    95A      0.630227    96A      0.638208
      97A      0.664208    98A      0.684895    99A      0.686416
     100A      0.692504   101A      0.697155   102A      0.710943
     103A      0.717121   104A      0.721471   105A      0.733321
     106A      0.736819   107A      0.738592   108A      0.743938
     109A      0.744145   110A      0.747093   111A      0.749639
     112A      0.754406   113A      0.758848   114A      0.772255
     115A      0.774702   116A      0.782995   117A      0.801165
     118A      0.811992   119A      0.825923   120A      0.842015
     121A      0.851292   122A      0.860675   123A      0.861050
     124A      0.867294   125A      0.872431   126A      0.876645
     127A      0.880944   128A      0.889512   129A      0.894495
     130A      0.896690   131A      0.903817   132A      0.915865
     133A      0.919848   134A      0.922634   135A      0.927729
     136A      0.930937   137A      0.938842   138A      0.945832
     139A      0.955908   140A      0.968188   141A      0.979910
     142A      0.996554   143A      1.008978   144A      1.023926
     145A      1.034383   146A      1.044927   147A      1.055470
     148A      1.082388   149A      1.126702   150A      1.140096
     151A      1.145881   152A      1.148119   153A      1.151710
     154A      1.155699   155A      1.168959   156A      1.176104
     157A      1.195128   158A      1.200186   159A      1.221163
     160A      1.239359   161A      1.244965   162A      1.251370
     163A      1.258118   164A      1.262044   165A      1.263594
     166A      1.271307   167A      1.303510   168A      1.305013
     169A      1.311079   170A      1.313778   171A      1.323353
     172A      1.330147   173A      1.335578   174A      1.338350
     175A      1.394275   176A      1.420598   177A      1.429221
     178A      1.449773   179A      1.511075   180A      1.512027
     181A      1.529862   182A      1.534981   183A      1.563735
     184A      1.578932   185A      1.605682   186A      1.618584
     187A      1.673185   188A      1.685685   189A      1.698787
     190A      1.718374   191A      1.719356   192A      1.737860
     193A      1.746773   194A      1.754802   195A      1.762243
     196A      1.769732   197A      1.774389   198A      1.789920
     199A      1.813208   200A      1.816362   201A      1.848853
     202A      1.868535   203A      1.873962   204A      1.884390
     205A      1.892654   206A      1.898964   207A      1.905935
     208A      1.911183   209A      1.914292   210A      1.917119
     211A      1.923216   212A      1.929809   213A      1.940341
     214A      1.946742   215A      1.948357   216A      1.953208
     217A      1.958057   218A      1.959435   219A      1.963828
     220A      1.980313   221A      1.986440   222A      1.995328
     223A      2.005390   224A      2.005937   225A      2.025661
     226A      2.031178   227A      2.042226   228A      2.045128
     229A      2.058838   230A      2.066439   231A      2.079767
     232A      2.094140   233A      2.105517   234A      2.114003
     235A      2.122241   236A      2.152879   237A      2.160900
     238A      2.169593   239A      2.171799   240A      2.176832
     241A      2.183107   242A      2.186520   243A      2.198531
     244A      2.200752   245A      2.232532   246A      2.243272
     247A      2.268692   248A      2.277149   249A      2.280770
     250A      2.282832   251A      2.291742   252A      2.306899
     253A      2.314231   254A      2.318158   255A      2.327081
     256A      2.340402   257A      2.360207   258A      2.369133
     259A      2.440294   260A      2.453688   261A      2.478489
     262A      2.485450   263A      2.495147   264A      2.507827
     265A      2.540763   266A      2.550205   267A      2.574717
     268A      2.595695   269A      2.631478   270A      2.653147
     271A      2.744981   272A      2.747290   273A      2.763570
     274A      2.766768   275A      2.772209   276A      2.782726
     277A      2.800138   278A      2.807866   279A      2.815309
     280A      2.821170   281A      2.847983   282A      2.864159
     283A      2.880291   284A      2.897914   285A      2.945841
     286A      2.957358   287A      2.998812   288A      3.014036
     289A      3.023604   290A      3.030573   291A      3.042504
     292A      3.070336   293A      3.165595   294A      3.200296
     295A      3.220972   296A      3.232650   297A      3.317918
     298A      3.331091   299A      3.997343   300A      4.007681

    Final Occupation by Irrep:
              A
    DOCC [    54 ]

  @RHF Final Energy:  -578.55243569617994

   => Energetics <=

    Nuclear Repulsion Energy =            849.7440281066185435
    One-Electron Energy =               -2467.4054885481027668
    Two-Electron Energy =                1039.1090247453043958
    Total Energy =                       -578.5524356961798276

Computation Completed

Properties will be evaluated at   0.000000,   0.000000,   0.000000 [a0]

Properties computed using the SCF density matrix

  Nuclear Dipole Moment: [e a0]
     X:     0.0458      Y:    -4.2722      Z:    -1.9752

  Electronic Dipole Moment: [e a0]
     X:     0.0306      Y:     4.2337      Z:     1.7542

  Dipole Moment: [e a0]
     X:     0.0763      Y:    -0.0385      Z:    -0.2210     Total:     0.2370

  Dipole Moment: [D]
     X:     0.1940      Y:    -0.0979      Z:    -0.5619     Total:     0.6024

*** tstop() called on ds3 at Mon Apr 27 16:31:19 2020
Module time:
	user time   =     415.18 seconds =       6.92 minutes
	system time =     177.32 seconds =       2.96 minutes
	total time  =        756 seconds =      12.60 minutes
Total time:
	user time   =     415.18 seconds =       6.92 minutes
	system time =     177.32 seconds =       2.96 minutes
	total time  =        756 seconds =      12.60 minutes
                                     G D M A

                                 by Anthony Stone

                           version 2.2.06, 22 June 2011

               Distributed Multipoles from Gaussian wavefunctions

Starting at 16:31:19 on 27 Apr 2020

Using SCF density matrix from file ./SSI/SSI-198PHE-217PHE-1-dimer.test.26342.fchk

                         Distributed Multipole Analysis

Standard DMA

Positions and radii in angstrom
Multipole moments in atomic units, ea_0^k for rank k

C          x =  2.859793  y = -0.277484  z = -4.726403 angstrom
           Maximum rank =  0   Radius =  0.650 angstrom
                   Q00  =  -0.198614

C          x =  0.266793  y = -1.728484  z = -1.649403 angstrom
           Maximum rank =  0   Radius =  0.650 angstrom
                   Q00  =  -0.080518

C          x = -0.193207  y = -1.595484  z = -2.943403 angstrom
           Maximum rank =  0   Radius =  0.650 angstrom
                   Q00  =  -0.057000

C          x =  1.569793  y = -1.377484  z = -1.337403 angstrom
           Maximum rank =  0   Radius =  0.650 angstrom
                   Q00  =  -0.079427

C          x =  0.649793  y = -1.122484  z = -3.940403 angstrom
           Maximum rank =  0   Radius =  0.650 angstrom
                   Q00  =  -0.088608

C          x =  2.397793  y = -0.874484  z = -2.321403 angstrom
           Maximum rank =  0   Radius =  0.650 angstrom
                   Q00  =   0.015587

C          x =  1.955793  y = -0.764484  z = -3.635403 angstrom
           Maximum rank =  0   Radius =  0.650 angstrom
                   Q00  =  -0.102493

H          x = -0.394207  y = -2.103484  z = -0.882403 angstrom
           Maximum rank =  0   Radius =  0.325 angstrom
                   Q00  =   0.058757

H          x = -1.216207  y = -1.860484  z = -3.175403 angstrom
           Maximum rank =  0   Radius =  0.325 angstrom
                   Q00  =   0.061351

H          x =  1.925793  y = -1.463484  z = -0.320403 angstrom
           Maximum rank =  0   Radius =  0.325 angstrom
                   Q00  =   0.060645

H          x =  0.284793  y = -1.010484  z = -4.949403 angstrom
           Maximum rank =  0   Radius =  0.325 angstrom
                   Q00  =   0.055391

H          x =  3.388793  y = -0.554484  z = -2.057403 angstrom
           Maximum rank =  0   Radius =  0.325 angstrom
                   Q00  =   0.054110

H          x =  3.603793  y =  0.403516  z = -4.308403 angstrom
           Maximum rank =  0   Radius =  0.325 angstrom
                   Q00  =   0.097245

H          x =  2.250793  y =  0.299516  z = -5.425403 angstrom
           Maximum rank =  0   Radius =  0.325 angstrom
                   Q00  =   0.095465

H          x =  3.366603  y = -1.097114  z = -5.256833 angstrom
           Maximum rank =  0   Radius =  0.325 angstrom
                   Q00  =   0.106180

C          x = -1.064207  y = -0.813484  z =  1.592597 angstrom
           Maximum rank =  0   Radius =  0.650 angstrom
                   Q00  =  -0.040397

C          x = -1.906207  y = -1.921484  z =  2.235597 angstrom
           Maximum rank =  0   Radius =  0.650 angstrom
                   Q00  =  -0.260138

C          x = -1.093207  y =  0.527516  z =  2.275597 angstrom
           Maximum rank =  0   Radius =  0.650 angstrom
                   Q00  =  -0.089224

C          x =  0.101793  y =  1.153516  z =  2.598597 angstrom
           Maximum rank =  0   Radius =  0.650 angstrom
                   Q00  =   0.003072

C          x = -2.287207  y =  1.209516  z =  2.478597 angstrom
           Maximum rank =  0   Radius =  0.650 angstrom
                   Q00  =  -0.099914

C          x =  0.106793  y =  2.414516  z =  3.139597 angstrom
           Maximum rank =  0   Radius =  0.650 angstrom
                   Q00  =  -0.036143

C          x = -2.285207  y =  2.468516  z =  3.046597 angstrom
           Maximum rank =  0   Radius =  0.650 angstrom
                   Q00  =  -0.073766

C          x = -1.083207  y =  3.084516  z =  3.363597 angstrom
           Maximum rank =  0   Radius =  0.650 angstrom
                   Q00  =  -0.081241

H          x = -0.033207  y = -1.166484  z =  1.556597 angstrom
           Maximum rank =  0   Radius =  0.325 angstrom
                   Q00  =   0.056513

H          x = -1.387207  y = -0.676484  z =  0.563597 angstrom
           Maximum rank =  0   Radius =  0.325 angstrom
                   Q00  =   0.080541

H          x = -1.607207  y = -2.862484  z =  1.809597 angstrom
           Maximum rank =  0   Radius =  0.325 angstrom
                   Q00  =   0.083392

H          x =  1.041793  y =  0.658516  z =  2.413597 angstrom
           Maximum rank =  0   Radius =  0.325 angstrom
                   Q00  =   0.052418

H          x = -3.221207  y =  0.765516  z =  2.182597 angstrom
           Maximum rank =  0   Radius =  0.325 angstrom
                   Q00  =   0.055117

H          x =  1.045793  y =  2.892516  z =  3.382597 angstrom
           Maximum rank =  0   Radius =  0.325 angstrom
                   Q00  =   0.060355

H          x = -3.217207  y =  2.986516  z =  3.220597 angstrom
           Maximum rank =  0   Radius =  0.325 angstrom
                   Q00  =   0.062098

H          x = -1.072207  y =  4.080516  z =  3.781597 angstrom
           Maximum rank =  0   Radius =  0.325 angstrom
                   Q00  =   0.059495

H          x = -2.985537  y = -1.836414  z =  2.041147 angstrom
           Maximum rank =  0   Radius =  0.325 angstrom
                   Q00  =   0.083411

H          x = -1.725157  y = -2.012374  z =  3.316777 angstrom
           Maximum rank =  0   Radius =  0.325 angstrom
                   Q00  =   0.086340

Total multipoles referred to origin at
           x =   0.000000,  y =    0.000000,  z =    0.000000 angstrom
                   Q00  =  -0.000000

Finished at 16:31:19 on 27 Apr 2020

  DMA results are available in the Python driver through the
	  variable('DMA DISTRIBUTED MULTIPOLES')
  and
	  variable('DMA TOTAL MULTIPOLES')
  commands.

    Psi4 stopped on: Monday, 27 April 2020 04:31PM
    Psi4 wall time for execution: 0:12:35.66

*** Psi4 exiting successfully. Buy a developer a beer!
