                               Psi4 1.3.2 release

  ==> Input File <==

--------------------------------------------------------------------------
import numpy as np
set {scf_type pk
basis cc-pvdz
d_convergence 10
gdma_switch   0
gdma_limit    0
gdma_origin   [ 0.0,  0.0,  0.0 ]
}
molecule test {
    units Angstrom
    0 1
    --
    0 1
    C                0.035699856423840    -0.392213723035176    -1.436820504233854
    C                0.523699856423840     0.363786276964824    -2.677820504233853
    C               -0.918300143576160    -1.518213723035176    -1.844820504233853
    H                0.880699856423840    -0.808213723035176    -0.886820504233854
    H               -0.496300143576160     0.304786276964824    -0.785820504233854
    H               -0.341300143576160     0.824786276964824    -3.159820504233854
    H               -1.691300143576160    -1.104213723035176    -2.494820504233853
    H               -0.368300143576160    -2.277213723035176    -2.401820504233853
    H                1.017395856423840    -0.321819723035176    -3.382241504233853
    H                1.238647856423840     1.151236276964824    -2.397153504233853
    H               -1.408731143576160    -1.999414723035176    -0.985800504233853
    C                0.050699856423840     0.545786276964824     2.210179495766147
    C                0.313699856423840     0.976786276964824     3.657179495766147
    H               -0.942300143576160     0.847786276964824     1.884179495766146
    H                0.111699856423840    -0.539213723035176     2.138179495766146
    H                0.795699856423840     0.985786276964824     1.545179495766146
    H               -0.428300143576160     0.534786276964824     4.317179495765147
    H                0.264352856423840     2.073156276964824     3.731559495766146
    H                1.302556856423840     0.614346276964824     3.974669495766147

}
e, wfn = energy('scf', return_wfn=True)
gdma(wfn)
dmavals = variable('DMA DISTRIBUTED MULTIPOLES')
charges = np.array(dmavals)
print(charges)
np.save('SSI-043MET-060VAL-1-dimer.npy', np.array(charges))--------------------------------------------------------------------------

*** tstart() called on ds3
*** at Sun Apr 26 22:25:42 2020

   => Loading Basis Set <=

    Name: CC-PVDZ
    Role: ORBITAL
    Keyword: BASIS
    atoms 1-3, 12-13  entry C          line   138 file /theoryfs2/ds/metcalf/miniconda2/envs/tf2gpu/share/psi4/basis/cc-pvdz.gbs
    atoms 4-11, 14-19 entry H          line    22 file /theoryfs2/ds/metcalf/miniconda2/envs/tf2gpu/share/psi4/basis/cc-pvdz.gbs

         ---------------------------------------------------------
                                   SCF
               by Justin Turney, Rob Parrish, Andy Simmonett
                          and Daniel G. A. Smith
                              RHF Reference
                        1 Threads,    500 MiB Core
         ---------------------------------------------------------

  ==> Geometry <==

    Molecular point group: c1
    Full point group: C1

    Geometry (in Angstrom), charge = 0, multiplicity = 1:

       Center              X                  Y                   Z               Mass
    ------------   -----------------  -----------------  -----------------  -----------------
         C            0.035699856424    -0.392213723035    -1.436820504234    12.000000000000
         C            0.523699856424     0.363786276965    -2.677820504234    12.000000000000
         C           -0.918300143576    -1.518213723035    -1.844820504234    12.000000000000
         H            0.880699856424    -0.808213723035    -0.886820504234     1.007825032230
         H           -0.496300143576     0.304786276965    -0.785820504234     1.007825032230
         H           -0.341300143576     0.824786276965    -3.159820504234     1.007825032230
         H           -1.691300143576    -1.104213723035    -2.494820504234     1.007825032230
         H           -0.368300143576    -2.277213723035    -2.401820504234     1.007825032230
         H            1.017395856424    -0.321819723035    -3.382241504234     1.007825032230
         H            1.238647856424     1.151236276965    -2.397153504234     1.007825032230
         H           -1.408731143576    -1.999414723035    -0.985800504234     1.007825032230
         C            0.050699856424     0.545786276965     2.210179495766    12.000000000000
         C            0.313699856424     0.976786276965     3.657179495766    12.000000000000
         H           -0.942300143576     0.847786276965     1.884179495766     1.007825032230
         H            0.111699856424    -0.539213723035     2.138179495766     1.007825032230
         H            0.795699856424     0.985786276965     1.545179495766     1.007825032230
         H           -0.428300143576     0.534786276965     4.317179495765     1.007825032230
         H            0.264352856424     2.073156276965     3.731559495766     1.007825032230
         H            1.302556856424     0.614346276965     3.974669495766     1.007825032230

  Running in c1 symmetry.

  Rotational constants: A =      0.25914  B =      0.03314  C =      0.03026 [cm^-1]
  Rotational constants: A =   7768.72179  B =    993.61465  C =    907.26896 [MHz]
  Nuclear repulsion =  173.963398788276379

  Charge       = 0
  Multiplicity = 1
  Electrons    = 44
  Nalpha       = 22
  Nbeta        = 22

  ==> Algorithm <==

  SCF Algorithm Type is PK.
  DIIS enabled.
  MOM disabled.
  Fractional occupation disabled.
  Guess Type is SAD.
  Energy threshold   = 1.00e-06
  Density threshold  = 1.00e-10
  Integral threshold = 0.00e+00

  ==> Primary Basis <==

  Basis Set: CC-PVDZ
    Blend: CC-PVDZ
    Number of shells: 72
    Number of basis function: 140
    Number of Cartesian functions: 145
    Spherical Harmonics?: true
    Max angular momentum: 2

  ==> Pre-Iterations <==

   -------------------------------------------------------
    Irrep   Nso     Nmo     Nalpha   Nbeta   Ndocc  Nsocc
   -------------------------------------------------------
     A        140     140       0       0       0       0
   -------------------------------------------------------
    Total     140     140      22      22      22       0
   -------------------------------------------------------

  ==> Integral Setup <==

  Using integral reordering PK algorithm.
  Sizing the integral batches needed.
  Building batch lookup table.
   Calculation information:
      Number of atoms:                  19
      Number of AO shells:              72
      Number of primitives:            180
      Number of atomic orbitals:       145
      Number of basis functions:       140

      Integral cutoff                 1.00e-12
      Number of threads:                 1

	Batch   1 pq = [       0,    9405] index = [             0,44231715] size =     44231715
	Batch   2 pq = [    9405,    9870] index = [      44231715,48713385] size =      4481670
  Task number: 5
  Buffer size: 11059200
  Buffer per thread: 2
  We computed 2636290 shell quartets total.
  Whereas there are 3454506 unique shell quartets.

  ==> DiskJK: Disk-Based J/K Matrices <==

    J tasked:                  Yes
    K tasked:                  Yes
    wK tasked:                  No
    Memory [MiB]:              375
    Schwarz Cutoff:          1E-12

    OpenMP threads:              1

  Minimum eigenvalue in the overlap matrix is 5.4206746312E-03.
  Using Symmetric Orthogonalization.

  SCF Guess: Superposition of Atomic Densities via on-the-fly atomic UHF.

  ==> Iterations <==

                        Total Energy        Delta E     RMS |[F,P]|

   @RHF iter SAD:  -196.33498634596125   -1.96335e+02   0.00000e+00
   @RHF iter   1:  -197.31428553617735   -9.79299e-01   3.79675e-03 DIIS
   @RHF iter   2:  -197.47366853862653   -1.59383e-01   1.64452e-03 DIIS
   @RHF iter   3:  -197.50219510707524   -2.85266e-02   3.25940e-04 DIIS
   @RHF iter   4:  -197.50442035956729   -2.22525e-03   4.83289e-05 DIIS
   @RHF iter   5:  -197.50445925659554   -3.88970e-05   1.47540e-05 DIIS
   @RHF iter   6:  -197.50446256530199   -3.30871e-06   2.54055e-06 DIIS
   @RHF iter   7:  -197.50446267937915   -1.14077e-07   4.58541e-07 DIIS
   @RHF iter   8:  -197.50446268394779   -4.56865e-09   1.13488e-07 DIIS
   @RHF iter   9:  -197.50446268421706   -2.69267e-10   3.75866e-08 DIIS
   @RHF iter  10:  -197.50446268424960   -3.25429e-11   8.22570e-09 DIIS
   @RHF iter  11:  -197.50446268425102   -1.42109e-12   1.48164e-09 DIIS
   @RHF iter  12:  -197.50446268425139   -3.69482e-13   2.57850e-10 DIIS
   @RHF iter  13:  -197.50446268425077    6.25278e-13   4.94040e-11 DIIS
  Energy and wave function converged.

  ==> Post-Iterations <==

    Orbital Energies [Eh]
    ---------------------

    Doubly Occupied:

       1A    -11.219379     2A    -11.219299     3A    -11.217443
       4A    -11.216803     5A    -11.215282     6A     -1.052446
       7A     -1.017245     8A     -0.920274     9A     -0.837840
      10A     -0.796421    11A     -0.626563    12A     -0.598244
      13A     -0.596561    14A     -0.594518    15A     -0.542263
      16A     -0.529818    17A     -0.501035    18A     -0.486808
      19A     -0.486224    20A     -0.470774    21A     -0.468708
      22A     -0.467549

    Virtual:

      23A      0.172907    24A      0.192822    25A      0.215871
      26A      0.219755    27A      0.227523    28A      0.252463
      29A      0.261927    30A      0.262931    31A      0.278277
      32A      0.282255    33A      0.291091    34A      0.306602
      35A      0.310657    36A      0.317479    37A      0.367780
      38A      0.401450    39A      0.427650    40A      0.569145
      41A      0.583062    42A      0.595745    43A      0.600236
      44A      0.611323    45A      0.611803    46A      0.620226
      47A      0.683758    48A      0.690928    49A      0.734471
      50A      0.803343    51A      0.814286    52A      0.840620
      53A      0.863202    54A      0.889272    55A      0.891393
      56A      0.893568    57A      0.895582    58A      0.900455
      59A      0.904253    60A      0.906690    61A      0.910595
      62A      0.918135    63A      0.923876    64A      0.930874
      65A      0.937515    66A      0.965120    67A      0.972108
      68A      1.002974    69A      1.125212    70A      1.127429
      71A      1.132684    72A      1.141962    73A      1.204665
      74A      1.235195    75A      1.377326    76A      1.470031
      77A      1.472471    78A      1.475085    79A      1.481565
      80A      1.551624    81A      1.579101    82A      1.610233
      83A      1.680722    84A      1.681535    85A      1.687446
      86A      1.695362    87A      1.713732    88A      1.849767
      89A      1.860122    90A      1.867863    91A      1.878285
      92A      1.886367    93A      1.907708    94A      1.921187
      95A      1.929922    96A      1.942615    97A      1.944546
      98A      1.948635    99A      1.951296   100A      1.956523
     101A      1.969471   102A      1.977121   103A      1.981173
     104A      1.982401   105A      2.017010   106A      2.029441
     107A      2.074170   108A      2.099586   109A      2.105954
     110A      2.128134   111A      2.146415   112A      2.294411
     113A      2.300871   114A      2.308371   115A      2.312846
     116A      2.333725   117A      2.354828   118A      2.455560
     119A      2.460800   120A      2.504194   121A      2.528648
     122A      2.560303   123A      2.567823   124A      2.572662
     125A      2.610887   126A      2.622565   127A      2.750499
     128A      2.761564   129A      2.766737   130A      2.785011
     131A      2.787117   132A      2.821376   133A      2.849056
     134A      2.858522   135A      2.900015   136A      2.945127
     137A      2.955184   138A      2.963181   139A      2.970348
     140A      3.060315

    Final Occupation by Irrep:
              A
    DOCC [    22 ]

  @RHF Final Energy:  -197.50446268425077

   => Energetics <=

    Nuclear Repulsion Energy =            173.9633987882763790
    One-Electron Energy =                -608.7727292863830826
    Two-Electron Energy =                 237.3048678138559353
    Total Energy =                       -197.5044626842507682

Computation Completed

Properties will be evaluated at   0.000000,   0.000000,   0.000000 [a0]

Properties computed using the SCF density matrix

  Nuclear Dipole Moment: [e a0]
     X:    -0.0614      Y:     0.2687      Z:     1.0281

  Electronic Dipole Moment: [e a0]
     X:     0.0616      Y:    -0.2649      Z:    -0.9956

  Dipole Moment: [e a0]
     X:     0.0002      Y:     0.0037      Z:     0.0325     Total:     0.0327

  Dipole Moment: [D]
     X:     0.0006      Y:     0.0095      Z:     0.0826     Total:     0.0832

*** tstop() called on ds3 at Sun Apr 26 22:26:07 2020
Module time:
	user time   =      13.67 seconds =       0.23 minutes
	system time =       5.49 seconds =       0.09 minutes
	total time  =         25 seconds =       0.42 minutes
Total time:
	user time   =      13.67 seconds =       0.23 minutes
	system time =       5.49 seconds =       0.09 minutes
	total time  =         25 seconds =       0.42 minutes
                                     G D M A

                                 by Anthony Stone

                           version 2.2.06, 22 June 2011

               Distributed Multipoles from Gaussian wavefunctions

Starting at 22:26:7 on 26 Apr 2020

Using SCF density matrix from file ./SSI/SSI-043MET-060VAL-1-dimer.test.3180.fchk

                         Distributed Multipole Analysis

Standard DMA

Positions and radii in angstrom
Multipole moments in atomic units, ea_0^k for rank k

C          x =  0.035700  y = -0.392214  z = -1.436821 angstrom
           Maximum rank =  0   Radius =  0.650 angstrom
                   Q00  =  -0.079960

C          x =  0.523700  y =  0.363786  z = -2.677821 angstrom
           Maximum rank =  0   Radius =  0.650 angstrom
                   Q00  =  -0.242578

C          x = -0.918300  y = -1.518214  z = -1.844821 angstrom
           Maximum rank =  0   Radius =  0.650 angstrom
                   Q00  =  -0.248694

H          x =  0.880700  y = -0.808214  z = -0.886821 angstrom
           Maximum rank =  0   Radius =  0.325 angstrom
                   Q00  =   0.050539

H          x = -0.496300  y =  0.304786  z = -0.785821 angstrom
           Maximum rank =  0   Radius =  0.325 angstrom
                   Q00  =   0.050915

H          x = -0.341300  y =  0.824786  z = -3.159821 angstrom
           Maximum rank =  0   Radius =  0.325 angstrom
                   Q00  =   0.077029

H          x = -1.691300  y = -1.104214  z = -2.494821 angstrom
           Maximum rank =  0   Radius =  0.325 angstrom
                   Q00  =   0.073137

H          x = -0.368300  y = -2.277214  z = -2.401821 angstrom
           Maximum rank =  0   Radius =  0.325 angstrom
                   Q00  =   0.076508

H          x =  1.017396  y = -0.321820  z = -3.382242 angstrom
           Maximum rank =  0   Radius =  0.325 angstrom
                   Q00  =   0.075923

H          x =  1.238648  y =  1.151236  z = -2.397154 angstrom
           Maximum rank =  0   Radius =  0.325 angstrom
                   Q00  =   0.082660

H          x = -1.408731  y = -1.999415  z = -0.985801 angstrom
           Maximum rank =  0   Radius =  0.325 angstrom
                   Q00  =   0.083487

C          x =  0.050700  y =  0.545786  z =  2.210179 angstrom
           Maximum rank =  0   Radius =  0.650 angstrom
                   Q00  =  -0.239839

C          x =  0.313700  y =  0.976786  z =  3.657179 angstrom
           Maximum rank =  0   Radius =  0.650 angstrom
                   Q00  =  -0.236386

H          x = -0.942300  y =  0.847786  z =  1.884179 angstrom
           Maximum rank =  0   Radius =  0.325 angstrom
                   Q00  =   0.078919

H          x =  0.111700  y = -0.539214  z =  2.138179 angstrom
           Maximum rank =  0   Radius =  0.325 angstrom
                   Q00  =   0.078837

H          x =  0.795700  y =  0.985786  z =  1.545179 angstrom
           Maximum rank =  0   Radius =  0.325 angstrom
                   Q00  =   0.079529

H          x = -0.428300  y =  0.534786  z =  4.317179 angstrom
           Maximum rank =  0   Radius =  0.325 angstrom
                   Q00  =   0.081261

H          x =  0.264353  y =  2.073156  z =  3.731559 angstrom
           Maximum rank =  0   Radius =  0.325 angstrom
                   Q00  =   0.079429

H          x =  1.302557  y =  0.614346  z =  3.974670 angstrom
           Maximum rank =  0   Radius =  0.325 angstrom
                   Q00  =   0.079282

Total multipoles referred to origin at
           x =   0.000000,  y =    0.000000,  z =    0.000000 angstrom
                   Q00  =  -0.000000

Finished at 22:26:7 on 26 Apr 2020

  DMA results are available in the Python driver through the
	  variable('DMA DISTRIBUTED MULTIPOLES')
  and
	  variable('DMA TOTAL MULTIPOLES')
  commands.

    Psi4 stopped on: Sunday, 26 April 2020 10:26PM
    Psi4 wall time for execution: 0:00:25.33

*** Psi4 exiting successfully. Buy a developer a beer!
