                               Psi4 1.3.2 release

  ==> Input File <==

--------------------------------------------------------------------------
import numpy as np
set {scf_type pk
basis cc-pvdz
d_convergence 10
gdma_switch   0
gdma_limit    0
gdma_origin   [ 0.0,  0.0,  0.0 ]
}
molecule test {
    units Angstrom
    0 1
    --
    0 1
    C               -2.114562411425775     4.025854408623672     1.708598766080736
    C               -0.772562411425775     0.946854408623673    -0.014401233919264
    C               -1.647562411425775     1.850854408623674     0.546598766080736
    C                0.576437588574225     1.233854408623674    -0.085401233919264
    C               -1.170562411425775     3.040854408623674     1.086598766080736
    C                1.065437588574225     2.408854408623673     0.427598766080736
    C                0.195437588574226     3.308854408623673     1.019598766080736
    H               -1.145562411425775     0.014854408623673    -0.420401233919264
    H               -2.705562411425774     1.621854408623673     0.580598766080736
    H                1.253437588574225     0.526854408623673    -0.546401233919264
    H                2.123437588574225     2.623854408623673     0.362598766080736
    H               -2.977562411425775     4.133854408623674     1.048598766080736
    H               -1.628562411425774     4.999854408623674     1.759598766080736
    H                0.591437588574226     4.227854408623673     1.425598766080736
    H               -2.477212411425775     3.752784408623673     2.710555766080736
    C               -0.420562411425774    -3.514145591376327    -2.528401233919265
    C               -0.223562411425775    -2.695145591376327    -0.074401233919264
    C                0.256437588574225    -2.964145591376326    -1.315401233919264
    C                1.932437588574225    -2.258145591376327    -0.084401233919264
    N                0.834437588574225    -2.227145591376326     0.668598766080736
    N                1.609437588574225    -2.696145591376327    -1.294401233919264
    H               -1.248562411425775    -2.807145591376327     0.246598766080736
    H                0.781437588574226    -1.852145591376327     1.609598766080736
    H               -1.474562411425775    -3.665145591376327    -2.312401233919264
    H                0.011437588574225    -4.489145591376327    -2.751401233919264
    H                2.916437588574226    -1.926145591376327     0.218598766080736
    H               -0.314312411425775    -2.867215591376327    -3.411689233919264

}
e, wfn = energy('scf', return_wfn=True)
gdma(wfn)
dmavals = variable('DMA DISTRIBUTED MULTIPOLES')
charges = np.array(dmavals)
print(charges)
np.save('SSI-148PHE-164HIE-1-dimer.npy', np.array(charges))--------------------------------------------------------------------------

*** tstart() called on ds3
*** at Mon Apr 27 18:31:56 2020

   => Loading Basis Set <=

    Name: CC-PVDZ
    Role: ORBITAL
    Keyword: BASIS
    atoms 1-7, 16-19  entry C          line   138 file /theoryfs2/ds/metcalf/miniconda2/envs/tf2gpu/share/psi4/basis/cc-pvdz.gbs
    atoms 8-15, 22-27 entry H          line    22 file /theoryfs2/ds/metcalf/miniconda2/envs/tf2gpu/share/psi4/basis/cc-pvdz.gbs
    atoms 20-21       entry N          line   168 file /theoryfs2/ds/metcalf/miniconda2/envs/tf2gpu/share/psi4/basis/cc-pvdz.gbs

         ---------------------------------------------------------
                                   SCF
               by Justin Turney, Rob Parrish, Andy Simmonett
                          and Daniel G. A. Smith
                              RHF Reference
                        1 Threads,    500 MiB Core
         ---------------------------------------------------------

  ==> Geometry <==

    Molecular point group: c1
    Full point group: C1

    Geometry (in Angstrom), charge = 0, multiplicity = 1:

       Center              X                  Y                   Z               Mass
    ------------   -----------------  -----------------  -----------------  -----------------
         C           -2.114562411426     4.025854408624     1.708598766081    12.000000000000
         C           -0.772562411426     0.946854408624    -0.014401233919    12.000000000000
         C           -1.647562411426     1.850854408624     0.546598766081    12.000000000000
         C            0.576437588574     1.233854408624    -0.085401233919    12.000000000000
         C           -1.170562411426     3.040854408624     1.086598766081    12.000000000000
         C            1.065437588574     2.408854408624     0.427598766081    12.000000000000
         C            0.195437588574     3.308854408624     1.019598766081    12.000000000000
         H           -1.145562411426     0.014854408624    -0.420401233919     1.007825032230
         H           -2.705562411426     1.621854408624     0.580598766081     1.007825032230
         H            1.253437588574     0.526854408624    -0.546401233919     1.007825032230
         H            2.123437588574     2.623854408624     0.362598766081     1.007825032230
         H           -2.977562411426     4.133854408624     1.048598766081     1.007825032230
         H           -1.628562411426     4.999854408624     1.759598766081     1.007825032230
         H            0.591437588574     4.227854408624     1.425598766081     1.007825032230
         H           -2.477212411426     3.752784408624     2.710555766081     1.007825032230
         C           -0.420562411426    -3.514145591376    -2.528401233919    12.000000000000
         C           -0.223562411426    -2.695145591376    -0.074401233919    12.000000000000
         C            0.256437588574    -2.964145591376    -1.315401233919    12.000000000000
         C            1.932437588574    -2.258145591376    -0.084401233919    12.000000000000
         N            0.834437588574    -2.227145591376     0.668598766081    14.003074004430
         N            1.609437588574    -2.696145591376    -1.294401233919    14.003074004430
         H           -1.248562411426    -2.807145591376     0.246598766081     1.007825032230
         H            0.781437588574    -1.852145591376     1.609598766081     1.007825032230
         H           -1.474562411426    -3.665145591376    -2.312401233919     1.007825032230
         H            0.011437588574    -4.489145591376    -2.751401233919     1.007825032230
         H            2.916437588574    -1.926145591376     0.218598766081     1.007825032230
         H           -0.314312411426    -2.867215591376    -3.411689233919     1.007825032230

  Running in c1 symmetry.

  Rotational constants: A =      0.06021  B =      0.01055  C =      0.00983 [cm^-1]
  Rotational constants: A =   1805.17269  B =    316.23691  C =    294.56775 [MHz]
  Nuclear repulsion =  708.353474892850954

  Charge       = 0
  Multiplicity = 1
  Electrons    = 94
  Nalpha       = 47
  Nbeta        = 47

  ==> Algorithm <==

  SCF Algorithm Type is PK.
  DIIS enabled.
  MOM disabled.
  Fractional occupation disabled.
  Guess Type is SAD.
  Energy threshold   = 1.00e-06
  Density threshold  = 1.00e-10
  Integral threshold = 0.00e+00

  ==> Primary Basis <==

  Basis Set: CC-PVDZ
    Blend: CC-PVDZ
    Number of shells: 120
    Number of basis function: 252
    Number of Cartesian functions: 265
    Spherical Harmonics?: true
    Max angular momentum: 2

  ==> Pre-Iterations <==

   -------------------------------------------------------
    Irrep   Nso     Nmo     Nalpha   Nbeta   Ndocc  Nsocc
   -------------------------------------------------------
     A        252     252       0       0       0       0
   -------------------------------------------------------
    Total     252     252      47      47      47       0
   -------------------------------------------------------

  ==> Integral Setup <==

  Using integral reordering PK algorithm.
  Sizing the integral batches needed.
  Building batch lookup table.
   Calculation information:
      Number of atoms:                  27
      Number of AO shells:             120
      Number of primitives:            356
      Number of atomic orbitals:       265
      Number of basis functions:       252

      Integral cutoff                 1.00e-12
      Number of threads:                 1

	Batch   1 pq = [       0,    9405] index = [             0,44231715] size =     44231715
	Batch   2 pq = [    9405,   13301] index = [      44231715,88464951] size =     44233236
	Batch   3 pq = [   13301,   16290] index = [      88464951,132690195] size =     44225244
	Batch   4 pq = [   16290,   18810] index = [     132690195,176917455] size =     44227260
	Batch   5 pq = [   18810,   21030] index = [     176917455,221140965] size =     44223510
	Batch   6 pq = [   21030,   23037] index = [     221140965,265363203] size =     44222238
	Batch   7 pq = [   23037,   24883] index = [     265363203,309594286] size =     44231083
	Batch   8 pq = [   24883,   26601] index = [     309594286,353819901] size =     44225615
	Batch   9 pq = [   26601,   28214] index = [     353819901,398029005] size =     44209104
	Batch  10 pq = [   28214,   29740] index = [     398029005,442248670] size =     44219665
	Batch  11 pq = [   29740,   31191] index = [     442248670,486454836] size =     44206166
	Batch  12 pq = [   31191,   31878] index = [     486454836,508119381] size =     21664545
  Task number: 46
  Buffer size: 11059200
  Buffer per thread: 2
  We computed 23056767 shell quartets total.
  Whereas there are 26357430 unique shell quartets.

  ==> DiskJK: Disk-Based J/K Matrices <==

    J tasked:                  Yes
    K tasked:                  Yes
    wK tasked:                  No
    Memory [MiB]:              375
    Schwarz Cutoff:          1E-12

    OpenMP threads:              1

  Minimum eigenvalue in the overlap matrix is 2.8756866156E-04.
  Using Symmetric Orthogonalization.

  SCF Guess: Superposition of Atomic Densities via on-the-fly atomic UHF.

  ==> Iterations <==

                        Total Energy        Delta E     RMS |[F,P]|

   @RHF iter SAD:  -532.85265351483304   -5.32853e+02   0.00000e+00
   @RHF iter   1:  -533.34690940582379   -4.94256e-01   2.57980e-03 DIIS
   @RHF iter   2:  -533.58077096622480   -2.33862e-01   1.24704e-03 DIIS
   @RHF iter   3:  -533.62816766250967   -4.73967e-02   3.35132e-04 DIIS
   @RHF iter   4:  -533.63253091845399   -4.36326e-03   1.38840e-04 DIIS
   @RHF iter   5:  -533.63320238022834   -6.71462e-04   2.06992e-05 DIIS
   @RHF iter   6:  -533.63322796307716   -2.55828e-05   8.85391e-06 DIIS
   @RHF iter   7:  -533.63323257589025   -4.61281e-06   3.06970e-06 DIIS
   @RHF iter   8:  -533.63323354532929   -9.69439e-07   1.28419e-06 DIIS
   @RHF iter   9:  -533.63323374931997   -2.03991e-07   5.21592e-07 DIIS
   @RHF iter  10:  -533.63323377749305   -2.81731e-08   1.62210e-07 DIIS
   @RHF iter  11:  -533.63323378062796   -3.13491e-09   6.51779e-08 DIIS
   @RHF iter  12:  -533.63323378106452   -4.36557e-10   3.00760e-08 DIIS
   @RHF iter  13:  -533.63323378116092   -9.64064e-11   9.17602e-09 DIIS
   @RHF iter  14:  -533.63323378117286   -1.19371e-11   3.74824e-09 DIIS
   @RHF iter  15:  -533.63323378117207    7.95808e-13   1.77530e-09 DIIS
   @RHF iter  16:  -533.63323378117411   -2.04636e-12   6.33646e-10 DIIS
   @RHF iter  17:  -533.63323378117411    0.00000e+00   2.74266e-10 DIIS
   @RHF iter  18:  -533.63323378117616   -2.04636e-12   1.11600e-10 DIIS
   @RHF iter  19:  -533.63323378117286    3.29692e-12   5.13698e-11 DIIS
  Energy and wave function converged.

  ==> Post-Iterations <==

    Orbital Energies [Eh]
    ---------------------

    Doubly Occupied:

       1A    -15.620116     2A    -15.528784     3A    -11.293548
       4A    -11.251591     5A    -11.242116     6A    -11.239740
       7A    -11.231486     8A    -11.229803     9A    -11.229482
      10A    -11.229039    11A    -11.228113    12A    -11.224603
      13A    -11.223770    14A     -1.341994    15A     -1.157896
      16A     -1.154400    17A     -1.046953    18A     -1.032926
      19A     -1.014988    20A     -0.942274    21A     -0.932351
      22A     -0.825250    23A     -0.818301    24A     -0.796223
      25A     -0.763146    26A     -0.741628    27A     -0.692763
      28A     -0.634533    29A     -0.627602    30A     -0.612115
      31A     -0.605509    32A     -0.596975    33A     -0.583317
      34A     -0.577326    35A     -0.561465    36A     -0.550161
      37A     -0.544121    38A     -0.535243    39A     -0.522763
      40A     -0.490745    41A     -0.483187    42A     -0.481937
      43A     -0.412178    44A     -0.378747    45A     -0.335018
      46A     -0.322517    47A     -0.311026

    Virtual:

      48A      0.137022    49A      0.142730    50A      0.172260
      51A      0.182989    52A      0.191624    53A      0.194765
      54A      0.208849    55A      0.222974    56A      0.226741
      57A      0.230478    58A      0.236134    59A      0.253024
      60A      0.267688    61A      0.270450    62A      0.281224
      63A      0.291854    64A      0.299400    65A      0.313220
      66A      0.368194    67A      0.377368    68A      0.383040
      69A      0.392297    70A      0.415410    71A      0.451630
      72A      0.466080    73A      0.476233    74A      0.484889
      75A      0.495516    76A      0.514626    77A      0.568596
      78A      0.592169    79A      0.615845    80A      0.617672
      81A      0.632247    82A      0.648938    83A      0.655281
      84A      0.682699    85A      0.684924    86A      0.694174
      87A      0.708206    88A      0.716120    89A      0.727622
      90A      0.736630    91A      0.741225    92A      0.746736
      93A      0.750460    94A      0.757984    95A      0.763574
      96A      0.779021    97A      0.781425    98A      0.800150
      99A      0.810004   100A      0.825706   101A      0.834453
     102A      0.843360   103A      0.854781   104A      0.864232
     105A      0.877025   106A      0.881626   107A      0.883610
     108A      0.892484   109A      0.899725   110A      0.905292
     111A      0.912546   112A      0.923580   113A      0.926198
     114A      0.939676   115A      0.942517   116A      0.959153
     117A      0.970891   118A      0.993778   119A      1.017698
     120A      1.018046   121A      1.026703   122A      1.059258
     123A      1.079813   124A      1.090116   125A      1.106536
     126A      1.114677   127A      1.138285   128A      1.155191
     129A      1.165589   130A      1.171074   131A      1.173839
     132A      1.188340   133A      1.206361   134A      1.244223
     135A      1.246361   136A      1.253736   137A      1.258798
     138A      1.268683   139A      1.288747   140A      1.306313
     141A      1.312812   142A      1.320780   143A      1.323654
     144A      1.327673   145A      1.339918   146A      1.360876
     147A      1.410705   148A      1.433404   149A      1.453393
     150A      1.491706   151A      1.509044   152A      1.522318
     153A      1.526076   154A      1.552578   155A      1.572066
     156A      1.599103   157A      1.608155   158A      1.642685
     159A      1.678339   160A      1.689238   161A      1.695630
     162A      1.729265   163A      1.743138   164A      1.753126
     165A      1.766978   166A      1.780099   167A      1.792736
     168A      1.804814   169A      1.817727   170A      1.822516
     171A      1.857435   172A      1.880267   173A      1.893951
     174A      1.905052   175A      1.908208   176A      1.915048
     177A      1.923104   178A      1.924041   179A      1.939560
     180A      1.948970   181A      1.958041   182A      1.961515
     183A      1.967638   184A      1.978540   185A      1.991624
     186A      1.998042   187A      2.012518   188A      2.019825
     189A      2.030830   190A      2.049626   191A      2.060407
     192A      2.079799   193A      2.105747   194A      2.117725
     195A      2.122815   196A      2.131293   197A      2.142669
     198A      2.164085   199A      2.178938   200A      2.188816
     201A      2.199669   202A      2.205446   203A      2.218112
     204A      2.232689   205A      2.259316   206A      2.279017
     207A      2.300503   208A      2.303149   209A      2.338703
     210A      2.341023   211A      2.344459   212A      2.371885
     213A      2.408141   214A      2.446149   215A      2.456600
     216A      2.473702   217A      2.479006   218A      2.488481
     219A      2.521826   220A      2.543644   221A      2.550215
     222A      2.608723   223A      2.634137   224A      2.689531
     225A      2.738325   226A      2.744052   227A      2.749828
     228A      2.767300   229A      2.777220   230A      2.778852
     231A      2.791505   232A      2.804155   233A      2.818759
     234A      2.828600   235A      2.855524   236A      2.880776
     237A      2.881784   238A      2.896912   239A      2.923042
     240A      2.971961   241A      2.998493   242A      3.024787
     243A      3.047753   244A      3.075267   245A      3.168213
     246A      3.176949   247A      3.221863   248A      3.245429
     249A      3.320753   250A      3.479736   251A      3.804049
     252A      4.002276

    Final Occupation by Irrep:
              A
    DOCC [    47 ]

  @RHF Final Energy:  -533.63323378117286

   => Energetics <=

    Nuclear Repulsion Energy =            708.3534748928509543
    One-Electron Energy =               -2127.5738762555829453
    Two-Electron Energy =                 885.5871675815591288
    Total Energy =                       -533.6332337811728621

Computation Completed

Properties will be evaluated at   0.000000,   0.000000,   0.000000 [a0]

Properties computed using the SCF density matrix

  Nuclear Dipole Moment: [e a0]
     X:    -5.9078      Y:     4.0406      Z:     0.4894

  Electronic Dipole Moment: [e a0]
     X:     5.4027      Y:    -3.7106      Z:     0.7381

  Dipole Moment: [e a0]
     X:    -0.5051      Y:     0.3300      Z:     1.2274     Total:     1.3677

  Dipole Moment: [D]
     X:    -1.2839      Y:     0.8387      Z:     3.1198     Total:     3.4764

*** tstop() called on ds3 at Mon Apr 27 18:36:17 2020
Module time:
	user time   =     184.50 seconds =       3.08 minutes
	system time =      85.68 seconds =       1.43 minutes
	total time  =        261 seconds =       4.35 minutes
Total time:
	user time   =     184.50 seconds =       3.08 minutes
	system time =      85.68 seconds =       1.43 minutes
	total time  =        261 seconds =       4.35 minutes
                                     G D M A

                                 by Anthony Stone

                           version 2.2.06, 22 June 2011

               Distributed Multipoles from Gaussian wavefunctions

Starting at 18:36:17 on 27 Apr 2020

Using SCF density matrix from file ./SSI/SSI-148PHE-164HIE-1-dimer.test.23894.fchk

                         Distributed Multipole Analysis

Standard DMA

Positions and radii in angstrom
Multipole moments in atomic units, ea_0^k for rank k

C          x = -2.114562  y =  4.025854  z =  1.708599 angstrom
           Maximum rank =  0   Radius =  0.650 angstrom
                   Q00  =  -0.204321

C          x = -0.772562  y =  0.946854  z = -0.014401 angstrom
           Maximum rank =  0   Radius =  0.650 angstrom
                   Q00  =  -0.039840

C          x = -1.647562  y =  1.850854  z =  0.546599 angstrom
           Maximum rank =  0   Radius =  0.650 angstrom
                   Q00  =  -0.093572

C          x =  0.576438  y =  1.233854  z = -0.085401 angstrom
           Maximum rank =  0   Radius =  0.650 angstrom
                   Q00  =  -0.051328

C          x = -1.170562  y =  3.040854  z =  1.086599 angstrom
           Maximum rank =  0   Radius =  0.650 angstrom
                   Q00  =  -0.096126

C          x =  1.065438  y =  2.408854  z =  0.427599 angstrom
           Maximum rank =  0   Radius =  0.650 angstrom
                   Q00  =  -0.068148

C          x =  0.195438  y =  3.308854  z =  1.019599 angstrom
           Maximum rank =  0   Radius =  0.650 angstrom
                   Q00  =  -0.042959

H          x = -1.145562  y =  0.014854  z = -0.420401 angstrom
           Maximum rank =  0   Radius =  0.325 angstrom
                   Q00  =   0.068637

H          x = -2.705562  y =  1.621854  z =  0.580599 angstrom
           Maximum rank =  0   Radius =  0.325 angstrom
                   Q00  =   0.050954

H          x =  1.253438  y =  0.526854  z = -0.546401 angstrom
           Maximum rank =  0   Radius =  0.325 angstrom
                   Q00  =   0.064920

H          x =  2.123438  y =  2.623854  z =  0.362599 angstrom
           Maximum rank =  0   Radius =  0.325 angstrom
                   Q00  =   0.060391

H          x = -2.977562  y =  4.133854  z =  1.048599 angstrom
           Maximum rank =  0   Radius =  0.325 angstrom
                   Q00  =   0.097762

H          x = -1.628562  y =  4.999854  z =  1.759599 angstrom
           Maximum rank =  0   Radius =  0.325 angstrom
                   Q00  =   0.097449

H          x =  0.591438  y =  4.227854  z =  1.425599 angstrom
           Maximum rank =  0   Radius =  0.325 angstrom
                   Q00  =   0.054719

H          x = -2.477212  y =  3.752784  z =  2.710556 angstrom
           Maximum rank =  0   Radius =  0.325 angstrom
                   Q00  =   0.102676

C          x = -0.420562  y = -3.514146  z = -2.528401 angstrom
           Maximum rank =  0   Radius =  0.650 angstrom
                   Q00  =  -0.192631

C          x = -0.223562  y = -2.695146  z = -0.074401 angstrom
           Maximum rank =  0   Radius =  0.650 angstrom
                   Q00  =  -0.007102

C          x =  0.256438  y = -2.964146  z = -1.315401 angstrom
           Maximum rank =  0   Radius =  0.650 angstrom
                   Q00  =   0.223273

C          x =  1.932438  y = -2.258146  z = -0.084401 angstrom
           Maximum rank =  0   Radius =  0.650 angstrom
                   Q00  =   0.461845

N          x =  0.834438  y = -2.227146  z =  0.668599 angstrom
           Maximum rank =  0   Radius =  0.650 angstrom
                   Q00  =  -0.477717

N          x =  1.609438  y = -2.696146  z = -1.294401 angstrom
           Maximum rank =  0   Radius =  0.650 angstrom
                   Q00  =  -0.774164

H          x = -1.248562  y = -2.807146  z =  0.246599 angstrom
           Maximum rank =  0   Radius =  0.325 angstrom
                   Q00  =   0.101986

H          x =  0.781438  y = -1.852146  z =  1.609599 angstrom
           Maximum rank =  0   Radius =  0.325 angstrom
                   Q00  =   0.226749

H          x = -1.474562  y = -3.665146  z = -2.312401 angstrom
           Maximum rank =  0   Radius =  0.325 angstrom
                   Q00  =   0.089706

H          x =  0.011438  y = -4.489146  z = -2.751401 angstrom
           Maximum rank =  0   Radius =  0.325 angstrom
                   Q00  =   0.110911

H          x =  2.916438  y = -1.926146  z =  0.218599 angstrom
           Maximum rank =  0   Radius =  0.325 angstrom
                   Q00  =   0.123610

H          x = -0.314312  y = -2.867216  z = -3.411689 angstrom
           Maximum rank =  0   Radius =  0.325 angstrom
                   Q00  =   0.112321

Total multipoles referred to origin at
           x =   0.000000,  y =    0.000000,  z =    0.000000 angstrom
                   Q00  =  -0.000000

Finished at 18:36:17 on 27 Apr 2020

  DMA results are available in the Python driver through the
	  variable('DMA DISTRIBUTED MULTIPOLES')
  and
	  variable('DMA TOTAL MULTIPOLES')
  commands.

    Psi4 stopped on: Monday, 27 April 2020 06:36PM
    Psi4 wall time for execution: 0:04:21.01

*** Psi4 exiting successfully. Buy a developer a beer!
