                               Psi4 1.3.2 release

  ==> Input File <==

--------------------------------------------------------------------------
import numpy as np
set {scf_type pk
basis cc-pvdz
d_convergence 10
gdma_switch   0
gdma_limit    0
gdma_origin   [ 0.0,  0.0,  0.0 ]
}
molecule test {
    units Angstrom
    0 1
    --
    0 1
    C                1.721089779919384     1.911203404880039    -2.058859014424529
    C                3.049089779919384     1.253203404880038    -1.683859014424529
    C                1.795089779919384     2.998203404880039    -3.123859014424529
    H                1.034089779919384     1.134203404880038    -2.396859014424529
    H                1.297089779919384     2.350203404880038    -1.153859014424528
    H                3.780089779919384     2.029203404880039    -1.467859014424529
    H                2.228089779919384     2.603203404880039    -4.039859014424528
    H                3.429919779919384     0.635967404880038    -2.510899014424529
    H                2.950079779919384     0.677907404880038    -0.751529014424529
    H                0.767779779919384     3.332946404880039    -3.330189014424529
    H                2.416399779919384     3.843476404880039    -2.792979014424528
    C               -1.959910220080616    -3.263796595119961     1.058140985575471
    C               -1.001910220080616     0.253203404880039    -0.001859014424529
    C               -0.379910220080616     0.742203404880039     1.118140985575471
    C               -1.518910220080616    -1.032796595119961    -0.010859014424529
    C               -1.403910220080616    -1.859796595119962     1.090140985575472
    C               -0.249910220080616    -0.069796595119962     2.228140985575471
    C               -0.747910220080616    -1.370796595119962     2.213140985575471
    H               -1.095910220080616     0.875203404880039    -0.881859014424529
    H                0.038089779919384     1.738203404880038     1.123140985575471
    H               -1.993910220080616    -1.397796595119961    -0.907859014424529
    H                0.300089779919384     0.278203404880038     3.088140985575471
    H               -1.167910220080616    -3.961796595119961     1.331140985575471
    H               -2.261910220080616    -3.492796595119962     0.036140985575471
    H               -0.593910220080616    -2.002796595119961     3.075140985575471
    H               -2.827890220080616    -3.416842695119962     1.716310985575471

}
e, wfn = energy('scf', return_wfn=True)
gdma(wfn)
dmavals = variable('DMA DISTRIBUTED MULTIPOLES')
charges = np.array(dmavals)
print(charges)
np.save('SSI-150LEU-159PHE-1-dimer.npy', np.array(charges))--------------------------------------------------------------------------

*** tstart() called on ds3
*** at Mon Apr 27 23:40:30 2020

   => Loading Basis Set <=

    Name: CC-PVDZ
    Role: ORBITAL
    Keyword: BASIS
    atoms 1-3, 12-18  entry C          line   138 file /theoryfs2/ds/metcalf/miniconda2/envs/tf2gpu/share/psi4/basis/cc-pvdz.gbs
    atoms 4-11, 19-26 entry H          line    22 file /theoryfs2/ds/metcalf/miniconda2/envs/tf2gpu/share/psi4/basis/cc-pvdz.gbs

         ---------------------------------------------------------
                                   SCF
               by Justin Turney, Rob Parrish, Andy Simmonett
                          and Daniel G. A. Smith
                              RHF Reference
                        1 Threads,    500 MiB Core
         ---------------------------------------------------------

  ==> Geometry <==

    Molecular point group: c1
    Full point group: C1

    Geometry (in Angstrom), charge = 0, multiplicity = 1:

       Center              X                  Y                   Z               Mass
    ------------   -----------------  -----------------  -----------------  -----------------
         C            1.721089779919     1.911203404880    -2.058859014425    12.000000000000
         C            3.049089779919     1.253203404880    -1.683859014425    12.000000000000
         C            1.795089779919     2.998203404880    -3.123859014425    12.000000000000
         H            1.034089779919     1.134203404880    -2.396859014425     1.007825032230
         H            1.297089779919     2.350203404880    -1.153859014425     1.007825032230
         H            3.780089779919     2.029203404880    -1.467859014425     1.007825032230
         H            2.228089779919     2.603203404880    -4.039859014425     1.007825032230
         H            3.429919779919     0.635967404880    -2.510899014425     1.007825032230
         H            2.950079779919     0.677907404880    -0.751529014425     1.007825032230
         H            0.767779779919     3.332946404880    -3.330189014425     1.007825032230
         H            2.416399779919     3.843476404880    -2.792979014425     1.007825032230
         C           -1.959910220081    -3.263796595120     1.058140985575    12.000000000000
         C           -1.001910220081     0.253203404880    -0.001859014425    12.000000000000
         C           -0.379910220081     0.742203404880     1.118140985575    12.000000000000
         C           -1.518910220081    -1.032796595120    -0.010859014425    12.000000000000
         C           -1.403910220081    -1.859796595120     1.090140985575    12.000000000000
         C           -0.249910220081    -0.069796595120     2.228140985575    12.000000000000
         C           -0.747910220081    -1.370796595120     2.213140985575    12.000000000000
         H           -1.095910220081     0.875203404880    -0.881859014425     1.007825032230
         H            0.038089779919     1.738203404880     1.123140985575     1.007825032230
         H           -1.993910220081    -1.397796595120    -0.907859014425     1.007825032230
         H            0.300089779919     0.278203404880     3.088140985575     1.007825032230
         H           -1.167910220081    -3.961796595120     1.331140985575     1.007825032230
         H           -2.261910220081    -3.492796595120     0.036140985575     1.007825032230
         H           -0.593910220081    -2.002796595120     3.075140985575     1.007825032230
         H           -2.827890220081    -3.416842695120     1.716310985575     1.007825032230

  Running in c1 symmetry.

  Rotational constants: A =      0.07936  B =      0.01454  C =      0.01389 [cm^-1]
  Rotational constants: A =   2379.00334  B =    435.80279  C =    416.46892 [MHz]
  Nuclear repulsion =  475.919656519353168

  Charge       = 0
  Multiplicity = 1
  Electrons    = 76
  Nalpha       = 38
  Nbeta        = 38

  ==> Algorithm <==

  SCF Algorithm Type is PK.
  DIIS enabled.
  MOM disabled.
  Fractional occupation disabled.
  Guess Type is SAD.
  Energy threshold   = 1.00e-06
  Density threshold  = 1.00e-10
  Integral threshold = 0.00e+00

  ==> Primary Basis <==

  Basis Set: CC-PVDZ
    Blend: CC-PVDZ
    Number of shells: 108
    Number of basis function: 220
    Number of Cartesian functions: 230
    Spherical Harmonics?: true
    Max angular momentum: 2

  ==> Pre-Iterations <==

   -------------------------------------------------------
    Irrep   Nso     Nmo     Nalpha   Nbeta   Ndocc  Nsocc
   -------------------------------------------------------
     A        220     220       0       0       0       0
   -------------------------------------------------------
    Total     220     220      38      38      38       0
   -------------------------------------------------------

  ==> Integral Setup <==

  Using integral reordering PK algorithm.
  Sizing the integral batches needed.
  Building batch lookup table.
   Calculation information:
      Number of atoms:                  26
      Number of AO shells:             108
      Number of primitives:            300
      Number of atomic orbitals:       230
      Number of basis functions:       220

      Integral cutoff                 1.00e-12
      Number of threads:                 1

	Batch   1 pq = [       0,    9405] index = [             0,44231715] size =     44231715
	Batch   2 pq = [    9405,   13301] index = [      44231715,88464951] size =     44233236
	Batch   3 pq = [   13301,   16290] index = [      88464951,132690195] size =     44225244
	Batch   4 pq = [   16290,   18810] index = [     132690195,176917455] size =     44227260
	Batch   5 pq = [   18810,   21030] index = [     176917455,221140965] size =     44223510
	Batch   6 pq = [   21030,   23037] index = [     221140965,265363203] size =     44222238
	Batch   7 pq = [   23037,   24310] index = [     265363203,295500205] size =     30137002
  Task number: 27
  Buffer size: 11059200
  Buffer per thread: 2
  We computed 13610295 shell quartets total.
  Whereas there are 17325441 unique shell quartets.

  ==> DiskJK: Disk-Based J/K Matrices <==

    J tasked:                  Yes
    K tasked:                  Yes
    wK tasked:                  No
    Memory [MiB]:              375
    Schwarz Cutoff:          1E-12

    OpenMP threads:              1

  Minimum eigenvalue in the overlap matrix is 2.9252705376E-04.
  Using Symmetric Orthogonalization.

  SCF Guess: Superposition of Atomic Densities via on-the-fly atomic UHF.

  ==> Iterations <==

                        Total Energy        Delta E     RMS |[F,P]|

   @RHF iter SAD:  -386.95651236420866   -3.86957e+02   0.00000e+00
   @RHF iter   1:  -387.76876238661782   -8.12250e-01   2.77378e-03 DIIS
   @RHF iter   2:  -387.99029624013031   -2.21534e-01   1.17407e-03 DIIS
   @RHF iter   3:  -388.02641740441561   -3.61212e-02   2.50415e-04 DIIS
   @RHF iter   4:  -388.02932180696882   -2.90440e-03   5.02287e-05 DIIS
   @RHF iter   5:  -388.02940722290185   -8.54159e-05   1.51138e-05 DIIS
   @RHF iter   6:  -388.02941468165966   -7.45876e-06   4.53490e-06 DIIS
   @RHF iter   7:  -388.02941541308746   -7.31428e-07   1.26541e-06 DIIS
   @RHF iter   8:  -388.02941548295206   -6.98646e-08   3.18279e-07 DIIS
   @RHF iter   9:  -388.02941549364976   -1.06977e-08   1.39209e-07 DIIS
   @RHF iter  10:  -388.02941549618419   -2.53442e-09   7.04232e-08 DIIS
   @RHF iter  11:  -388.02941549691980   -7.35611e-10   2.69763e-08 DIIS
   @RHF iter  12:  -388.02941549703615   -1.16358e-10   1.08477e-08 DIIS
   @RHF iter  13:  -388.02941549704991   -1.37561e-11   3.55225e-09 DIIS
   @RHF iter  14:  -388.02941549705059   -6.82121e-13   8.40981e-10 DIIS
   @RHF iter  15:  -388.02941549704565    4.94538e-12   2.82460e-10 DIIS
   @RHF iter  16:  -388.02941549704764   -1.98952e-12   9.70528e-11 DIIS
  Energy and wave function converged.

  ==> Post-Iterations <==

    Orbital Energies [Eh]
    ---------------------

    Doubly Occupied:

       1A    -11.238625     2A    -11.233054     3A    -11.230768
       4A    -11.229746     5A    -11.228978     6A    -11.227153
       7A    -11.226768     8A    -11.217997     9A    -11.216806
      10A    -11.214255    11A     -1.157283    12A     -1.051502
      13A     -1.046931    14A     -1.011774    15A     -0.933144
      16A     -0.924511    17A     -0.826349    18A     -0.796364
      19A     -0.793807    20A     -0.693332    21A     -0.633457
      22A     -0.627783    23A     -0.623430    24A     -0.591192
      25A     -0.580465    26A     -0.576894    27A     -0.564807
      28A     -0.550481    29A     -0.534928    30A     -0.531593
      31A     -0.490965    32A     -0.484343    33A     -0.480945
      34A     -0.470457    35A     -0.465316    36A     -0.464698
      37A     -0.331442    38A     -0.325341

    Virtual:

      39A      0.136716    40A      0.144151    41A      0.171078
      42A      0.190985    43A      0.204584    44A      0.210311
      45A      0.225984    46A      0.229650    47A      0.241476
      48A      0.256932    49A      0.261988    50A      0.265080
      51A      0.275687    52A      0.289964    53A      0.295200
      54A      0.301516    55A      0.310369    56A      0.333305
      57A      0.367392    58A      0.375042    59A      0.379799
      60A      0.428647    61A      0.460462    62A      0.467560
      63A      0.482901    64A      0.505708    65A      0.566154
      66A      0.575240    67A      0.594653    68A      0.606505
      69A      0.613684    70A      0.623220    71A      0.628568
      72A      0.651789    73A      0.687576    74A      0.693712
      75A      0.711824    76A      0.721495    77A      0.740799
      78A      0.749685    79A      0.750355    80A      0.759889
      81A      0.764766    82A      0.773864    83A      0.782694
      84A      0.792942    85A      0.810788    86A      0.827239
      87A      0.852089    88A      0.860506    89A      0.867362
      90A      0.877623    91A      0.881879    92A      0.891896
      93A      0.896187    94A      0.900109    95A      0.902839
      96A      0.910538    97A      0.913254    98A      0.917826
      99A      0.927559   100A      0.930904   101A      0.936928
     102A      0.941273   103A      0.964652   104A      0.974119
     105A      0.993122   106A      1.002790   107A      1.018060
     108A      1.056877   109A      1.118062   110A      1.120294
     111A      1.141361   112A      1.148399   113A      1.157654
     114A      1.174941   115A      1.197448   116A      1.216959
     117A      1.227440   118A      1.243751   119A      1.260078
     120A      1.267280   121A      1.304121   122A      1.312205
     123A      1.327266   124A      1.333863   125A      1.384861
     126A      1.415951   127A      1.473109   128A      1.486322
     129A      1.513433   130A      1.521201   131A      1.541645
     132A      1.548202   133A      1.603196   134A      1.647886
     135A      1.673455   136A      1.676628   137A      1.685867
     138A      1.686014   139A      1.704810   140A      1.740105
     141A      1.752647   142A      1.767112   143A      1.793501
     144A      1.821460   145A      1.863373   146A      1.866071
     147A      1.873081   148A      1.885176   149A      1.894492
     150A      1.901166   151A      1.906554   152A      1.909553
     153A      1.921043   154A      1.923566   155A      1.933239
     156A      1.943009   157A      1.950400   158A      1.963494
     159A      1.964641   160A      1.969961   161A      1.980927
     162A      1.987221   163A      1.997124   164A      1.998010
     165A      2.010101   166A      2.025899   167A      2.034625
     168A      2.043553   169A      2.063223   170A      2.083265
     171A      2.118935   172A      2.136391   173A      2.141215
     174A      2.157047   175A      2.169208   176A      2.182791
     177A      2.185065   178A      2.208893   179A      2.250699
     180A      2.273124   181A      2.280513   182A      2.290212
     183A      2.299336   184A      2.309371   185A      2.332584
     186A      2.337566   187A      2.351343   188A      2.358716
     189A      2.454653   190A      2.477541   191A      2.488056
     192A      2.522671   193A      2.528947   194A      2.543768
     195A      2.592766   196A      2.612906   197A      2.633099
     198A      2.638378   199A      2.737308   200A      2.753047
     201A      2.756536   202A      2.760533   203A      2.771284
     204A      2.781993   205A      2.808617   206A      2.810940
     207A      2.823395   208A      2.850588   209A      2.875793
     210A      2.921455   211A      2.955949   212A      2.981772
     213A      2.998175   214A      3.021466   215A      3.041440
     216A      3.071478   217A      3.174499   218A      3.219567
     219A      3.317453   220A      3.994520

    Final Occupation by Irrep:
              A
    DOCC [    38 ]

  @RHF Final Energy:  -388.02941549704764

   => Energetics <=

    Nuclear Repulsion Energy =            475.9196565193531683
    One-Electron Energy =               -1466.2427746595433291
    Two-Electron Energy =                 602.2937026431425238
    Total Energy =                       -388.0294154970476939

Computation Completed

Properties will be evaluated at   0.000000,   0.000000,   0.000000 [a0]

Properties computed using the SCF density matrix

  Nuclear Dipole Moment: [e a0]
     X:     7.7813      Y:     4.8999      Z:    -9.2469

  Electronic Dipole Moment: [e a0]
     X:    -7.8134      Y:    -5.0557      Z:     9.2692

  Dipole Moment: [e a0]
     X:    -0.0321      Y:    -0.1559      Z:     0.0223     Total:     0.1607

  Dipole Moment: [D]
     X:    -0.0817      Y:    -0.3962      Z:     0.0566     Total:     0.4085

*** tstop() called on ds3 at Mon Apr 27 23:42:58 2020
Module time:
	user time   =     108.44 seconds =       1.81 minutes
	system time =      46.40 seconds =       0.77 minutes
	total time  =        148 seconds =       2.47 minutes
Total time:
	user time   =     108.44 seconds =       1.81 minutes
	system time =      46.40 seconds =       0.77 minutes
	total time  =        148 seconds =       2.47 minutes
                                     G D M A

                                 by Anthony Stone

                           version 2.2.06, 22 June 2011

               Distributed Multipoles from Gaussian wavefunctions

Starting at 23:42:58 on 27 Apr 2020

Using SCF density matrix from file ./SSI/SSI-150LEU-159PHE-1-dimer.test.3647.fchk

                         Distributed Multipole Analysis

Standard DMA

Positions and radii in angstrom
Multipole moments in atomic units, ea_0^k for rank k

C          x =  1.721090  y =  1.911203  z = -2.058859 angstrom
           Maximum rank =  0   Radius =  0.650 angstrom
                   Q00  =  -0.059199

C          x =  3.049090  y =  1.253203  z = -1.683859 angstrom
           Maximum rank =  0   Radius =  0.650 angstrom
                   Q00  =  -0.247189

C          x =  1.795090  y =  2.998203  z = -3.123859 angstrom
           Maximum rank =  0   Radius =  0.650 angstrom
                   Q00  =  -0.251745

H          x =  1.034090  y =  1.134203  z = -2.396859 angstrom
           Maximum rank =  0   Radius =  0.325 angstrom
                   Q00  =   0.044410

H          x =  1.297090  y =  2.350203  z = -1.153859 angstrom
           Maximum rank =  0   Radius =  0.325 angstrom
                   Q00  =   0.039167

H          x =  3.780090  y =  2.029203  z = -1.467859 angstrom
           Maximum rank =  0   Radius =  0.325 angstrom
                   Q00  =   0.070933

H          x =  2.228090  y =  2.603203  z = -4.039859 angstrom
           Maximum rank =  0   Radius =  0.325 angstrom
                   Q00  =   0.076977

H          x =  3.429920  y =  0.635967  z = -2.510899 angstrom
           Maximum rank =  0   Radius =  0.325 angstrom
                   Q00  =   0.079094

H          x =  2.950080  y =  0.677907  z = -0.751529 angstrom
           Maximum rank =  0   Radius =  0.325 angstrom
                   Q00  =   0.089750

H          x =  0.767780  y =  3.332946  z = -3.330189 angstrom
           Maximum rank =  0   Radius =  0.325 angstrom
                   Q00  =   0.080858

H          x =  2.416400  y =  3.843476  z = -2.792979 angstrom
           Maximum rank =  0   Radius =  0.325 angstrom
                   Q00  =   0.077654

C          x = -1.959910  y = -3.263797  z =  1.058141 angstrom
           Maximum rank =  0   Radius =  0.650 angstrom
                   Q00  =  -0.208180

C          x = -1.001910  y =  0.253203  z = -0.001859 angstrom
           Maximum rank =  0   Radius =  0.650 angstrom
                   Q00  =  -0.062268

C          x = -0.379910  y =  0.742203  z =  1.118141 angstrom
           Maximum rank =  0   Radius =  0.650 angstrom
                   Q00  =  -0.090754

C          x = -1.518910  y = -1.032797  z = -0.010859 angstrom
           Maximum rank =  0   Radius =  0.650 angstrom
                   Q00  =   0.017536

C          x = -1.403910  y = -1.859797  z =  1.090141 angstrom
           Maximum rank =  0   Radius =  0.650 angstrom
                   Q00  =  -0.102306

C          x = -0.249910  y = -0.069797  z =  2.228141 angstrom
           Maximum rank =  0   Radius =  0.650 angstrom
                   Q00  =  -0.059883

C          x = -0.747910  y = -1.370797  z =  2.213141 angstrom
           Maximum rank =  0   Radius =  0.650 angstrom
                   Q00  =  -0.092183

H          x = -1.095910  y =  0.875203  z = -0.881859 angstrom
           Maximum rank =  0   Radius =  0.325 angstrom
                   Q00  =   0.063483

H          x =  0.038090  y =  1.738203  z =  1.123141 angstrom
           Maximum rank =  0   Radius =  0.325 angstrom
                   Q00  =   0.058742

H          x = -1.993910  y = -1.397797  z = -0.907859 angstrom
           Maximum rank =  0   Radius =  0.325 angstrom
                   Q00  =   0.054352

H          x =  0.300090  y =  0.278203  z =  3.088141 angstrom
           Maximum rank =  0   Radius =  0.325 angstrom
                   Q00  =   0.062620

H          x = -1.167910  y = -3.961797  z =  1.331141 angstrom
           Maximum rank =  0   Radius =  0.325 angstrom
                   Q00  =   0.101605

H          x = -2.261910  y = -3.492797  z =  0.036141 angstrom
           Maximum rank =  0   Radius =  0.325 angstrom
                   Q00  =   0.096398

H          x = -0.593910  y = -2.002797  z =  3.075141 angstrom
           Maximum rank =  0   Radius =  0.325 angstrom
                   Q00  =   0.054581

H          x = -2.827890  y = -3.416843  z =  1.716311 angstrom
           Maximum rank =  0   Radius =  0.325 angstrom
                   Q00  =   0.105548

Total multipoles referred to origin at
           x =   0.000000,  y =    0.000000,  z =    0.000000 angstrom
                   Q00  =  -0.000000

Finished at 23:42:58 on 27 Apr 2020

  DMA results are available in the Python driver through the
	  variable('DMA DISTRIBUTED MULTIPOLES')
  and
	  variable('DMA TOTAL MULTIPOLES')
  commands.

    Psi4 stopped on: Monday, 27 April 2020 11:42PM
    Psi4 wall time for execution: 0:02:27.89

*** Psi4 exiting successfully. Buy a developer a beer!
