                               Psi4 1.3.2 release

  ==> Input File <==

--------------------------------------------------------------------------
import numpy as np
set {scf_type pk
basis cc-pvdz
d_convergence 10
gdma_switch   0
gdma_limit    0
gdma_origin   [ 0.0,  0.0,  0.0 ]
}
molecule test {
    units Angstrom
    0 1
    --
    0 1
    C                0.010742563526711    -0.921154655752983     1.067628442654406
    C               -1.445257436473289    -1.002154655752983     1.527628442654406
    C                0.366742563526711    -1.985154655752983     0.073628442654406
    H                0.193742563526711     0.036845344247017     0.611628442654406
    H                0.702742563526711    -0.995154655752983     1.902628442654406
    H               -1.606257436473289    -1.920154655752983     2.088628442654406
    H               -2.103257436473289    -0.999154655752983     0.655628442654406
    H               -0.367257436473289    -1.953154655752983    -0.735371557345594
    H                1.348742563526711    -1.740154655752983    -0.339371557345594
    H               -1.682245436473289    -0.135844655752983     2.162727442654406
    H                0.407284563526711    -2.991204655752983     0.516591442654406
    C               -0.004257436473289     2.134845344247017    -0.794371557345594
    C                1.062742563526711     1.705845344247017    -1.801371557345594
    H               -0.462257436473289     3.068845344247017    -1.098371557345594
    H               -0.800257436473289     1.394845344247017    -0.734371557345594
    H                0.447742563526711     2.282845344247017     0.184628442654406
    H                1.958742563526711     1.436845344247017    -1.239371557345594
    H                1.333352563526711     2.513395344247017    -2.497531557345594
    H                0.739763563526711     0.808165344247017    -2.348963557345594

}
e, wfn = energy('scf', return_wfn=True)
gdma(wfn)
dmavals = variable('DMA DISTRIBUTED MULTIPOLES')
charges = np.array(dmavals)
print(charges)
np.save('SSI-018ARG-057THR-1-dimer.npy', np.array(charges))--------------------------------------------------------------------------

*** tstart() called on ds3
*** at Tue Apr 28 12:41:39 2020

   => Loading Basis Set <=

    Name: CC-PVDZ
    Role: ORBITAL
    Keyword: BASIS
    atoms 1-3, 12-13  entry C          line   138 file /theoryfs2/ds/metcalf/miniconda2/envs/tf2gpu/share/psi4/basis/cc-pvdz.gbs
    atoms 4-11, 14-19 entry H          line    22 file /theoryfs2/ds/metcalf/miniconda2/envs/tf2gpu/share/psi4/basis/cc-pvdz.gbs

         ---------------------------------------------------------
                                   SCF
               by Justin Turney, Rob Parrish, Andy Simmonett
                          and Daniel G. A. Smith
                              RHF Reference
                        1 Threads,    500 MiB Core
         ---------------------------------------------------------

  ==> Geometry <==

    Molecular point group: c1
    Full point group: C1

    Geometry (in Angstrom), charge = 0, multiplicity = 1:

       Center              X                  Y                   Z               Mass
    ------------   -----------------  -----------------  -----------------  -----------------
         C            0.010742563527    -0.921154655753     1.067628442654    12.000000000000
         C           -1.445257436473    -1.002154655753     1.527628442654    12.000000000000
         C            0.366742563527    -1.985154655753     0.073628442654    12.000000000000
         H            0.193742563527     0.036845344247     0.611628442654     1.007825032230
         H            0.702742563527    -0.995154655753     1.902628442654     1.007825032230
         H           -1.606257436473    -1.920154655753     2.088628442654     1.007825032230
         H           -2.103257436473    -0.999154655753     0.655628442654     1.007825032230
         H           -0.367257436473    -1.953154655753    -0.735371557346     1.007825032230
         H            1.348742563527    -1.740154655753    -0.339371557346     1.007825032230
         H           -1.682245436473    -0.135844655753     2.162727442654     1.007825032230
         H            0.407284563527    -2.991204655753     0.516591442654     1.007825032230
         C           -0.004257436473     2.134845344247    -0.794371557346    12.000000000000
         C            1.062742563527     1.705845344247    -1.801371557346    12.000000000000
         H           -0.462257436473     3.068845344247    -1.098371557346     1.007825032230
         H           -0.800257436473     1.394845344247    -0.734371557346     1.007825032230
         H            0.447742563527     2.282845344247     0.184628442654     1.007825032230
         H            1.958742563527     1.436845344247    -1.239371557346     1.007825032230
         H            1.333352563527     2.513395344247    -2.497531557346     1.007825032230
         H            0.739763563527     0.808165344247    -2.348963557346     1.007825032230

  Running in c1 symmetry.

  Rotational constants: A =      0.19661  B =      0.05401  C =      0.04539 [cm^-1]
  Rotational constants: A =   5894.35198  B =   1619.21193  C =   1360.69164 [MHz]
  Nuclear repulsion =  184.641263897803583

  Charge       = 0
  Multiplicity = 1
  Electrons    = 44
  Nalpha       = 22
  Nbeta        = 22

  ==> Algorithm <==

  SCF Algorithm Type is PK.
  DIIS enabled.
  MOM disabled.
  Fractional occupation disabled.
  Guess Type is SAD.
  Energy threshold   = 1.00e-06
  Density threshold  = 1.00e-10
  Integral threshold = 0.00e+00

  ==> Primary Basis <==

  Basis Set: CC-PVDZ
    Blend: CC-PVDZ
    Number of shells: 72
    Number of basis function: 140
    Number of Cartesian functions: 145
    Spherical Harmonics?: true
    Max angular momentum: 2

  ==> Pre-Iterations <==

   -------------------------------------------------------
    Irrep   Nso     Nmo     Nalpha   Nbeta   Ndocc  Nsocc
   -------------------------------------------------------
     A        140     140       0       0       0       0
   -------------------------------------------------------
    Total     140     140      22      22      22       0
   -------------------------------------------------------

  ==> Integral Setup <==

  Using integral reordering PK algorithm.
  Sizing the integral batches needed.
  Building batch lookup table.
   Calculation information:
      Number of atoms:                  19
      Number of AO shells:              72
      Number of primitives:            180
      Number of atomic orbitals:       145
      Number of basis functions:       140

      Integral cutoff                 1.00e-12
      Number of threads:                 1

	Batch   1 pq = [       0,    9405] index = [             0,44231715] size =     44231715
	Batch   2 pq = [    9405,    9870] index = [      44231715,48713385] size =      4481670
  Task number: 5
  Buffer size: 11059200
  Buffer per thread: 2
  We computed 3177076 shell quartets total.
  Whereas there are 3454506 unique shell quartets.

  ==> DiskJK: Disk-Based J/K Matrices <==

    J tasked:                  Yes
    K tasked:                  Yes
    wK tasked:                  No
    Memory [MiB]:              375
    Schwarz Cutoff:          1E-12

    OpenMP threads:              1

  Minimum eigenvalue in the overlap matrix is 5.2438316259E-03.
  Using Symmetric Orthogonalization.

  SCF Guess: Superposition of Atomic Densities via on-the-fly atomic UHF.

  ==> Iterations <==

                        Total Energy        Delta E     RMS |[F,P]|

   @RHF iter SAD:  -196.46309554138253   -1.96463e+02   0.00000e+00
   @RHF iter   1:  -197.30031812192550   -8.37223e-01   3.84334e-03 DIIS
   @RHF iter   2:  -197.46278533355016   -1.62467e-01   1.66703e-03 DIIS
   @RHF iter   3:  -197.49205054433304   -2.92652e-02   3.29091e-04 DIIS
   @RHF iter   4:  -197.49431458476090   -2.26404e-03   4.89115e-05 DIIS
   @RHF iter   5:  -197.49435451049567   -3.99257e-05   1.48894e-05 DIIS
   @RHF iter   6:  -197.49435790115223   -3.39066e-06   2.50561e-06 DIIS
   @RHF iter   7:  -197.49435801378291   -1.12631e-07   4.77552e-07 DIIS
   @RHF iter   8:  -197.49435801837754   -4.59463e-09   1.22090e-07 DIIS
   @RHF iter   9:  -197.49435801866341   -2.85866e-10   3.76587e-08 DIIS
   @RHF iter  10:  -197.49435801869564   -3.22302e-11   8.32871e-09 DIIS
   @RHF iter  11:  -197.49435801869762   -1.98952e-12   1.62739e-09 DIIS
   @RHF iter  12:  -197.49435801869700    6.25278e-13   3.36776e-10 DIIS
   @RHF iter  13:  -197.49435801869782   -8.24230e-13   7.49986e-11 DIIS
  Energy and wave function converged.

  ==> Post-Iterations <==

    Orbital Energies [Eh]
    ---------------------

    Doubly Occupied:

       1A    -11.219623     2A    -11.215957     3A    -11.215560
       4A    -11.213190     5A    -11.211592     6A     -1.058712
       7A     -1.019860     8A     -0.924450     9A     -0.840146
      10A     -0.795717    11A     -0.631563    12A     -0.602364
      13A     -0.600706    14A     -0.591857    15A     -0.550174
      16A     -0.531974    17A     -0.504504    18A     -0.488891
      19A     -0.483407    20A     -0.471771    21A     -0.468512
      22A     -0.459700

    Virtual:

      23A      0.165474    24A      0.197080    25A      0.210356
      26A      0.216995    27A      0.232925    28A      0.254625
      29A      0.261317    30A      0.265560    31A      0.276365
      32A      0.289173    33A      0.303181    34A      0.328005
      35A      0.333546    36A      0.336351    37A      0.381352
      38A      0.399366    39A      0.435244    40A      0.572220
      41A      0.581828    42A      0.590008    43A      0.610202
      44A      0.613751    45A      0.633648    46A      0.653865
      47A      0.695774    48A      0.740594    49A      0.765397
      50A      0.785248    51A      0.825049    52A      0.844121
      53A      0.850241    54A      0.871891    55A      0.886657
      56A      0.888182    57A      0.891931    58A      0.900989
      59A      0.904487    60A      0.913613    61A      0.930420
      62A      0.932551    63A      0.939415    64A      0.953767
      65A      0.963233    66A      0.988243    67A      0.997101
      68A      1.035920    69A      1.080137    70A      1.123234
      71A      1.135932    72A      1.136533    73A      1.208301
      74A      1.352671    75A      1.393677    76A      1.465459
      77A      1.473907    78A      1.501962    79A      1.511834
      80A      1.537569    81A      1.614262    82A      1.643762
      83A      1.677714    84A      1.682700    85A      1.689121
      86A      1.691991    87A      1.724776    88A      1.824810
      89A      1.832788    90A      1.855044    91A      1.869520
      92A      1.880386    93A      1.884811    94A      1.898316
      95A      1.914572    96A      1.926425    97A      1.951940
      98A      1.961786    99A      1.968614   100A      1.974436
     101A      1.980166   102A      1.994119   103A      1.996398
     104A      2.007235   105A      2.042659   106A      2.064116
     107A      2.079870   108A      2.141627   109A      2.175747
     110A      2.243358   111A      2.275877   112A      2.294329
     113A      2.301288   114A      2.312001   115A      2.317537
     116A      2.328428   117A      2.351839   118A      2.357460
     119A      2.368012   120A      2.489321   121A      2.557646
     122A      2.580860   123A      2.623852   124A      2.638259
     125A      2.656953   126A      2.670986   127A      2.748327
     128A      2.767993   129A      2.776272   130A      2.790095
     131A      2.793056   132A      2.807289   133A      2.823456
     134A      2.830061   135A      2.933534   136A      2.944985
     137A      2.961758   138A      2.983508   139A      2.992664
     140A      3.120170

    Final Occupation by Irrep:
              A
    DOCC [    22 ]

  @RHF Final Energy:  -197.49435801869782

   => Energetics <=

    Nuclear Repulsion Energy =            184.6412638978035829
    One-Electron Energy =                -630.0707816376907431
    Two-Electron Energy =                 247.9351597211893363
    Total Energy =                       -197.4943580186978238

Computation Completed

Properties will be evaluated at   0.000000,   0.000000,   0.000000 [a0]

Properties computed using the SCF density matrix

  Nuclear Dipole Moment: [e a0]
     X:     0.1037      Y:     0.7565      Z:    -0.8164

  Electronic Dipole Moment: [e a0]
     X:    -0.0708      Y:    -0.6863      Z:     0.8163

  Dipole Moment: [e a0]
     X:     0.0329      Y:     0.0702      Z:    -0.0001     Total:     0.0775

  Dipole Moment: [D]
     X:     0.0835      Y:     0.1784      Z:    -0.0002     Total:     0.1970

*** tstop() called on ds3 at Tue Apr 28 12:42:12 2020
Module time:
	user time   =      17.72 seconds =       0.30 minutes
	system time =       5.79 seconds =       0.10 minutes
	total time  =         33 seconds =       0.55 minutes
Total time:
	user time   =      17.72 seconds =       0.30 minutes
	system time =       5.79 seconds =       0.10 minutes
	total time  =         33 seconds =       0.55 minutes
                                     G D M A

                                 by Anthony Stone

                           version 2.2.06, 22 June 2011

               Distributed Multipoles from Gaussian wavefunctions

Starting at 12:42:12 on 28 Apr 2020

Using SCF density matrix from file ./SSI/SSI-018ARG-057THR-1-dimer.test.15299.fchk

                         Distributed Multipole Analysis

Standard DMA

Positions and radii in angstrom
Multipole moments in atomic units, ea_0^k for rank k

C          x =  0.010743  y = -0.921155  z =  1.067628 angstrom
           Maximum rank =  0   Radius =  0.650 angstrom
                   Q00  =  -0.075219

C          x = -1.445257  y = -1.002155  z =  1.527628 angstrom
           Maximum rank =  0   Radius =  0.650 angstrom
                   Q00  =  -0.244154

C          x =  0.366743  y = -1.985155  z =  0.073628 angstrom
           Maximum rank =  0   Radius =  0.650 angstrom
                   Q00  =  -0.245343

H          x =  0.193743  y =  0.036845  z =  0.611628 angstrom
           Maximum rank =  0   Radius =  0.325 angstrom
                   Q00  =   0.058601

H          x =  0.702743  y = -0.995155  z =  1.902628 angstrom
           Maximum rank =  0   Radius =  0.325 angstrom
                   Q00  =   0.044615

H          x = -1.606257  y = -1.920155  z =  2.088628 angstrom
           Maximum rank =  0   Radius =  0.325 angstrom
                   Q00  =   0.079796

H          x = -2.103257  y = -0.999155  z =  0.655628 angstrom
           Maximum rank =  0   Radius =  0.325 angstrom
                   Q00  =   0.074247

H          x = -0.367257  y = -1.953155  z = -0.735372 angstrom
           Maximum rank =  0   Radius =  0.325 angstrom
                   Q00  =   0.068642

H          x =  1.348743  y = -1.740155  z = -0.339372 angstrom
           Maximum rank =  0   Radius =  0.325 angstrom
                   Q00  =   0.077999

H          x = -1.682245  y = -0.135845  z =  2.162727 angstrom
           Maximum rank =  0   Radius =  0.325 angstrom
                   Q00  =   0.082509

H          x =  0.407285  y = -2.991205  z =  0.516591 angstrom
           Maximum rank =  0   Radius =  0.325 angstrom
                   Q00  =   0.077784

C          x = -0.004257  y =  2.134845  z = -0.794372 angstrom
           Maximum rank =  0   Radius =  0.650 angstrom
                   Q00  =  -0.240795

C          x =  1.062743  y =  1.705845  z = -1.801372 angstrom
           Maximum rank =  0   Radius =  0.650 angstrom
                   Q00  =  -0.265574

H          x = -0.462257  y =  3.068845  z = -1.098372 angstrom
           Maximum rank =  0   Radius =  0.325 angstrom
                   Q00  =   0.086034

H          x = -0.800257  y =  1.394845  z = -0.734372 angstrom
           Maximum rank =  0   Radius =  0.325 angstrom
                   Q00  =   0.083563

H          x =  0.447743  y =  2.282845  z =  0.184628 angstrom
           Maximum rank =  0   Radius =  0.325 angstrom
                   Q00  =   0.082754

H          x =  1.958743  y =  1.436845  z = -1.239372 angstrom
           Maximum rank =  0   Radius =  0.325 angstrom
                   Q00  =   0.080785

H          x =  1.333353  y =  2.513395  z = -2.497532 angstrom
           Maximum rank =  0   Radius =  0.325 angstrom
                   Q00  =   0.088192

H          x =  0.739764  y =  0.808165  z = -2.348964 angstrom
           Maximum rank =  0   Radius =  0.325 angstrom
                   Q00  =   0.085566

Total multipoles referred to origin at
           x =   0.000000,  y =    0.000000,  z =    0.000000 angstrom
                   Q00  =  -0.000000

Finished at 12:42:12 on 28 Apr 2020

  DMA results are available in the Python driver through the
	  variable('DMA DISTRIBUTED MULTIPOLES')
  and
	  variable('DMA TOTAL MULTIPOLES')
  commands.

    Psi4 stopped on: Tuesday, 28 April 2020 12:42PM
    Psi4 wall time for execution: 0:00:33.57

*** Psi4 exiting successfully. Buy a developer a beer!
