                               Psi4 1.3.2 release

  ==> Input File <==

--------------------------------------------------------------------------
import numpy as np
set {scf_type pk
basis cc-pvdz
d_convergence 10
gdma_switch   0
gdma_limit    0
gdma_origin   [ 0.0,  0.0,  0.0 ]
}
molecule test {
    units Angstrom
    0 1
    --
    0 1
    C               -0.928764862965354     1.568656822346015    -2.240132985656800
    C               -0.652764862965354    -0.181343177653986    -0.413132985656800
    C               -0.601764862965354     1.156656822346015    -0.825132985656799
    C               -0.365764862965354    -0.539343177653986     0.909867014343200
    C               -0.230764862965354     2.126656822346014     0.108867014343201
    C               -0.003764862965354     0.443656822346014     1.814867014343200
    C                0.061235137034646     1.774656822346015     1.425867014343200
    O                0.287235137034646     0.100656822346014     3.100867014343200
    H               -0.942764862965354    -0.949343177653986    -1.117132985656800
    H               -0.417764862965354    -1.570343177653986     1.230867014343200
    H               -0.553764862965354     2.581656822346015    -2.368132985656800
    H               -0.281764862965354     0.951656822346014    -2.886132985656800
    H               -0.153764862965354     3.160656822346014    -0.191132985656799
    H                0.352235137034646     2.536656822346014     2.136867014343200
    H                0.495235137034646     0.871656822346014     3.641867014343200
    H               -2.006931862965354     1.603926822346014    -2.455332985656800
    C                0.892235137034646    -2.582343177653986    -2.568132985656799
    C                1.211235137034646    -3.216343177653986    -1.220132985656800
    H               -0.062764862965354    -2.942343177653986    -2.953132985656800
    H                0.829235137034646    -1.497343177653986    -2.471132985656799
    H                1.687235137034646    -2.811343177653986    -3.278132985656800
    H                0.351235137034646    -3.107343177653986    -0.562132985656799
    H                1.442162137034646    -4.281773177653986    -1.366892985656800
    H                2.072496137034646    -2.703483177653986    -0.767142985656800

}
e, wfn = energy('scf', return_wfn=True)
gdma(wfn)
dmavals = variable('DMA DISTRIBUTED MULTIPOLES')
charges = np.array(dmavals)
print(charges)
np.save('SSI-003TYR-028VAL-1-dimer.npy', np.array(charges))--------------------------------------------------------------------------

*** tstart() called on ds3
*** at Mon Apr 27 08:14:35 2020

   => Loading Basis Set <=

    Name: CC-PVDZ
    Role: ORBITAL
    Keyword: BASIS
    atoms 1-7, 17-18  entry C          line   138 file /theoryfs2/ds/metcalf/miniconda2/envs/tf2gpu/share/psi4/basis/cc-pvdz.gbs
    atoms 8           entry O          line   198 file /theoryfs2/ds/metcalf/miniconda2/envs/tf2gpu/share/psi4/basis/cc-pvdz.gbs
    atoms 9-16, 19-24 entry H          line    22 file /theoryfs2/ds/metcalf/miniconda2/envs/tf2gpu/share/psi4/basis/cc-pvdz.gbs

         ---------------------------------------------------------
                                   SCF
               by Justin Turney, Rob Parrish, Andy Simmonett
                          and Daniel G. A. Smith
                              RHF Reference
                        1 Threads,    500 MiB Core
         ---------------------------------------------------------

  ==> Geometry <==

    Molecular point group: c1
    Full point group: C1

    Geometry (in Angstrom), charge = 0, multiplicity = 1:

       Center              X                  Y                   Z               Mass
    ------------   -----------------  -----------------  -----------------  -----------------
         C           -0.928764862965     1.568656822346    -2.240132985657    12.000000000000
         C           -0.652764862965    -0.181343177654    -0.413132985657    12.000000000000
         C           -0.601764862965     1.156656822346    -0.825132985657    12.000000000000
         C           -0.365764862965    -0.539343177654     0.909867014343    12.000000000000
         C           -0.230764862965     2.126656822346     0.108867014343    12.000000000000
         C           -0.003764862965     0.443656822346     1.814867014343    12.000000000000
         C            0.061235137035     1.774656822346     1.425867014343    12.000000000000
         O            0.287235137035     0.100656822346     3.100867014343    15.994914619570
         H           -0.942764862965    -0.949343177654    -1.117132985657     1.007825032230
         H           -0.417764862965    -1.570343177654     1.230867014343     1.007825032230
         H           -0.553764862965     2.581656822346    -2.368132985657     1.007825032230
         H           -0.281764862965     0.951656822346    -2.886132985657     1.007825032230
         H           -0.153764862965     3.160656822346    -0.191132985657     1.007825032230
         H            0.352235137035     2.536656822346     2.136867014343     1.007825032230
         H            0.495235137035     0.871656822346     3.641867014343     1.007825032230
         H           -2.006931862965     1.603926822346    -2.455332985657     1.007825032230
         C            0.892235137035    -2.582343177654    -2.568132985657    12.000000000000
         C            1.211235137035    -3.216343177654    -1.220132985657    12.000000000000
         H           -0.062764862965    -2.942343177654    -2.953132985657     1.007825032230
         H            0.829235137035    -1.497343177654    -2.471132985657     1.007825032230
         H            1.687235137035    -2.811343177654    -3.278132985657     1.007825032230
         H            0.351235137035    -3.107343177654    -0.562132985657     1.007825032230
         H            1.442162137035    -4.281773177654    -1.366892985657     1.007825032230
         H            2.072496137035    -2.703483177654    -0.767142985657     1.007825032230

  Running in c1 symmetry.

  Rotational constants: A =      0.04682  B =      0.02673  C =      0.01795 [cm^-1]
  Rotational constants: A =   1403.57501  B =    801.25978  C =    538.08493 [MHz]
  Nuclear repulsion =  499.260188096916522

  Charge       = 0
  Multiplicity = 1
  Electrons    = 76
  Nalpha       = 38
  Nbeta        = 38

  ==> Algorithm <==

  SCF Algorithm Type is PK.
  DIIS enabled.
  MOM disabled.
  Fractional occupation disabled.
  Guess Type is SAD.
  Energy threshold   = 1.00e-06
  Density threshold  = 1.00e-10
  Integral threshold = 0.00e+00

  ==> Primary Basis <==

  Basis Set: CC-PVDZ
    Blend: CC-PVDZ
    Number of shells: 102
    Number of basis function: 210
    Number of Cartesian functions: 220
    Spherical Harmonics?: true
    Max angular momentum: 2

  ==> Pre-Iterations <==

   -------------------------------------------------------
    Irrep   Nso     Nmo     Nalpha   Nbeta   Ndocc  Nsocc
   -------------------------------------------------------
     A        210     210       0       0       0       0
   -------------------------------------------------------
    Total     210     210      38      38      38       0
   -------------------------------------------------------

  ==> Integral Setup <==

  Using integral reordering PK algorithm.
  Sizing the integral batches needed.
  Building batch lookup table.
   Calculation information:
      Number of atoms:                  24
      Number of AO shells:             102
      Number of primitives:            290
      Number of atomic orbitals:       220
      Number of basis functions:       210

      Integral cutoff                 1.00e-12
      Number of threads:                 1

	Batch   1 pq = [       0,    9405] index = [             0,44231715] size =     44231715
	Batch   2 pq = [    9405,   13301] index = [      44231715,88464951] size =     44233236
	Batch   3 pq = [   13301,   16290] index = [      88464951,132690195] size =     44225244
	Batch   4 pq = [   16290,   18810] index = [     132690195,176917455] size =     44227260
	Batch   5 pq = [   18810,   21030] index = [     176917455,221140965] size =     44223510
	Batch   6 pq = [   21030,   22155] index = [     221140965,245433090] size =     24292125
  Task number: 23
  Buffer size: 11059200
  Buffer per thread: 2
  We computed 12282581 shell quartets total.
  Whereas there are 13799631 unique shell quartets.

  ==> DiskJK: Disk-Based J/K Matrices <==

    J tasked:                  Yes
    K tasked:                  Yes
    wK tasked:                  No
    Memory [MiB]:              375
    Schwarz Cutoff:          1E-12

    OpenMP threads:              1

  Minimum eigenvalue in the overlap matrix is 3.2090841136E-04.
  Using Symmetric Orthogonalization.

  SCF Guess: Superposition of Atomic Densities via on-the-fly atomic UHF.

  ==> Iterations <==

                        Total Energy        Delta E     RMS |[F,P]|

   @RHF iter SAD:  -422.71312345412429   -4.22713e+02   0.00000e+00
   @RHF iter   1:  -423.59613791079761   -8.83014e-01   2.97391e-03 DIIS
   @RHF iter   2:  -423.81289506068021   -2.16757e-01   1.24798e-03 DIIS
   @RHF iter   3:  -423.84735247914995   -3.44574e-02   2.81200e-04 DIIS
   @RHF iter   4:  -423.85021015604360   -2.85768e-03   1.12661e-04 DIIS
   @RHF iter   5:  -423.85053526036933   -3.25104e-04   2.10408e-05 DIIS
   @RHF iter   6:  -423.85055304493585   -1.77846e-05   6.42459e-06 DIIS
   @RHF iter   7:  -423.85055474583169   -1.70090e-06   2.16473e-06 DIIS
   @RHF iter   8:  -423.85055500392730   -2.58096e-07   8.27772e-07 DIIS
   @RHF iter   9:  -423.85055505336675   -4.94394e-08   3.67545e-07 DIIS
   @RHF iter  10:  -423.85055506461447   -1.12477e-08   1.61959e-07 DIIS
   @RHF iter  11:  -423.85055506822982   -3.61536e-09   6.62218e-08 DIIS
   @RHF iter  12:  -423.85055506872106   -4.91241e-10   2.92646e-08 DIIS
   @RHF iter  13:  -423.85055506879075   -6.96900e-11   8.21568e-09 DIIS
   @RHF iter  14:  -423.85055506879422   -3.46745e-12   2.27425e-09 DIIS
   @RHF iter  15:  -423.85055506879587   -1.64846e-12   7.82705e-10 DIIS
   @RHF iter  16:  -423.85055506879542    4.54747e-13   3.12062e-10 DIIS
   @RHF iter  17:  -423.85055506879610   -6.82121e-13   1.45212e-10 DIIS
   @RHF iter  18:  -423.85055506879610    0.00000e+00   7.23642e-11 DIIS
  Energy and wave function converged.

  ==> Post-Iterations <==

    Orbital Energies [Eh]
    ---------------------

    Doubly Occupied:

       1A    -20.581523     2A    -11.297436     3A    -11.238964
       4A    -11.238409     5A    -11.233525     6A    -11.232037
       7A    -11.230138     8A    -11.229465     9A    -11.216732
      10A    -11.215101    11A     -1.398628    12A     -1.149336
      13A     -1.037748    14A     -1.020150    15A     -1.014913
      16A     -0.925514    17A     -0.844588    18A     -0.834402
      19A     -0.800548    20A     -0.731154    21A     -0.666194
      22A     -0.641241    23A     -0.608192    24A     -0.601373
      25A     -0.596688    26A     -0.589707    27A     -0.581209
      28A     -0.577506    29A     -0.563486    30A     -0.520735
      31A     -0.499446    32A     -0.492102    33A     -0.489415
      34A     -0.483967    35A     -0.478555    36A     -0.466802
      37A     -0.337118    38A     -0.302046

    Virtual:

      39A      0.128112    40A      0.156594    41A      0.178911
      42A      0.180542    43A      0.196365    44A      0.209956
      45A      0.230997    46A      0.235040    47A      0.244574
      48A      0.259574    49A      0.273437    50A      0.276853
      51A      0.296077    52A      0.297884    53A      0.326465
      54A      0.358049    55A      0.371371    56A      0.382177
      57A      0.401085    58A      0.432609    59A      0.459989
      60A      0.479289    61A      0.505844    62A      0.517469
      63A      0.590014    64A      0.600091    65A      0.612958
      66A      0.630912    67A      0.645084    68A      0.658465
      69A      0.658852    70A      0.665413    71A      0.682664
      72A      0.700012    73A      0.704353    74A      0.723336
      75A      0.738396    76A      0.744509    77A      0.755645
      78A      0.773024    79A      0.792801    80A      0.801805
      81A      0.811705    82A      0.845908    83A      0.849161
      84A      0.853568    85A      0.856336    86A      0.882658
      87A      0.892071    88A      0.895506    89A      0.896208
      90A      0.903660    91A      0.912656    92A      0.922281
      93A      0.926937    94A      0.932452    95A      0.942363
      96A      0.947384    97A      0.992645    98A      1.004022
      99A      1.013915   100A      1.021122   101A      1.039606
     102A      1.072669   103A      1.105400   104A      1.126160
     105A      1.135782   106A      1.150675   107A      1.160207
     108A      1.184496   109A      1.206945   110A      1.235433
     111A      1.250665   112A      1.254984   113A      1.273963
     114A      1.286990   115A      1.305391   116A      1.318783
     117A      1.323736   118A      1.361201   119A      1.363915
     120A      1.395129   121A      1.468955   122A      1.484035
     123A      1.501313   124A      1.505011   125A      1.550043
     126A      1.553310   127A      1.585440   128A      1.613583
     129A      1.620919   130A      1.668711   131A      1.690794
     132A      1.697168   133A      1.712151   134A      1.735094
     135A      1.758729   136A      1.784219   137A      1.802538
     138A      1.815935   139A      1.864161   140A      1.872442
     141A      1.879669   142A      1.889472   143A      1.900800
     144A      1.903174   145A      1.915094   146A      1.922411
     147A      1.929390   148A      1.946099   149A      1.947597
     150A      1.953711   151A      1.957409   152A      1.963267
     153A      1.971841   154A      1.982269   155A      1.998630
     156A      2.020578   157A      2.025374   158A      2.049571
     159A      2.062614   160A      2.074828   161A      2.086118
     162A      2.115281   163A      2.129130   164A      2.144820
     165A      2.155071   166A      2.180430   167A      2.215252
     168A      2.235387   169A      2.262629   170A      2.278407
     171A      2.292367   172A      2.305303   173A      2.318311
     174A      2.330463   175A      2.370978   176A      2.429540
     177A      2.452254   178A      2.453448   179A      2.473379
     180A      2.481261   181A      2.493861   182A      2.514706
     183A      2.538846   184A      2.579336   185A      2.584691
     186A      2.621265   187A      2.648533   188A      2.750861
     189A      2.774987   190A      2.777049   191A      2.793207
     192A      2.810317   193A      2.812670   194A      2.826049
     195A      2.856963   196A      2.866426   197A      2.911317
     198A      2.956782   199A      2.968477   200A      2.976807
     201A      3.010054   202A      3.087007   203A      3.091471
     204A      3.251117   205A      3.277210   206A      3.347779
     207A      3.575366   208A      3.675824   209A      3.970429
     210A      4.192672

    Final Occupation by Irrep:
              A
    DOCC [    38 ]

  @RHF Final Energy:  -423.85055506879610

   => Energetics <=

    Nuclear Repulsion Energy =            499.2601880969165222
    One-Electron Energy =               -1564.2893014209516878
    Two-Electron Energy =                 641.1785582552391816
    Total Energy =                       -423.8505550687960977

Computation Completed

Properties will be evaluated at   0.000000,   0.000000,   0.000000 [a0]

Properties computed using the SCF density matrix

  Nuclear Dipole Moment: [e a0]
     X:     2.6360      Y:    -7.6466      Z:   -12.5536

  Electronic Dipole Moment: [e a0]
     X:    -2.5704      Y:     8.2454      Z:    12.5172

  Dipole Moment: [e a0]
     X:     0.0655      Y:     0.5988      Z:    -0.0364     Total:     0.6035

  Dipole Moment: [D]
     X:     0.1666      Y:     1.5220      Z:    -0.0926     Total:     1.5339

*** tstop() called on ds3 at Mon Apr 27 08:20:33 2020
Module time:
	user time   =      90.65 seconds =       1.51 minutes
	system time =      34.30 seconds =       0.57 minutes
	total time  =        358 seconds =       5.97 minutes
Total time:
	user time   =      90.65 seconds =       1.51 minutes
	system time =      34.30 seconds =       0.57 minutes
	total time  =        358 seconds =       5.97 minutes
                                     G D M A

                                 by Anthony Stone

                           version 2.2.06, 22 June 2011

               Distributed Multipoles from Gaussian wavefunctions

Starting at 8:20:33 on 27 Apr 2020

Using SCF density matrix from file ./SSI/SSI-003TYR-028VAL-1-dimer.test.790.fchk

                         Distributed Multipole Analysis

Standard DMA

Positions and radii in angstrom
Multipole moments in atomic units, ea_0^k for rank k

C          x = -0.928765  y =  1.568657  z = -2.240133 angstrom
           Maximum rank =  0   Radius =  0.650 angstrom
                   Q00  =  -0.163807

C          x = -0.652765  y = -0.181343  z = -0.413133 angstrom
           Maximum rank =  0   Radius =  0.650 angstrom
                   Q00  =  -0.015457

C          x = -0.601765  y =  1.156657  z = -0.825133 angstrom
           Maximum rank =  0   Radius =  0.650 angstrom
                   Q00  =  -0.144200

C          x = -0.365765  y = -0.539343  z =  0.909867 angstrom
           Maximum rank =  0   Radius =  0.650 angstrom
                   Q00  =  -0.119032

C          x = -0.230765  y =  2.126657  z =  0.108867 angstrom
           Maximum rank =  0   Radius =  0.650 angstrom
                   Q00  =  -0.057338

C          x = -0.003765  y =  0.443657  z =  1.814867 angstrom
           Maximum rank =  0   Radius =  0.650 angstrom
                   Q00  =   0.396456

C          x =  0.061235  y =  1.774657  z =  1.425867 angstrom
           Maximum rank =  0   Radius =  0.650 angstrom
                   Q00  =  -0.180965

O          x =  0.287235  y =  0.100657  z =  3.100867 angstrom
           Maximum rank =  0   Radius =  0.650 angstrom
                   Q00  =  -0.681001

H          x = -0.942765  y = -0.949343  z = -1.117133 angstrom
           Maximum rank =  0   Radius =  0.325 angstrom
                   Q00  =   0.066704

H          x = -0.417765  y = -1.570343  z =  1.230867 angstrom
           Maximum rank =  0   Radius =  0.325 angstrom
                   Q00  =   0.081135

H          x = -0.553765  y =  2.581657  z = -2.368133 angstrom
           Maximum rank =  0   Radius =  0.325 angstrom
                   Q00  =   0.091594

H          x = -0.281765  y =  0.951657  z = -2.886133 angstrom
           Maximum rank =  0   Radius =  0.325 angstrom
                   Q00  =   0.083397

H          x = -0.153765  y =  3.160657  z = -0.191133 angstrom
           Maximum rank =  0   Radius =  0.325 angstrom
                   Q00  =   0.068951

H          x =  0.352235  y =  2.536657  z =  2.136867 angstrom
           Maximum rank =  0   Radius =  0.325 angstrom
                   Q00  =   0.070862

H          x =  0.495235  y =  0.871657  z =  3.641867 angstrom
           Maximum rank =  0   Radius =  0.325 angstrom
                   Q00  =   0.406220

H          x = -2.006932  y =  1.603927  z = -2.455333 angstrom
           Maximum rank =  0   Radius =  0.325 angstrom
                   Q00  =   0.095113

C          x =  0.892235  y = -2.582343  z = -2.568133 angstrom
           Maximum rank =  0   Radius =  0.650 angstrom
                   Q00  =  -0.243450

C          x =  1.211235  y = -3.216343  z = -1.220133 angstrom
           Maximum rank =  0   Radius =  0.650 angstrom
                   Q00  =  -0.226916

H          x = -0.062765  y = -2.942343  z = -2.953133 angstrom
           Maximum rank =  0   Radius =  0.325 angstrom
                   Q00  =   0.075151

H          x =  0.829235  y = -1.497343  z = -2.471133 angstrom
           Maximum rank =  0   Radius =  0.325 angstrom
                   Q00  =   0.079680

H          x =  1.687235  y = -2.811343  z = -3.278133 angstrom
           Maximum rank =  0   Radius =  0.325 angstrom
                   Q00  =   0.080000

H          x =  0.351235  y = -3.107343  z = -0.562133 angstrom
           Maximum rank =  0   Radius =  0.325 angstrom
                   Q00  =   0.075642

H          x =  1.442162  y = -4.281773  z = -1.366893 angstrom
           Maximum rank =  0   Radius =  0.325 angstrom
                   Q00  =   0.077020

H          x =  2.072496  y = -2.703483  z = -0.767143 angstrom
           Maximum rank =  0   Radius =  0.325 angstrom
                   Q00  =   0.084241

Total multipoles referred to origin at
           x =   0.000000,  y =    0.000000,  z =    0.000000 angstrom
                   Q00  =  -0.000000

Finished at 8:20:33 on 27 Apr 2020

  DMA results are available in the Python driver through the
	  variable('DMA DISTRIBUTED MULTIPOLES')
  and
	  variable('DMA TOTAL MULTIPOLES')
  commands.

    Psi4 stopped on: Monday, 27 April 2020 08:20AM
    Psi4 wall time for execution: 0:05:58.26

*** Psi4 exiting successfully. Buy a developer a beer!
