                               Psi4 1.3.2 release

  ==> Input File <==

--------------------------------------------------------------------------
import numpy as np
set {scf_type pk
basis cc-pvdz
d_convergence 10
gdma_switch   0
gdma_limit    0
gdma_origin   [ 0.0,  0.0,  0.0 ]
}
molecule test {
    units Angstrom
    0 1
    --
    0 1
    C               -0.575638853654622    -0.211984701518122    -0.866181867418359
    C               -0.745638853654622    -1.641984701518122    -1.379181867418358
    C               -2.473638853654623    -0.460984701518122     1.090818132581642
    S               -0.757638853654622     0.035015298481878     0.914818132581641
    H                0.395361146345378     0.144015298481878    -1.179181867418359
    H               -1.320638853654622     0.413015298481878    -1.360181867418359
    H               -1.293638853654622    -1.595984701518122    -2.319181867418359
    H               -1.364638853654622    -2.207984701518122    -0.686181867418359
    H               -2.580638853654623    -1.536984701518122     0.957818132581642
    H               -2.819638853654622    -0.203984701518122     2.092818132581641
    H               -3.090638853654622     0.063015298481878     0.359818132581641
    H                0.190722146345378    -2.196625701518122    -1.539191867418358
    C                2.483361146345378     1.822015298481878    -0.599181867418359
    C                2.962361146345378     0.431015298481878    -0.176181867418359
    H                3.275361146345378     2.359015298481878    -1.114181867418359
    H                1.648361146345378     1.753015298481878    -1.290181867418358
    H                2.173361146345377     2.390015298481878     0.278818132581641
    H                3.209361146345378    -0.142984701518122    -1.065181867418359
    H                2.128361146345378    -0.059984701518122     0.319818132581641
    H                3.828290146345378     0.448935298481878     0.501938132581641

}
e, wfn = energy('scf', return_wfn=True)
gdma(wfn)
dmavals = variable('DMA DISTRIBUTED MULTIPOLES')
charges = np.array(dmavals)
print(charges)
np.save('SSI-070MET-075ILE-1-dimer.npy', np.array(charges))--------------------------------------------------------------------------

*** tstart() called on ds3
*** at Tue Apr 28 09:01:50 2020

   => Loading Basis Set <=

    Name: CC-PVDZ
    Role: ORBITAL
    Keyword: BASIS
    atoms 1-3, 13-14  entry C          line   138 file /theoryfs2/ds/metcalf/miniconda2/envs/tf2gpu/share/psi4/basis/cc-pvdz.gbs
    atoms 4           entry S          line   598 file /theoryfs2/ds/metcalf/miniconda2/envs/tf2gpu/share/psi4/basis/cc-pvdz.gbs
    atoms 5-12, 15-20 entry H          line    22 file /theoryfs2/ds/metcalf/miniconda2/envs/tf2gpu/share/psi4/basis/cc-pvdz.gbs

         ---------------------------------------------------------
                                   SCF
               by Justin Turney, Rob Parrish, Andy Simmonett
                          and Daniel G. A. Smith
                              RHF Reference
                        1 Threads,    500 MiB Core
         ---------------------------------------------------------

  ==> Geometry <==

    Molecular point group: c1
    Full point group: C1

    Geometry (in Angstrom), charge = 0, multiplicity = 1:

       Center              X                  Y                   Z               Mass
    ------------   -----------------  -----------------  -----------------  -----------------
         C           -0.575638853655    -0.211984701518    -0.866181867418    12.000000000000
         C           -0.745638853655    -1.641984701518    -1.379181867418    12.000000000000
         C           -2.473638853655    -0.460984701518     1.090818132582    12.000000000000
         S           -0.757638853655     0.035015298482     0.914818132582    31.972071174400
         H            0.395361146345     0.144015298482    -1.179181867418     1.007825032230
         H           -1.320638853655     0.413015298482    -1.360181867418     1.007825032230
         H           -1.293638853655    -1.595984701518    -2.319181867418     1.007825032230
         H           -1.364638853655    -2.207984701518    -0.686181867418     1.007825032230
         H           -2.580638853655    -1.536984701518     0.957818132582     1.007825032230
         H           -2.819638853655    -0.203984701518     2.092818132582     1.007825032230
         H           -3.090638853655     0.063015298482     0.359818132582     1.007825032230
         H            0.190722146345    -2.196625701518    -1.539191867418     1.007825032230
         C            2.483361146345     1.822015298482    -0.599181867418    12.000000000000
         C            2.962361146345     0.431015298482    -0.176181867418    12.000000000000
         H            3.275361146345     2.359015298482    -1.114181867418     1.007825032230
         H            1.648361146345     1.753015298482    -1.290181867418     1.007825032230
         H            2.173361146345     2.390015298482     0.278818132582     1.007825032230
         H            3.209361146345    -0.142984701518    -1.065181867418     1.007825032230
         H            2.128361146345    -0.059984701518     0.319818132582     1.007825032230
         H            3.828290146345     0.448935298482     0.501938132582     1.007825032230

  Running in c1 symmetry.

  Rotational constants: A =      0.11728  B =      0.03720  C =      0.03151 [cm^-1]
  Rotational constants: A =   3515.82074  B =   1115.33734  C =    944.72599 [MHz]
  Nuclear repulsion =  306.704765857717689

  Charge       = 0
  Multiplicity = 1
  Electrons    = 60
  Nalpha       = 30
  Nbeta        = 30

  ==> Algorithm <==

  SCF Algorithm Type is PK.
  DIIS enabled.
  MOM disabled.
  Fractional occupation disabled.
  Guess Type is SAD.
  Energy threshold   = 1.00e-06
  Density threshold  = 1.00e-10
  Integral threshold = 0.00e+00

  ==> Primary Basis <==

  Basis Set: CC-PVDZ
    Blend: CC-PVDZ
    Number of shells: 80
    Number of basis function: 158
    Number of Cartesian functions: 164
    Spherical Harmonics?: true
    Max angular momentum: 2

  ==> Pre-Iterations <==

   -------------------------------------------------------
    Irrep   Nso     Nmo     Nalpha   Nbeta   Ndocc  Nsocc
   -------------------------------------------------------
     A        158     158       0       0       0       0
   -------------------------------------------------------
    Total     158     158      30      30      30       0
   -------------------------------------------------------

  ==> Integral Setup <==

  Using integral reordering PK algorithm.
  Sizing the integral batches needed.
  Building batch lookup table.
   Calculation information:
      Number of atoms:                  20
      Number of AO shells:              80
      Number of primitives:            230
      Number of atomic orbitals:       164
      Number of basis functions:       158

      Integral cutoff                 1.00e-12
      Number of threads:                 1

	Batch   1 pq = [       0,    9405] index = [             0,44231715] size =     44231715
	Batch   2 pq = [    9405,   12561] index = [      44231715,78895641] size =     34663926
  Task number: 8
  Buffer size: 11059200
  Buffer per thread: 2
  We computed 4825695 shell quartets total.
  Whereas there are 5250420 unique shell quartets.

  ==> DiskJK: Disk-Based J/K Matrices <==

    J tasked:                  Yes
    K tasked:                  Yes
    wK tasked:                  No
    Memory [MiB]:              375
    Schwarz Cutoff:          1E-12

    OpenMP threads:              1

  Minimum eigenvalue in the overlap matrix is 6.1714079733E-03.
  Using Symmetric Orthogonalization.

  SCF Guess: Superposition of Atomic Densities via on-the-fly atomic UHF.

  ==> Iterations <==

                        Total Energy        Delta E     RMS |[F,P]|

   @RHF iter SAD:  -593.99129076936526   -5.93991e+02   0.00000e+00
   @RHF iter   1:  -594.84150833754586   -8.50218e-01   3.18536e-03 DIIS
   @RHF iter   2:  -594.99324557204466   -1.51737e-01   1.28670e-03 DIIS
   @RHF iter   3:  -595.01619871311243   -2.29531e-02   3.00631e-04 DIIS
   @RHF iter   4:  -595.01849897540967   -2.30026e-03   5.55126e-05 DIIS
   @RHF iter   5:  -595.01855859453838   -5.96191e-05   1.66007e-05 DIIS
   @RHF iter   6:  -595.01856375063608   -5.15610e-06   3.39104e-06 DIIS
   @RHF iter   7:  -595.01856402341832   -2.72782e-07   7.69888e-07 DIIS
   @RHF iter   8:  -595.01856404076932   -1.73510e-08   2.60841e-07 DIIS
   @RHF iter   9:  -595.01856404275600   -1.98668e-09   7.79329e-08 DIIS
   @RHF iter  10:  -595.01856404296666   -2.10662e-10   2.19748e-08 DIIS
   @RHF iter  11:  -595.01856404298098   -1.43245e-11   4.65444e-09 DIIS
   @RHF iter  12:  -595.01856404298212   -1.13687e-12   1.43406e-09 DIIS
   @RHF iter  13:  -595.01856404298121    9.09495e-13   5.06435e-10 DIIS
   @RHF iter  14:  -595.01856404298519   -3.97904e-12   1.59319e-10 DIIS
   @RHF iter  15:  -595.01856404298348    1.70530e-12   5.16864e-11 DIIS
  Energy and wave function converged.

  ==> Post-Iterations <==

    Orbital Energies [Eh]
    ---------------------

    Doubly Occupied:

       1A    -91.934607     2A    -11.255052     3A    -11.254258
       4A    -11.227211     5A    -11.214884     6A    -11.213824
       7A     -8.938587     8A     -6.620587     9A     -6.619101
      10A     -6.616864    11A     -1.082271    12A     -1.016867
      13A     -0.995868    14A     -0.888515    15A     -0.837319
      16A     -0.785763    17A     -0.637162    18A     -0.609953
      19A     -0.597325    20A     -0.593052    21A     -0.583573
      22A     -0.551693    23A     -0.530906    24A     -0.511516
      25A     -0.501529    26A     -0.486726    27A     -0.482982
      28A     -0.474298    29A     -0.421513    30A     -0.331522

    Virtual:

      31A      0.172321    32A      0.177392    33A      0.206585
      34A      0.213364    35A      0.226014    36A      0.235917
      37A      0.244869    38A      0.248053    39A      0.261687
      40A      0.271619    41A      0.281921    42A      0.292086
      43A      0.323909    44A      0.327602    45A      0.351745
      46A      0.359502    47A      0.384071    48A      0.403375
      49A      0.523944    50A      0.567126    51A      0.578291
      52A      0.599617    53A      0.606043    54A      0.607457
      55A      0.622087    56A      0.648162    57A      0.655618
      58A      0.686840    59A      0.700515    60A      0.720058
      61A      0.758142    62A      0.782427    63A      0.807661
      64A      0.817498    65A      0.851300    66A      0.853424
      67A      0.860103    68A      0.868158    69A      0.873834
      70A      0.885651    71A      0.897236    72A      0.897654
      73A      0.903745    74A      0.915620    75A      0.919575
      76A      0.925452    77A      0.937951    78A      0.941591
      79A      0.950940    80A      0.969425    81A      0.985066
      82A      0.995329    83A      1.029661    84A      1.068902
      85A      1.127387    86A      1.138756    87A      1.201354
      88A      1.216243    89A      1.250817    90A      1.281899
      91A      1.314077    92A      1.328917    93A      1.368854
      94A      1.409882    95A      1.461068    96A      1.470020
      97A      1.486647    98A      1.536733    99A      1.601118
     100A      1.632228   101A      1.673225   102A      1.684827
     103A      1.698218   104A      1.702895   105A      1.719520
     106A      1.827342   107A      1.856150   108A      1.873998
     109A      1.882733   110A      1.891929   111A      1.905731
     112A      1.909185   113A      1.913599   114A      1.930265
     115A      1.939273   116A      1.952771   117A      1.959711
     118A      1.962747   119A      1.979839   120A      1.985523
     121A      2.002578   122A      2.016503   123A      2.017833
     124A      2.029664   125A      2.069600   126A      2.085765
     127A      2.102429   128A      2.156717   129A      2.189594
     130A      2.224863   131A      2.236313   132A      2.298494
     133A      2.319911   134A      2.321671   135A      2.347047
     136A      2.405780   137A      2.432151   138A      2.449649
     139A      2.454727   140A      2.487179   141A      2.561803
     142A      2.565125   143A      2.592209   144A      2.610395
     145A      2.754856   146A      2.766134   147A      2.780249
     148A      2.790889   149A      2.794909   150A      2.806101
     151A      2.815703   152A      2.843905   153A      2.873405
     154A      2.882895   155A      2.900016   156A      2.954262
     157A      2.972469   158A      3.004563

    Final Occupation by Irrep:
              A
    DOCC [    30 ]

  @RHF Final Energy:  -595.01856404298348

   => Energetics <=

    Nuclear Repulsion Energy =            306.7047658577176890
    One-Electron Energy =               -1423.8160033661736179
    Two-Electron Energy =                 522.0926734654723305
    Total Energy =                       -595.0185640429834848

Computation Completed

Properties will be evaluated at   0.000000,   0.000000,   0.000000 [a0]

Properties computed using the SCF density matrix

  Nuclear Dipole Moment: [e a0]
     X:     4.0855      Y:    -0.3492      Z:    -5.6405

  Electronic Dipole Moment: [e a0]
     X:    -4.5421      Y:     0.1293      Z:     5.1954

  Dipole Moment: [e a0]
     X:    -0.4566      Y:    -0.2200      Z:    -0.4450     Total:     0.6745

  Dipole Moment: [D]
     X:    -1.1606      Y:    -0.5591      Z:    -1.1312     Total:     1.7144

*** tstop() called on ds3 at Tue Apr 28 09:02:39 2020
Module time:
	user time   =      38.95 seconds =       0.65 minutes
	system time =      11.32 seconds =       0.19 minutes
	total time  =         49 seconds =       0.82 minutes
Total time:
	user time   =      38.95 seconds =       0.65 minutes
	system time =      11.32 seconds =       0.19 minutes
	total time  =         49 seconds =       0.82 minutes
                                     G D M A

                                 by Anthony Stone

                           version 2.2.06, 22 June 2011

               Distributed Multipoles from Gaussian wavefunctions

Starting at 9:2:39 on 28 Apr 2020

Using SCF density matrix from file ./SSI/SSI-070MET-075ILE-1-dimer.test.8851.fchk

                         Distributed Multipole Analysis

Standard DMA

Positions and radii in angstrom
Multipole moments in atomic units, ea_0^k for rank k

C          x = -0.575639  y = -0.211985  z = -0.866182 angstrom
           Maximum rank =  0   Radius =  0.650 angstrom
                   Q00  =  -0.211263

C          x = -0.745639  y = -1.641985  z = -1.379182 angstrom
           Maximum rank =  0   Radius =  0.650 angstrom
                   Q00  =  -0.268130

C          x = -2.473639  y = -0.460985  z =  1.090818 angstrom
           Maximum rank =  0   Radius =  0.650 angstrom
                   Q00  =  -0.356696

S          x = -0.757639  y =  0.035015  z =  0.914818 angstrom
           Maximum rank =  0   Radius =  0.650 angstrom
                   Q00  =   0.128276

H          x =  0.395361  y =  0.144015  z = -1.179182 angstrom
           Maximum rank =  0   Radius =  0.325 angstrom
                   Q00  =   0.096790

H          x = -1.320639  y =  0.413015  z = -1.360182 angstrom
           Maximum rank =  0   Radius =  0.325 angstrom
                   Q00  =   0.055422

H          x = -1.293639  y = -1.595985  z = -2.319182 angstrom
           Maximum rank =  0   Radius =  0.325 angstrom
                   Q00  =   0.087105

H          x = -1.364639  y = -2.207985  z = -0.686182 angstrom
           Maximum rank =  0   Radius =  0.325 angstrom
                   Q00  =   0.081784

H          x = -2.580639  y = -1.536985  z =  0.957818 angstrom
           Maximum rank =  0   Radius =  0.325 angstrom
                   Q00  =   0.084947

H          x = -2.819639  y = -0.203985  z =  2.092818 angstrom
           Maximum rank =  0   Radius =  0.325 angstrom
                   Q00  =   0.121246

H          x = -3.090639  y =  0.063015  z =  0.359818 angstrom
           Maximum rank =  0   Radius =  0.325 angstrom
                   Q00  =   0.087191

H          x =  0.190722  y = -2.196626  z = -1.539192 angstrom
           Maximum rank =  0   Radius =  0.325 angstrom
                   Q00  =   0.092562

C          x =  2.483361  y =  1.822015  z = -0.599182 angstrom
           Maximum rank =  0   Radius =  0.650 angstrom
                   Q00  =  -0.237491

C          x =  2.962361  y =  0.431015  z = -0.176182 angstrom
           Maximum rank =  0   Radius =  0.650 angstrom
                   Q00  =  -0.240545

H          x =  3.275361  y =  2.359015  z = -1.114182 angstrom
           Maximum rank =  0   Radius =  0.325 angstrom
                   Q00  =   0.077582

H          x =  1.648361  y =  1.753015  z = -1.290182 angstrom
           Maximum rank =  0   Radius =  0.325 angstrom
                   Q00  =   0.073991

H          x =  2.173361  y =  2.390015  z =  0.278818 angstrom
           Maximum rank =  0   Radius =  0.325 angstrom
                   Q00  =   0.086729

H          x =  3.209361  y = -0.142985  z = -1.065182 angstrom
           Maximum rank =  0   Radius =  0.325 angstrom
                   Q00  =   0.072080

H          x =  2.128361  y = -0.059985  z =  0.319818 angstrom
           Maximum rank =  0   Radius =  0.325 angstrom
                   Q00  =   0.080366

H          x =  3.828290  y =  0.448935  z =  0.501938 angstrom
           Maximum rank =  0   Radius =  0.325 angstrom
                   Q00  =   0.088052

Total multipoles referred to origin at
           x =   0.000000,  y =    0.000000,  z =    0.000000 angstrom
                   Q00  =  -0.000000

Finished at 9:2:39 on 28 Apr 2020

  DMA results are available in the Python driver through the
	  variable('DMA DISTRIBUTED MULTIPOLES')
  and
	  variable('DMA TOTAL MULTIPOLES')
  commands.

    Psi4 stopped on: Tuesday, 28 April 2020 09:02AM
    Psi4 wall time for execution: 0:00:49.78

*** Psi4 exiting successfully. Buy a developer a beer!
