                               Psi4 1.3.2 release

  ==> Input File <==

--------------------------------------------------------------------------
import numpy as np
set {scf_type pk
basis cc-pvdz
d_convergence 10
gdma_switch   0
gdma_limit    0
gdma_origin   [ 0.0,  0.0,  0.0 ]
}
molecule test {
    units Angstrom
    1 1
    --
    1 1
    C                0.759876987988937     0.033845121611930     1.882010239657233
    C                1.717876987988937     1.234845121611930     2.014010239657233
    C               -0.660123012011063     0.453845121611930     1.603010239657233
    O               -0.920123012011063     1.574845121611930     1.181010239657233
    N               -1.588123012011063    -0.465154878388070     1.777010239657233
    H                1.077876987988937    -0.649154878388070     1.097010239657233
    H                0.784876987988937    -0.491154878388070     2.838010239657233
    H                1.340876987988937     2.053845121611930     1.402010239657233
    H               -2.554123012011063    -0.235154878388070     1.606010239657233
    H               -1.326123012011063    -1.392154878388070     2.081010239657233
    H                2.722646987988937     0.951185121611930     1.667640239657233
    H                1.707836987988937     1.661725121611930     3.027750239657232
    C               -0.047123012011063     1.374845121611930    -2.156989760342767
    C                0.195876987988937    -1.027154878388070    -1.555989760342767
    N               -0.553123012011063     0.021845121611930    -1.873989760342767
    N                1.506876987988937    -0.942154878388070    -1.470989760342767
    N               -0.379123012011063    -2.177154878388070    -1.297989760342767
    H               -1.557123012011063    -0.114154878388070    -1.945989760342767
    H                1.974876987988937    -0.059154878388070    -1.657989760342767
    H                2.059876987988937    -1.752154878388070    -1.229989760342767
    H               -1.388123012011063    -2.255154878388070    -1.344989760342767
    H                0.176876987988937    -2.984154878388070    -1.054989760342767
    H                0.862876987988937     1.291845121611930    -2.752989760342767
    H                0.184876987988937     1.869845121611930    -1.211989760342767
    H               -0.796583012011063     1.960475121611930    -2.709569760342767

}
e, wfn = energy('scf', return_wfn=True)
gdma(wfn)
dmavals = variable('DMA DISTRIBUTED MULTIPOLES')
charges = np.array(dmavals)
print(charges)
np.save('SSI-163ASN-196ARG-1-dimer.npy', np.array(charges))--------------------------------------------------------------------------

*** tstart() called on ds3
*** at Tue Apr 28 09:38:33 2020

   => Loading Basis Set <=

    Name: CC-PVDZ
    Role: ORBITAL
    Keyword: BASIS
    atoms 1-3, 13-14  entry C          line   138 file /theoryfs2/ds/metcalf/miniconda2/envs/tf2gpu/share/psi4/basis/cc-pvdz.gbs
    atoms 4           entry O          line   198 file /theoryfs2/ds/metcalf/miniconda2/envs/tf2gpu/share/psi4/basis/cc-pvdz.gbs
    atoms 5, 15-17    entry N          line   168 file /theoryfs2/ds/metcalf/miniconda2/envs/tf2gpu/share/psi4/basis/cc-pvdz.gbs
    atoms 6-12, 18-25 entry H          line    22 file /theoryfs2/ds/metcalf/miniconda2/envs/tf2gpu/share/psi4/basis/cc-pvdz.gbs

         ---------------------------------------------------------
                                   SCF
               by Justin Turney, Rob Parrish, Andy Simmonett
                          and Daniel G. A. Smith
                              RHF Reference
                        1 Threads,    500 MiB Core
         ---------------------------------------------------------

  ==> Geometry <==

    Molecular point group: c1
    Full point group: C1

    Geometry (in Angstrom), charge = 1, multiplicity = 1:

       Center              X                  Y                   Z               Mass
    ------------   -----------------  -----------------  -----------------  -----------------
         C            0.759876987989     0.033845121612     1.882010239657    12.000000000000
         C            1.717876987989     1.234845121612     2.014010239657    12.000000000000
         C           -0.660123012011     0.453845121612     1.603010239657    12.000000000000
         O           -0.920123012011     1.574845121612     1.181010239657    15.994914619570
         N           -1.588123012011    -0.465154878388     1.777010239657    14.003074004430
         H            1.077876987989    -0.649154878388     1.097010239657     1.007825032230
         H            0.784876987989    -0.491154878388     2.838010239657     1.007825032230
         H            1.340876987989     2.053845121612     1.402010239657     1.007825032230
         H           -2.554123012011    -0.235154878388     1.606010239657     1.007825032230
         H           -1.326123012011    -1.392154878388     2.081010239657     1.007825032230
         H            2.722646987989     0.951185121612     1.667640239657     1.007825032230
         H            1.707836987989     1.661725121612     3.027750239657     1.007825032230
         C           -0.047123012011     1.374845121612    -2.156989760343    12.000000000000
         C            0.195876987989    -1.027154878388    -1.555989760343    12.000000000000
         N           -0.553123012011     0.021845121612    -1.873989760343    14.003074004430
         N            1.506876987989    -0.942154878388    -1.470989760343    14.003074004430
         N           -0.379123012011    -2.177154878388    -1.297989760343    14.003074004430
         H           -1.557123012011    -0.114154878388    -1.945989760343     1.007825032230
         H            1.974876987989    -0.059154878388    -1.657989760343     1.007825032230
         H            2.059876987989    -1.752154878388    -1.229989760343     1.007825032230
         H           -1.388123012011    -2.255154878388    -1.344989760343     1.007825032230
         H            0.176876987989    -2.984154878388    -1.054989760343     1.007825032230
         H            0.862876987989     1.291845121612    -2.752989760343     1.007825032230
         H            0.184876987989     1.869845121612    -1.211989760343     1.007825032230
         H           -0.796583012011     1.960475121612    -2.709569760343     1.007825032230

  Running in c1 symmetry.

  Rotational constants: A =      0.04873  B =      0.02653  C =      0.02557 [cm^-1]
  Rotational constants: A =   1460.84707  B =    795.27556  C =    766.55197 [MHz]
  Nuclear repulsion =  584.949783471937735

  Charge       = 1
  Multiplicity = 1
  Electrons    = 80
  Nalpha       = 40
  Nbeta        = 40

  ==> Algorithm <==

  SCF Algorithm Type is PK.
  DIIS enabled.
  MOM disabled.
  Fractional occupation disabled.
  Guess Type is SAD.
  Energy threshold   = 1.00e-06
  Density threshold  = 1.00e-10
  Integral threshold = 0.00e+00

  ==> Primary Basis <==

  Basis Set: CC-PVDZ
    Blend: CC-PVDZ
    Number of shells: 105
    Number of basis function: 215
    Number of Cartesian functions: 225
    Spherical Harmonics?: true
    Max angular momentum: 2

  ==> Pre-Iterations <==

   -------------------------------------------------------
    Irrep   Nso     Nmo     Nalpha   Nbeta   Ndocc  Nsocc
   -------------------------------------------------------
     A        215     215       0       0       0       0
   -------------------------------------------------------
    Total     215     215      40      40      40       0
   -------------------------------------------------------

  ==> Integral Setup <==

  Using integral reordering PK algorithm.
  Sizing the integral batches needed.
  Building batch lookup table.
   Calculation information:
      Number of atoms:                  25
      Number of AO shells:             105
      Number of primitives:            295
      Number of atomic orbitals:       225
      Number of basis functions:       215

      Integral cutoff                 1.00e-12
      Number of threads:                 1

	Batch   1 pq = [       0,    9405] index = [             0,44231715] size =     44231715
	Batch   2 pq = [    9405,   13301] index = [      44231715,88464951] size =     44233236
	Batch   3 pq = [   13301,   16290] index = [      88464951,132690195] size =     44225244
	Batch   4 pq = [   16290,   18810] index = [     132690195,176917455] size =     44227260
	Batch   5 pq = [   18810,   21030] index = [     176917455,221140965] size =     44223510
	Batch   6 pq = [   21030,   23220] index = [     221140965,269595810] size =     48454845
  Task number: 25
  Buffer size: 11059200
  Buffer per thread: 2
  We computed 16024432 shell quartets total.
  Whereas there are 15487395 unique shell quartets.
     3.47 percent of shell quartets recomputed by reordering.

  ==> DiskJK: Disk-Based J/K Matrices <==

    J tasked:                  Yes
    K tasked:                  Yes
    wK tasked:                  No
    Memory [MiB]:              375
    Schwarz Cutoff:          1E-12

    OpenMP threads:              1

  Minimum eigenvalue in the overlap matrix is 2.5901820068E-03.
  Using Symmetric Orthogonalization.

  SCF Guess: Superposition of Atomic Densities via on-the-fly atomic UHF.

  ==> Iterations <==

                        Total Energy        Delta E     RMS |[F,P]|

   @RHF iter SAD:  -489.75790825924958   -4.89758e+02   0.00000e+00
   @RHF iter   1:  -490.31648389175155   -5.58576e-01   3.40993e-03 DIIS
   @RHF iter   2:  -490.55157905986704   -2.35095e-01   1.75081e-03 DIIS
   @RHF iter   3:  -490.60649832034636   -5.49193e-02   4.34198e-04 DIIS
   @RHF iter   4:  -490.61127799952709   -4.77968e-03   1.65474e-04 DIIS
   @RHF iter   5:  -490.61198978763866   -7.11788e-04   2.64586e-05 DIIS
   @RHF iter   6:  -490.61203173757315   -4.19499e-05   1.03945e-05 DIIS
   @RHF iter   7:  -490.61203673473369   -4.99716e-06   3.94062e-06 DIIS
   @RHF iter   8:  -490.61203770587656   -9.71143e-07   1.44011e-06 DIIS
   @RHF iter   9:  -490.61203784635973   -1.40483e-07   4.17186e-07 DIIS
   @RHF iter  10:  -490.61203785756055   -1.12008e-08   1.42948e-07 DIIS
   @RHF iter  11:  -490.61203785851671   -9.56163e-10   3.39279e-08 DIIS
   @RHF iter  12:  -490.61203785857595   -5.92308e-11   1.02018e-08 DIIS
   @RHF iter  13:  -490.61203785857049    5.45697e-12   3.28229e-09 DIIS
   @RHF iter  14:  -490.61203785857987   -9.37916e-12   1.11137e-09 DIIS
   @RHF iter  15:  -490.61203785857600    3.86535e-12   4.24385e-10 DIIS
   @RHF iter  16:  -490.61203785857816   -2.16005e-12   1.91049e-10 DIIS
   @RHF iter  17:  -490.61203785857947   -1.30740e-12   7.10095e-11 DIIS
  Energy and wave function converged.

  ==> Post-Iterations <==

    Orbital Energies [Eh]
    ---------------------

    Doubly Occupied:

       1A    -20.622680     2A    -15.789500     3A    -15.788612
       4A    -15.779880     5A    -15.704280     6A    -11.586765
       7A    -11.459229     8A    -11.427287     9A    -11.353422
      10A    -11.325911    11A     -1.545369    12A     -1.489889
      13A     -1.396756    14A     -1.391949    15A     -1.336357
      16A     -1.156864    17A     -1.130688    18A     -1.035705
      19A     -0.999838    20A     -0.975644    21A     -0.939992
      22A     -0.899574    23A     -0.860061    24A     -0.853939
      25A     -0.839157    26A     -0.823774    27A     -0.782140
      28A     -0.780863    29A     -0.749592    30A     -0.735935
      31A     -0.712965    32A     -0.702165    33A     -0.667058
      34A     -0.625483    35A     -0.621879    36A     -0.613415
      37A     -0.590719    38A     -0.576780    39A     -0.527867
      40A     -0.522516

    Virtual:

      41A     -0.017116    42A      0.021751    43A      0.029201
      44A      0.032790    45A      0.058601    46A      0.071224
      47A      0.083600    48A      0.091087    49A      0.099153
      50A      0.121192    51A      0.126045    52A      0.137367
      53A      0.148711    54A      0.152379    55A      0.166413
      56A      0.200178    57A      0.207893    58A      0.239104
      59A      0.271208    60A      0.299635    61A      0.310833
      62A      0.328511    63A      0.340000    64A      0.360002
      65A      0.425010    66A      0.456615    67A      0.480518
      68A      0.494015    69A      0.502831    70A      0.529911
      71A      0.530563    72A      0.542735    73A      0.545344
      74A      0.547607    75A      0.561542    76A      0.590104
      77A      0.607563    78A      0.636293    79A      0.662295
      80A      0.681308    81A      0.687278    82A      0.701387
      83A      0.714058    84A      0.732890    85A      0.736675
      86A      0.747771    87A      0.753809    88A      0.767846
      89A      0.771444    90A      0.784523    91A      0.790417
      92A      0.798072    93A      0.811548    94A      0.828128
      95A      0.840601    96A      0.846407    97A      0.868651
      98A      0.869566    99A      0.900423   100A      0.913147
     101A      0.920189   102A      0.937392   103A      0.947857
     104A      0.962867   105A      0.991153   106A      1.011766
     107A      1.020896   108A      1.025532   109A      1.074637
     110A      1.118959   111A      1.153481   112A      1.166105
     113A      1.173811   114A      1.198466   115A      1.205974
     116A      1.216267   117A      1.222110   118A      1.266967
     119A      1.284329   120A      1.289538   121A      1.318418
     122A      1.334124   123A      1.372050   124A      1.391940
     125A      1.407973   126A      1.491756   127A      1.507815
     128A      1.528300   129A      1.533944   130A      1.569401
     131A      1.577791   132A      1.585885   133A      1.595157
     134A      1.608657   135A      1.644732   136A      1.655612
     137A      1.678065   138A      1.685183   139A      1.697361
     140A      1.715544   141A      1.736209   142A      1.748504
     143A      1.758816   144A      1.774148   145A      1.776182
     146A      1.780405   147A      1.793860   148A      1.823495
     149A      1.827162   150A      1.833949   151A      1.844090
     152A      1.859526   153A      1.865492   154A      1.881579
     155A      1.892892   156A      1.901282   157A      1.919799
     158A      1.932987   159A      1.949597   160A      2.009825
     161A      2.020460   162A      2.046352   163A      2.058724
     164A      2.117154   165A      2.133629   166A      2.148688
     167A      2.152057   168A      2.159774   169A      2.194328
     170A      2.226781   171A      2.233300   172A      2.255591
     173A      2.269392   174A      2.294742   175A      2.319391
     176A      2.327984   177A      2.334600   178A      2.352263
     179A      2.372229   180A      2.433789   181A      2.446070
     182A      2.462231   183A      2.473558   184A      2.484687
     185A      2.507037   186A      2.539689   187A      2.550960
     188A      2.602108   189A      2.625342   190A      2.634701
     191A      2.659708   192A      2.665526   193A      2.706590
     194A      2.715043   195A      2.759374   196A      2.771282
     197A      2.787791   198A      2.794213   199A      2.831163
     200A      2.844100   201A      2.852692   202A      2.894147
     203A      2.916474   204A      2.996385   205A      3.038950
     206A      3.057605   207A      3.105554   208A      3.121024
     209A      3.196693   210A      3.398155   211A      3.434549
     212A      3.572570   213A      3.662672   214A      3.765892
     215A      3.804005

    Final Occupation by Irrep:
              A
    DOCC [    40 ]

  @RHF Final Energy:  -490.61203785857947

   => Energetics <=

    Nuclear Repulsion Energy =            584.9497834719377352
    One-Electron Energy =               -1815.6786466108760578
    Two-Electron Energy =                 740.1168252803588530
    Total Energy =                       -490.6120378585794697

Computation Completed

Properties will be evaluated at   0.000000,   0.000000,   0.000000 [a0]

Properties computed using the SCF density matrix

  Nuclear Dipole Moment: [e a0]
     X:     4.9403      Y:    -0.1166      Z:    -0.1632

  Electronic Dipole Moment: [e a0]
     X:    -4.6587      Y:    -2.8148      Z:    -2.0249

  Dipole Moment: [e a0]
     X:     0.2816      Y:    -2.9314      Z:    -2.1881     Total:     3.6688

  Dipole Moment: [D]
     X:     0.7159      Y:    -7.4508      Z:    -5.5617     Total:     9.3252

*** tstop() called on ds3 at Tue Apr 28 09:41:42 2020
Module time:
	user time   =     113.86 seconds =       1.90 minutes
	system time =      44.22 seconds =       0.74 minutes
	total time  =        189 seconds =       3.15 minutes
Total time:
	user time   =     113.86 seconds =       1.90 minutes
	system time =      44.22 seconds =       0.74 minutes
	total time  =        189 seconds =       3.15 minutes
                                     G D M A

                                 by Anthony Stone

                           version 2.2.06, 22 June 2011

               Distributed Multipoles from Gaussian wavefunctions

Starting at 9:41:43 on 28 Apr 2020

Using SCF density matrix from file ./SSI/SSI-163ASN-196ARG-1-dimer.test.10972.fchk

                         Distributed Multipole Analysis

Standard DMA

Positions and radii in angstrom
Multipole moments in atomic units, ea_0^k for rank k

C          x =  0.759877  y =  0.033845  z =  1.882010 angstrom
           Maximum rank =  0   Radius =  0.650 angstrom
                   Q00  =  -0.183473

C          x =  1.717877  y =  1.234845  z =  2.014010 angstrom
           Maximum rank =  0   Radius =  0.650 angstrom
                   Q00  =  -0.230366

C          x = -0.660123  y =  0.453845  z =  1.603010 angstrom
           Maximum rank =  0   Radius =  0.650 angstrom
                   Q00  =   0.855958

O          x = -0.920123  y =  1.574845  z =  1.181010 angstrom
           Maximum rank =  0   Radius =  0.650 angstrom
                   Q00  =  -0.804428

N          x = -1.588123  y = -0.465155  z =  1.777010 angstrom
           Maximum rank =  0   Radius =  0.650 angstrom
                   Q00  =  -0.555901

H          x =  1.077877  y = -0.649155  z =  1.097010 angstrom
           Maximum rank =  0   Radius =  0.325 angstrom
                   Q00  =   0.064381

H          x =  0.784877  y = -0.491155  z =  2.838010 angstrom
           Maximum rank =  0   Radius =  0.325 angstrom
                   Q00  =   0.100463

H          x =  1.340877  y =  2.053845  z =  1.402010 angstrom
           Maximum rank =  0   Radius =  0.325 angstrom
                   Q00  =   0.113410

H          x = -2.554123  y = -0.235155  z =  1.606010 angstrom
           Maximum rank =  0   Radius =  0.325 angstrom
                   Q00  =   0.228980

H          x = -1.326123  y = -1.392155  z =  2.081010 angstrom
           Maximum rank =  0   Radius =  0.325 angstrom
                   Q00  =   0.210319

H          x =  2.722647  y =  0.951185  z =  1.667640 angstrom
           Maximum rank =  0   Radius =  0.325 angstrom
                   Q00  =   0.084403

H          x =  1.707837  y =  1.661725  z =  3.027750 angstrom
           Maximum rank =  0   Radius =  0.325 angstrom
                   Q00  =   0.115615

C          x = -0.047123  y =  1.374845  z = -2.156990 angstrom
           Maximum rank =  0   Radius =  0.650 angstrom
                   Q00  =  -0.121220

C          x =  0.195877  y = -1.027155  z = -1.555990 angstrom
           Maximum rank =  0   Radius =  0.650 angstrom
                   Q00  =   1.071684

N          x = -0.553123  y =  0.021845  z = -1.873990 angstrom
           Maximum rank =  0   Radius =  0.650 angstrom
                   Q00  =  -0.492765

N          x =  1.506877  y = -0.942155  z = -1.470990 angstrom
           Maximum rank =  0   Radius =  0.650 angstrom
                   Q00  =  -0.582944

N          x = -0.379123  y = -2.177155  z = -1.297990 angstrom
           Maximum rank =  0   Radius =  0.650 angstrom
                   Q00  =  -0.589579

H          x = -1.557123  y = -0.114155  z = -1.945990 angstrom
           Maximum rank =  0   Radius =  0.325 angstrom
                   Q00  =   0.235330

H          x =  1.974877  y = -0.059155  z = -1.657990 angstrom
           Maximum rank =  0   Radius =  0.325 angstrom
                   Q00  =   0.279001

H          x =  2.059877  y = -1.752155  z = -1.229990 angstrom
           Maximum rank =  0   Radius =  0.325 angstrom
                   Q00  =   0.266784

H          x = -1.388123  y = -2.255155  z = -1.344990 angstrom
           Maximum rank =  0   Radius =  0.325 angstrom
                   Q00  =   0.265770

H          x =  0.176877  y = -2.984155  z = -1.054990 angstrom
           Maximum rank =  0   Radius =  0.325 angstrom
                   Q00  =   0.262828

H          x =  0.862877  y =  1.291845  z = -2.752990 angstrom
           Maximum rank =  0   Radius =  0.325 angstrom
                   Q00  =   0.098017

H          x =  0.184877  y =  1.869845  z = -1.211990 angstrom
           Maximum rank =  0   Radius =  0.325 angstrom
                   Q00  =   0.144492

H          x = -0.796583  y =  1.960475  z = -2.709570 angstrom
           Maximum rank =  0   Radius =  0.325 angstrom
                   Q00  =   0.163243

Total multipoles referred to origin at
           x =   0.000000,  y =    0.000000,  z =    0.000000 angstrom
                   Q00  =   1.000000

Finished at 9:41:43 on 28 Apr 2020

  DMA results are available in the Python driver through the
	  variable('DMA DISTRIBUTED MULTIPOLES')
  and
	  variable('DMA TOTAL MULTIPOLES')
  commands.

    Psi4 stopped on: Tuesday, 28 April 2020 09:41AM
    Psi4 wall time for execution: 0:03:10.03

*** Psi4 exiting successfully. Buy a developer a beer!
