                               Psi4 1.3.2 release

  ==> Input File <==

--------------------------------------------------------------------------
import numpy as np
set {scf_type pk
basis cc-pvdz
d_convergence 10
gdma_switch   0
gdma_limit    0
gdma_origin   [ 0.0,  0.0,  0.0 ]
}
molecule test {
    units Angstrom
    0 1
    --
    0 1
    C               -1.394588375183070    -0.252142708025453     1.876220654645729
    C               -2.362588375183070     0.765857291974547     2.507220654645729
    H               -1.586588375183070    -1.266142708025453     2.228220654645729
    H               -1.539588375183070    -0.254142708025453     0.797220654645729
    H               -0.364588375183070     0.024857291974547     2.100220654645729
    H               -3.366588375183070     0.531857291974547     2.174220654645729
    H               -2.352564375183070     0.693547291974547     3.604795654645729
    H               -2.129578375183069     1.787797291974547     2.173526654645729
    C                1.018411624816930    -0.283142708025453    -1.011779345354271
    C                1.087411624816930    -1.305142708025453    -2.154779345354271
    C                1.720411624816930     1.056857291974547    -1.283779345354271
    H               -0.033588375183070    -0.082142708025453    -0.815779345354271
    H                1.446411624816931    -0.726142708025453    -0.109779345354271
    H                2.126411624816930    -1.394142708025453    -2.468779345354271
    H                1.380411624816930     1.465857291974547    -2.233779345354271
    H                0.495374624816930    -0.966942708025453    -3.017978645354271
    H                0.798837624816930    -2.310842708025453    -1.815238345354271
    H                1.491948624816930     1.782857291974547    -0.489599345354271
    H                2.811425624816930     0.924637291974547    -1.330743345354271

}
e, wfn = energy('scf', return_wfn=True)
gdma(wfn)
dmavals = variable('DMA DISTRIBUTED MULTIPOLES')
charges = np.array(dmavals)
print(charges)
np.save('SSI-012VAL-023LEU-1-dimer.npy', np.array(charges))--------------------------------------------------------------------------

*** tstart() called on ds3
*** at Mon Apr 27 22:57:33 2020

   => Loading Basis Set <=

    Name: CC-PVDZ
    Role: ORBITAL
    Keyword: BASIS
    atoms 1-2, 9-11  entry C          line   138 file /theoryfs2/ds/metcalf/miniconda2/envs/tf2gpu/share/psi4/basis/cc-pvdz.gbs
    atoms 3-8, 12-19 entry H          line    22 file /theoryfs2/ds/metcalf/miniconda2/envs/tf2gpu/share/psi4/basis/cc-pvdz.gbs

         ---------------------------------------------------------
                                   SCF
               by Justin Turney, Rob Parrish, Andy Simmonett
                          and Daniel G. A. Smith
                              RHF Reference
                        1 Threads,    500 MiB Core
         ---------------------------------------------------------

  ==> Geometry <==

    Molecular point group: c1
    Full point group: C1

    Geometry (in Angstrom), charge = 0, multiplicity = 1:

       Center              X                  Y                   Z               Mass
    ------------   -----------------  -----------------  -----------------  -----------------
         C           -1.394588375183    -0.252142708025     1.876220654646    12.000000000000
         C           -2.362588375183     0.765857291975     2.507220654646    12.000000000000
         H           -1.586588375183    -1.266142708025     2.228220654646     1.007825032230
         H           -1.539588375183    -0.254142708025     0.797220654646     1.007825032230
         H           -0.364588375183     0.024857291975     2.100220654646     1.007825032230
         H           -3.366588375183     0.531857291975     2.174220654646     1.007825032230
         H           -2.352564375183     0.693547291975     3.604795654646     1.007825032230
         H           -2.129578375183     1.787797291975     2.173526654646     1.007825032230
         C            1.018411624817    -0.283142708025    -1.011779345354    12.000000000000
         C            1.087411624817    -1.305142708025    -2.154779345354    12.000000000000
         C            1.720411624817     1.056857291975    -1.283779345354    12.000000000000
         H           -0.033588375183    -0.082142708025    -0.815779345354     1.007825032230
         H            1.446411624817    -0.726142708025    -0.109779345354     1.007825032230
         H            2.126411624817    -1.394142708025    -2.468779345354     1.007825032230
         H            1.380411624817     1.465857291975    -2.233779345354     1.007825032230
         H            0.495374624817    -0.966942708025    -3.017978645354     1.007825032230
         H            0.798837624817    -2.310842708025    -1.815238345354     1.007825032230
         H            1.491948624817     1.782857291975    -0.489599345354     1.007825032230
         H            2.811425624817     0.924637291975    -1.330743345354     1.007825032230

  Running in c1 symmetry.

  Rotational constants: A =      0.22638  B =      0.03633  C =      0.03274 [cm^-1]
  Rotational constants: A =   6786.69663  B =   1089.12181  C =    981.60466 [MHz]
  Nuclear repulsion =  174.871509463104246

  Charge       = 0
  Multiplicity = 1
  Electrons    = 44
  Nalpha       = 22
  Nbeta        = 22

  ==> Algorithm <==

  SCF Algorithm Type is PK.
  DIIS enabled.
  MOM disabled.
  Fractional occupation disabled.
  Guess Type is SAD.
  Energy threshold   = 1.00e-06
  Density threshold  = 1.00e-10
  Integral threshold = 0.00e+00

  ==> Primary Basis <==

  Basis Set: CC-PVDZ
    Blend: CC-PVDZ
    Number of shells: 72
    Number of basis function: 140
    Number of Cartesian functions: 145
    Spherical Harmonics?: true
    Max angular momentum: 2

  ==> Pre-Iterations <==

   -------------------------------------------------------
    Irrep   Nso     Nmo     Nalpha   Nbeta   Ndocc  Nsocc
   -------------------------------------------------------
     A        140     140       0       0       0       0
   -------------------------------------------------------
    Total     140     140      22      22      22       0
   -------------------------------------------------------

  ==> Integral Setup <==

  Using integral reordering PK algorithm.
  Sizing the integral batches needed.
  Building batch lookup table.
   Calculation information:
      Number of atoms:                  19
      Number of AO shells:              72
      Number of primitives:            180
      Number of atomic orbitals:       145
      Number of basis functions:       140

      Integral cutoff                 1.00e-12
      Number of threads:                 1

	Batch   1 pq = [       0,    9405] index = [             0,44231715] size =     44231715
	Batch   2 pq = [    9405,    9870] index = [      44231715,48713385] size =      4481670
  Task number: 5
  Buffer size: 11059200
  Buffer per thread: 2
  We computed 2746848 shell quartets total.
  Whereas there are 3454506 unique shell quartets.

  ==> DiskJK: Disk-Based J/K Matrices <==

    J tasked:                  Yes
    K tasked:                  Yes
    wK tasked:                  No
    Memory [MiB]:              375
    Schwarz Cutoff:          1E-12

    OpenMP threads:              1

  Minimum eigenvalue in the overlap matrix is 5.5539461210E-03.
  Using Symmetric Orthogonalization.

  SCF Guess: Superposition of Atomic Densities via on-the-fly atomic UHF.

  ==> Iterations <==

                        Total Energy        Delta E     RMS |[F,P]|

   @RHF iter SAD:  -196.30374395320948   -1.96304e+02   0.00000e+00
   @RHF iter   1:  -197.31415688115243   -1.01041e+00   3.76490e-03 DIIS
   @RHF iter   2:  -197.47210324327301   -1.57946e-01   1.61392e-03 DIIS
   @RHF iter   3:  -197.49969223642276   -2.75890e-02   3.23629e-04 DIIS
   @RHF iter   4:  -197.50189143305525   -2.19920e-03   4.87966e-05 DIIS
   @RHF iter   5:  -197.50193030271222   -3.88697e-05   1.48653e-05 DIIS
   @RHF iter   6:  -197.50193364160515   -3.33889e-06   2.40768e-06 DIIS
   @RHF iter   7:  -197.50193374591913   -1.04314e-07   4.49312e-07 DIIS
   @RHF iter   8:  -197.50193375020655   -4.28741e-09   1.19767e-07 DIIS
   @RHF iter   9:  -197.50193375049162   -2.85070e-10   3.76627e-08 DIIS
   @RHF iter  10:  -197.50193375052595   -3.43334e-11   8.18104e-09 DIIS
   @RHF iter  11:  -197.50193375052794   -1.98952e-12   1.54468e-09 DIIS
   @RHF iter  12:  -197.50193375052777    1.70530e-13   2.89059e-10 DIIS
   @RHF iter  13:  -197.50193375052743    3.41061e-13   5.89688e-11 DIIS
  Energy and wave function converged.

  ==> Post-Iterations <==

    Orbital Energies [Eh]
    ---------------------

    Doubly Occupied:

       1A    -11.219629     2A    -11.219343     3A    -11.218148
       4A    -11.217527     5A    -11.217037     6A     -1.048942
       7A     -1.015229     8A     -0.924237     9A     -0.839074
      10A     -0.795898    11A     -0.624160    12A     -0.597210
      13A     -0.596322    14A     -0.589854    15A     -0.546795
      16A     -0.532563    17A     -0.499977    18A     -0.489528
      19A     -0.486137    20A     -0.474297    21A     -0.468302
      22A     -0.458826

    Virtual:

      23A      0.170676    24A      0.194387    25A      0.217713
      26A      0.224225    27A      0.234574    28A      0.249455
      29A      0.257514    30A      0.267923    31A      0.271946
      32A      0.279687    33A      0.288917    34A      0.297133
      35A      0.312020    36A      0.366260    37A      0.372395
      38A      0.400857    39A      0.428795    40A      0.572285
      41A      0.579931    42A      0.593262    43A      0.595019
      44A      0.607512    45A      0.619679    46A      0.621822
      47A      0.664166    48A      0.679686    49A      0.771828
      50A      0.785562    51A      0.815965    52A      0.834439
      53A      0.877041    54A      0.880727    55A      0.888716
      56A      0.891083    57A      0.892630    58A      0.894536
      59A      0.899563    60A      0.900980    61A      0.908085
      62A      0.917519    63A      0.920442    64A      0.932501
      65A      0.955574    66A      0.972974    67A      0.979876
      68A      1.003203    69A      1.114321    70A      1.120590
      71A      1.127508    72A      1.155302    73A      1.206245
      74A      1.259499    75A      1.370266    76A      1.453634
      77A      1.469486    78A      1.475250    79A      1.486299
      80A      1.528653    81A      1.581686    82A      1.625256
      83A      1.666287    84A      1.685587    85A      1.689583
      86A      1.700510    87A      1.711217    88A      1.850365
      89A      1.858813    90A      1.868634    91A      1.875730
      92A      1.884585    93A      1.901913    94A      1.916250
      95A      1.929762    96A      1.932408    97A      1.941834
      98A      1.946722    99A      1.951586   100A      1.955132
     101A      1.962941   102A      1.972850   103A      1.979521
     104A      1.993335   105A      2.012908   106A      2.019773
     107A      2.034355   108A      2.087962   109A      2.122850
     110A      2.128887   111A      2.166194   112A      2.274558
     113A      2.286656   114A      2.305677   115A      2.310969
     116A      2.328451   117A      2.345509   118A      2.442954
     119A      2.469604   120A      2.493595   121A      2.526948
     122A      2.556737   123A      2.574337   124A      2.587343
     125A      2.603354   126A      2.632901   127A      2.748999
     128A      2.754855   129A      2.763556   130A      2.778192
     131A      2.788837   132A      2.809252   133A      2.856779
     134A      2.862227   135A      2.910025   136A      2.944867
     137A      2.949406   138A      2.968959   139A      2.973205
     140A      3.078005

    Final Occupation by Irrep:
              A
    DOCC [    22 ]

  @RHF Final Energy:  -197.50193375052743

   => Energetics <=

    Nuclear Repulsion Energy =            174.8715094631042462
    One-Electron Energy =                -610.5888137804187181
    Two-Electron Energy =                 238.2153705667870440
    Total Energy =                       -197.5019337505274279

Computation Completed

Properties will be evaluated at   0.000000,   0.000000,   0.000000 [a0]

Properties computed using the SCF density matrix

  Nuclear Dipole Moment: [e a0]
     X:    -0.7708      Y:     0.1977      Z:     0.7467

  Electronic Dipole Moment: [e a0]
     X:     0.7519      Y:    -0.2148      Z:    -0.7288

  Dipole Moment: [e a0]
     X:    -0.0189      Y:    -0.0171      Z:     0.0180     Total:     0.0312

  Dipole Moment: [D]
     X:    -0.0481      Y:    -0.0434      Z:     0.0456     Total:     0.0792

*** tstop() called on ds3 at Mon Apr 27 22:57:53 2020
Module time:
	user time   =      13.92 seconds =       0.23 minutes
	system time =       5.77 seconds =       0.10 minutes
	total time  =         20 seconds =       0.33 minutes
Total time:
	user time   =      13.92 seconds =       0.23 minutes
	system time =       5.77 seconds =       0.10 minutes
	total time  =         20 seconds =       0.33 minutes
                                     G D M A

                                 by Anthony Stone

                           version 2.2.06, 22 June 2011

               Distributed Multipoles from Gaussian wavefunctions

Starting at 22:57:53 on 27 Apr 2020

Using SCF density matrix from file ./SSI/SSI-012VAL-023LEU-1-dimer.test.6134.fchk

                         Distributed Multipole Analysis

Standard DMA

Positions and radii in angstrom
Multipole moments in atomic units, ea_0^k for rank k

C          x = -1.394588  y = -0.252143  z =  1.876221 angstrom
           Maximum rank =  0   Radius =  0.650 angstrom
                   Q00  =  -0.239063

C          x = -2.362588  y =  0.765857  z =  2.507221 angstrom
           Maximum rank =  0   Radius =  0.650 angstrom
                   Q00  =  -0.239546

H          x = -1.586588  y = -1.266143  z =  2.228221 angstrom
           Maximum rank =  0   Radius =  0.325 angstrom
                   Q00  =   0.081878

H          x = -1.539588  y = -0.254143  z =  0.797221 angstrom
           Maximum rank =  0   Radius =  0.325 angstrom
                   Q00  =   0.078695

H          x = -0.364588  y =  0.024857  z =  2.100221 angstrom
           Maximum rank =  0   Radius =  0.325 angstrom
                   Q00  =   0.080048

H          x = -3.366588  y =  0.531857  z =  2.174221 angstrom
           Maximum rank =  0   Radius =  0.325 angstrom
                   Q00  =   0.078311

H          x = -2.352564  y =  0.693547  z =  3.604796 angstrom
           Maximum rank =  0   Radius =  0.325 angstrom
                   Q00  =   0.080274

H          x = -2.129578  y =  1.787797  z =  2.173527 angstrom
           Maximum rank =  0   Radius =  0.325 angstrom
                   Q00  =   0.080802

C          x =  1.018412  y = -0.283143  z = -1.011779 angstrom
           Maximum rank =  0   Radius =  0.650 angstrom
                   Q00  =  -0.068902

C          x =  1.087412  y = -1.305143  z = -2.154779 angstrom
           Maximum rank =  0   Radius =  0.650 angstrom
                   Q00  =  -0.254814

C          x =  1.720412  y =  1.056857  z = -1.283779 angstrom
           Maximum rank =  0   Radius =  0.650 angstrom
                   Q00  =  -0.248788

H          x = -0.033588  y = -0.082143  z = -0.815779 angstrom
           Maximum rank =  0   Radius =  0.325 angstrom
                   Q00  =   0.046010

H          x =  1.446412  y = -0.726143  z = -0.109779 angstrom
           Maximum rank =  0   Radius =  0.325 angstrom
                   Q00  =   0.047570

H          x =  2.126412  y = -1.394143  z = -2.468779 angstrom
           Maximum rank =  0   Radius =  0.325 angstrom
                   Q00  =   0.072528

H          x =  1.380412  y =  1.465857  z = -2.233779 angstrom
           Maximum rank =  0   Radius =  0.325 angstrom
                   Q00  =   0.076883

H          x =  0.495375  y = -0.966943  z = -3.017979 angstrom
           Maximum rank =  0   Radius =  0.325 angstrom
                   Q00  =   0.079257

H          x =  0.798838  y = -2.310843  z = -1.815238 angstrom
           Maximum rank =  0   Radius =  0.325 angstrom
                   Q00  =   0.086531

H          x =  1.491949  y =  1.782857  z = -0.489599 angstrom
           Maximum rank =  0   Radius =  0.325 angstrom
                   Q00  =   0.084688

H          x =  2.811426  y =  0.924637  z = -1.330743 angstrom
           Maximum rank =  0   Radius =  0.325 angstrom
                   Q00  =   0.077638

Total multipoles referred to origin at
           x =   0.000000,  y =    0.000000,  z =    0.000000 angstrom
                   Q00  =  -0.000000

Finished at 22:57:53 on 27 Apr 2020

  DMA results are available in the Python driver through the
	  variable('DMA DISTRIBUTED MULTIPOLES')
  and
	  variable('DMA TOTAL MULTIPOLES')
  commands.

    Psi4 stopped on: Monday, 27 April 2020 10:57PM
    Psi4 wall time for execution: 0:00:20.44

*** Psi4 exiting successfully. Buy a developer a beer!
