                               Psi4 1.3.2 release

  ==> Input File <==

--------------------------------------------------------------------------
import numpy as np
set {scf_type pk
basis cc-pvdz
d_convergence 10
gdma_switch   0
gdma_limit    0
gdma_origin   [ 0.0,  0.0,  0.0 ]
}
molecule test {
    units Angstrom
    0 1
    --
    0 1
    C                2.864810180431510    -1.547365942625692     0.425041479429012
    C                0.300810180431510     1.268634057374308     0.498041479429012
    C                1.488810180431510     0.562634057374309     0.311041479429012
    C               -0.829189819568490     0.609634057374309     0.957041479429012
    C                1.563810180431510    -0.802365942625691     0.591041479429012
    C               -0.775189819568490    -0.757365942625692     1.236041479429012
    C                0.425810180431510    -1.455365942625692     1.062041479429012
    O               -1.971189819568490     1.320634057374308     1.122041479429012
    H                0.261810180431510     2.327634057374308     0.295041479429011
    H                2.373810180431510     1.083634057374308    -0.026958520570988
    H               -1.839189819568490     2.256634057374309     0.967041479429012
    H               -1.659189819568490    -1.263365942625691     1.592041479429012
    H                3.340810180431510    -1.244365942625691    -0.502958520570988
    H                2.642810180431510    -2.611365942625691     0.330041479429012
    H                0.467810180431510    -2.511365942625691     1.290041479429012
    H                3.551840180431510    -1.413677942625692     1.273641479429012
    C               -0.626189819568490    -0.146365942625691    -2.837958520570989
    C               -1.915189819568490     0.660634057374309    -2.765958520570988
    H               -0.708189819568490    -0.930365942625691    -3.591958520570988
    H                0.206810180431510     0.506634057374308    -3.087958520570988
    H               -0.426189819568490    -0.607365942625692    -1.869958520570988
    H               -1.792189819568490     1.463634057374308    -2.037958520570989
    H               -2.749789819568490     0.014685057374309    -2.455808520570989
    H               -2.133479819568490     1.107365557374308    -3.747168520570988

}
e, wfn = energy('scf', return_wfn=True)
gdma(wfn)
dmavals = variable('DMA DISTRIBUTED MULTIPOLES')
charges = np.array(dmavals)
print(charges)
np.save('SSI-090TYR-113ALA-1-dimer.npy', np.array(charges))--------------------------------------------------------------------------

*** tstart() called on ds3
*** at Tue Apr 28 08:13:37 2020

   => Loading Basis Set <=

    Name: CC-PVDZ
    Role: ORBITAL
    Keyword: BASIS
    atoms 1-7, 17-18  entry C          line   138 file /theoryfs2/ds/metcalf/miniconda2/envs/tf2gpu/share/psi4/basis/cc-pvdz.gbs
    atoms 8           entry O          line   198 file /theoryfs2/ds/metcalf/miniconda2/envs/tf2gpu/share/psi4/basis/cc-pvdz.gbs
    atoms 9-16, 19-24 entry H          line    22 file /theoryfs2/ds/metcalf/miniconda2/envs/tf2gpu/share/psi4/basis/cc-pvdz.gbs

         ---------------------------------------------------------
                                   SCF
               by Justin Turney, Rob Parrish, Andy Simmonett
                          and Daniel G. A. Smith
                              RHF Reference
                        1 Threads,    500 MiB Core
         ---------------------------------------------------------

  ==> Geometry <==

    Molecular point group: c1
    Full point group: C1

    Geometry (in Angstrom), charge = 0, multiplicity = 1:

       Center              X                  Y                   Z               Mass
    ------------   -----------------  -----------------  -----------------  -----------------
         C            2.864810180432    -1.547365942626     0.425041479429    12.000000000000
         C            0.300810180432     1.268634057374     0.498041479429    12.000000000000
         C            1.488810180432     0.562634057374     0.311041479429    12.000000000000
         C           -0.829189819568     0.609634057374     0.957041479429    12.000000000000
         C            1.563810180432    -0.802365942626     0.591041479429    12.000000000000
         C           -0.775189819568    -0.757365942626     1.236041479429    12.000000000000
         C            0.425810180432    -1.455365942626     1.062041479429    12.000000000000
         O           -1.971189819568     1.320634057374     1.122041479429    15.994914619570
         H            0.261810180432     2.327634057374     0.295041479429     1.007825032230
         H            2.373810180432     1.083634057374    -0.026958520571     1.007825032230
         H           -1.839189819568     2.256634057374     0.967041479429     1.007825032230
         H           -1.659189819568    -1.263365942626     1.592041479429     1.007825032230
         H            3.340810180432    -1.244365942626    -0.502958520571     1.007825032230
         H            2.642810180432    -2.611365942626     0.330041479429     1.007825032230
         H            0.467810180432    -2.511365942626     1.290041479429     1.007825032230
         H            3.551840180432    -1.413677942626     1.273641479429     1.007825032230
         C           -0.626189819568    -0.146365942626    -2.837958520571    12.000000000000
         C           -1.915189819568     0.660634057374    -2.765958520571    12.000000000000
         H           -0.708189819568    -0.930365942626    -3.591958520571     1.007825032230
         H            0.206810180432     0.506634057374    -3.087958520571     1.007825032230
         H           -0.426189819568    -0.607365942626    -1.869958520571     1.007825032230
         H           -1.792189819568     1.463634057374    -2.037958520571     1.007825032230
         H           -2.749789819568     0.014685057374    -2.455808520571     1.007825032230
         H           -2.133479819568     1.107365557374    -3.747168520571     1.007825032230

  Running in c1 symmetry.

  Rotational constants: A =      0.04734  B =      0.03001  C =      0.02284 [cm^-1]
  Rotational constants: A =   1419.14889  B =    899.60342  C =    684.83702 [MHz]
  Nuclear repulsion =  511.085022522027771

  Charge       = 0
  Multiplicity = 1
  Electrons    = 76
  Nalpha       = 38
  Nbeta        = 38

  ==> Algorithm <==

  SCF Algorithm Type is PK.
  DIIS enabled.
  MOM disabled.
  Fractional occupation disabled.
  Guess Type is SAD.
  Energy threshold   = 1.00e-06
  Density threshold  = 1.00e-10
  Integral threshold = 0.00e+00

  ==> Primary Basis <==

  Basis Set: CC-PVDZ
    Blend: CC-PVDZ
    Number of shells: 102
    Number of basis function: 210
    Number of Cartesian functions: 220
    Spherical Harmonics?: true
    Max angular momentum: 2

  ==> Pre-Iterations <==

   -------------------------------------------------------
    Irrep   Nso     Nmo     Nalpha   Nbeta   Ndocc  Nsocc
   -------------------------------------------------------
     A        210     210       0       0       0       0
   -------------------------------------------------------
    Total     210     210      38      38      38       0
   -------------------------------------------------------

  ==> Integral Setup <==

  Using integral reordering PK algorithm.
  Sizing the integral batches needed.
  Building batch lookup table.
   Calculation information:
      Number of atoms:                  24
      Number of AO shells:             102
      Number of primitives:            290
      Number of atomic orbitals:       220
      Number of basis functions:       210

      Integral cutoff                 1.00e-12
      Number of threads:                 1

	Batch   1 pq = [       0,    9405] index = [             0,44231715] size =     44231715
	Batch   2 pq = [    9405,   13301] index = [      44231715,88464951] size =     44233236
	Batch   3 pq = [   13301,   16290] index = [      88464951,132690195] size =     44225244
	Batch   4 pq = [   16290,   18810] index = [     132690195,176917455] size =     44227260
	Batch   5 pq = [   18810,   21030] index = [     176917455,221140965] size =     44223510
	Batch   6 pq = [   21030,   22155] index = [     221140965,245433090] size =     24292125
  Task number: 23
  Buffer size: 11059200
  Buffer per thread: 2
  We computed 13594604 shell quartets total.
  Whereas there are 13799631 unique shell quartets.

  ==> DiskJK: Disk-Based J/K Matrices <==

    J tasked:                  Yes
    K tasked:                  Yes
    wK tasked:                  No
    Memory [MiB]:              375
    Schwarz Cutoff:          1E-12

    OpenMP threads:              1

  Minimum eigenvalue in the overlap matrix is 3.2650937303E-04.
  Using Symmetric Orthogonalization.

  SCF Guess: Superposition of Atomic Densities via on-the-fly atomic UHF.

  ==> Iterations <==

                        Total Energy        Delta E     RMS |[F,P]|

   @RHF iter SAD:  -422.70604641841464   -4.22706e+02   0.00000e+00
   @RHF iter   1:  -423.60194823006282   -8.95902e-01   2.98289e-03 DIIS
   @RHF iter   2:  -423.81869410629230   -2.16746e-01   1.25622e-03 DIIS
   @RHF iter   3:  -423.85360032141062   -3.49062e-02   2.78285e-04 DIIS
   @RHF iter   4:  -423.85641781631273   -2.81749e-03   1.10715e-04 DIIS
   @RHF iter   5:  -423.85673132576625   -3.13509e-04   2.12474e-05 DIIS
   @RHF iter   6:  -423.85674905999872   -1.77342e-05   6.46245e-06 DIIS
   @RHF iter   7:  -423.85675073636151   -1.67636e-06   2.06910e-06 DIIS
   @RHF iter   8:  -423.85675097349974   -2.37138e-07   8.02979e-07 DIIS
   @RHF iter   9:  -423.85675101661525   -4.31155e-08   3.44284e-07 DIIS
   @RHF iter  10:  -423.85675102584753   -9.23228e-09   1.50657e-07 DIIS
   @RHF iter  11:  -423.85675102880475   -2.95722e-09   6.20686e-08 DIIS
   @RHF iter  12:  -423.85675102927740   -4.72653e-10   2.81574e-08 DIIS
   @RHF iter  13:  -423.85675102933936   -6.19593e-11   7.83955e-09 DIIS
   @RHF iter  14:  -423.85675102934209   -2.72848e-12   2.13271e-09 DIIS
   @RHF iter  15:  -423.85675102934056    1.53477e-12   6.77092e-10 DIIS
   @RHF iter  16:  -423.85675102934243   -1.87583e-12   1.91677e-10 DIIS
   @RHF iter  17:  -423.85675102934158    8.52651e-13   7.18182e-11 DIIS
  Energy and wave function converged.

  ==> Post-Iterations <==

    Orbital Energies [Eh]
    ---------------------

    Doubly Occupied:

       1A    -20.583832     2A    -11.300221     3A    -11.240627
       4A    -11.239853     5A    -11.233970     6A    -11.232955
       7A    -11.232859     8A    -11.228055     9A    -11.210652
      10A    -11.204500    11A     -1.405336    12A     -1.151001
      13A     -1.038242    14A     -1.017769    15A     -1.009766
      16A     -0.927256    17A     -0.846510    18A     -0.826139
      19A     -0.804063    20A     -0.735043    21A     -0.670152
      22A     -0.642901    23A     -0.608784    24A     -0.597591
      25A     -0.589888    26A     -0.587247    27A     -0.580619
      28A     -0.572792    29A     -0.567227    30A     -0.525755
      31A     -0.498418    32A     -0.491695    33A     -0.485418
      34A     -0.480115    35A     -0.476873    36A     -0.460734
      37A     -0.339153    38A     -0.302832

    Virtual:

      39A      0.127058    40A      0.154934    41A      0.168098
      42A      0.183884    43A      0.206892    44A      0.214970
      45A      0.218937    46A      0.254059    47A      0.255178
      48A      0.263981    49A      0.268404    50A      0.275623
      51A      0.281273    52A      0.290724    53A      0.306548
      54A      0.309597    55A      0.369240    56A      0.374031
      57A      0.405595    58A      0.428848    59A      0.453712
      60A      0.482066    61A      0.494162    62A      0.505284
      63A      0.582839    64A      0.594179    65A      0.604787
      66A      0.610976    67A      0.637874    68A      0.644310
      69A      0.659309    70A      0.667066    71A      0.678869
      72A      0.689184    73A      0.704441    74A      0.727675
      75A      0.735046    76A      0.765275    77A      0.768812
      78A      0.772653    79A      0.787435    80A      0.818689
      81A      0.833880    82A      0.846164    83A      0.852155
      84A      0.856791    85A      0.869152    86A      0.877007
      87A      0.880753    88A      0.894512    89A      0.895955
      90A      0.902294    91A      0.910517    92A      0.918440
      93A      0.926093    94A      0.936603    95A      0.945143
      96A      0.951307    97A      0.962655    98A      0.981301
      99A      0.993058   100A      1.016656   101A      1.044806
     102A      1.114423   103A      1.121894   104A      1.135151
     105A      1.142939   106A      1.145670   107A      1.147972
     108A      1.171038   109A      1.207239   110A      1.231150
     111A      1.246437   112A      1.267047   113A      1.279304
     114A      1.290746   115A      1.308427   116A      1.313434
     117A      1.329696   118A      1.348031   119A      1.363276
     120A      1.393981   121A      1.475342   122A      1.487433
     123A      1.494207   124A      1.509243   125A      1.531484
     126A      1.551098   127A      1.593170   128A      1.617287
     129A      1.629472   130A      1.677688   131A      1.687812
     132A      1.699909   133A      1.709923   134A      1.729726
     135A      1.747936   136A      1.782581   137A      1.805182
     138A      1.825989   139A      1.869352   140A      1.874273
     141A      1.880176   142A      1.891928   143A      1.896929
     144A      1.909168   145A      1.913912   146A      1.925595
     147A      1.931021   148A      1.943849   149A      1.955154
     150A      1.955917   151A      1.964994   152A      1.967891
     153A      1.974076   154A      1.978396   155A      1.988632
     156A      1.996186   157A      2.033911   158A      2.052577
     159A      2.058607   160A      2.070734   161A      2.084440
     162A      2.121085   163A      2.126640   164A      2.132522
     165A      2.143494   166A      2.172486   167A      2.208645
     168A      2.226329   169A      2.257768   170A      2.275677
     171A      2.298256   172A      2.308801   173A      2.323322
     174A      2.329676   175A      2.385704   176A      2.416660
     177A      2.460611   178A      2.470794   179A      2.473054
     180A      2.478568   181A      2.488729   182A      2.535251
     183A      2.555451   184A      2.580625   185A      2.593210
     186A      2.606415   187A      2.654873   188A      2.753766
     189A      2.771544   190A      2.776223   191A      2.792851
     192A      2.804029   193A      2.811790   194A      2.843442
     195A      2.870702   196A      2.872238   197A      2.902174
     198A      2.953898   199A      2.968241   200A      2.988921
     201A      3.004269   202A      3.086581   203A      3.108583
     204A      3.256897   205A      3.278233   206A      3.353019
     207A      3.586487   208A      3.669530   209A      3.987578
     210A      4.193305

    Final Occupation by Irrep:
              A
    DOCC [    38 ]

  @RHF Final Energy:  -423.85675102934158

   => Energetics <=

    Nuclear Repulsion Energy =            511.0850225220277707
    One-Electron Energy =               -1587.9898679863963480
    Two-Electron Energy =                 653.0480944350268828
    Total Energy =                       -423.8567510293415808

Computation Completed

Properties will be evaluated at   0.000000,   0.000000,   0.000000 [a0]

Properties computed using the SCF density matrix

  Nuclear Dipole Moment: [e a0]
     X:     1.4319      Y:    -1.7014      Z:   -10.8438

  Electronic Dipole Moment: [e a0]
     X:    -0.9719      Y:     2.0355      Z:    10.8144

  Dipole Moment: [e a0]
     X:     0.4600      Y:     0.3341      Z:    -0.0294     Total:     0.5693

  Dipole Moment: [D]
     X:     1.1691      Y:     0.8493      Z:    -0.0748     Total:     1.4469

*** tstop() called on ds3 at Tue Apr 28 08:17:32 2020
Module time:
	user time   =     100.88 seconds =       1.68 minutes
	system time =      34.55 seconds =       0.58 minutes
	total time  =        235 seconds =       3.92 minutes
Total time:
	user time   =     100.88 seconds =       1.68 minutes
	system time =      34.55 seconds =       0.58 minutes
	total time  =        235 seconds =       3.92 minutes
                                     G D M A

                                 by Anthony Stone

                           version 2.2.06, 22 June 2011

               Distributed Multipoles from Gaussian wavefunctions

Starting at 8:17:32 on 28 Apr 2020

Using SCF density matrix from file ./SSI/SSI-090TYR-113ALA-1-dimer.test.11552.fchk

                         Distributed Multipole Analysis

Standard DMA

Positions and radii in angstrom
Multipole moments in atomic units, ea_0^k for rank k

C          x =  2.864810  y = -1.547366  z =  0.425041 angstrom
           Maximum rank =  0   Radius =  0.650 angstrom
                   Q00  =  -0.192917

C          x =  0.300810  y =  1.268634  z =  0.498041 angstrom
           Maximum rank =  0   Radius =  0.650 angstrom
                   Q00  =  -0.178103

C          x =  1.488810  y =  0.562634  z =  0.311041 angstrom
           Maximum rank =  0   Radius =  0.650 angstrom
                   Q00  =   0.050447

C          x = -0.829190  y =  0.609634  z =  0.957041 angstrom
           Maximum rank =  0   Radius =  0.650 angstrom
                   Q00  =   0.285408

C          x =  1.563810  y = -0.802366  z =  0.591041 angstrom
           Maximum rank =  0   Radius =  0.650 angstrom
                   Q00  =  -0.144656

C          x = -0.775190  y = -0.757366  z =  1.236041 angstrom
           Maximum rank =  0   Radius =  0.650 angstrom
                   Q00  =  -0.107622

C          x =  0.425810  y = -1.455366  z =  1.062041 angstrom
           Maximum rank =  0   Radius =  0.650 angstrom
                   Q00  =  -0.052446

O          x = -1.971190  y =  1.320634  z =  1.122041 angstrom
           Maximum rank =  0   Radius =  0.650 angstrom
                   Q00  =  -0.638966

H          x =  0.261810  y =  2.327634  z =  0.295041 angstrom
           Maximum rank =  0   Radius =  0.325 angstrom
                   Q00  =   0.069263

H          x =  2.373810  y =  1.083634  z = -0.026959 angstrom
           Maximum rank =  0   Radius =  0.325 angstrom
                   Q00  =   0.068229

H          x = -1.839190  y =  2.256634  z =  0.967041 angstrom
           Maximum rank =  0   Radius =  0.325 angstrom
                   Q00  =   0.407091

H          x = -1.659190  y = -1.263366  z =  1.592041 angstrom
           Maximum rank =  0   Radius =  0.325 angstrom
                   Q00  =   0.082106

H          x =  3.340810  y = -1.244366  z = -0.502959 angstrom
           Maximum rank =  0   Radius =  0.325 angstrom
                   Q00  =   0.098986

H          x =  2.642810  y = -2.611366  z =  0.330041 angstrom
           Maximum rank =  0   Radius =  0.325 angstrom
                   Q00  =   0.094553

H          x =  0.467810  y = -2.511366  z =  1.290041 angstrom
           Maximum rank =  0   Radius =  0.325 angstrom
                   Q00  =   0.066052

H          x =  3.551840  y = -1.413678  z =  1.273641 angstrom
           Maximum rank =  0   Radius =  0.325 angstrom
                   Q00  =   0.100098

C          x = -0.626190  y = -0.146366  z = -2.837959 angstrom
           Maximum rank =  0   Radius =  0.650 angstrom
                   Q00  =  -0.225149

C          x = -1.915190  y =  0.660634  z = -2.765959 angstrom
           Maximum rank =  0   Radius =  0.650 angstrom
                   Q00  =  -0.237131

H          x = -0.708190  y = -0.930366  z = -3.591959 angstrom
           Maximum rank =  0   Radius =  0.325 angstrom
                   Q00  =   0.071396

H          x =  0.206810  y =  0.506634  z = -3.087959 angstrom
           Maximum rank =  0   Radius =  0.325 angstrom
                   Q00  =   0.071707

H          x = -0.426190  y = -0.607366  z = -1.869959 angstrom
           Maximum rank =  0   Radius =  0.325 angstrom
                   Q00  =   0.093429

H          x = -1.792190  y =  1.463634  z = -2.037959 angstrom
           Maximum rank =  0   Radius =  0.325 angstrom
                   Q00  =   0.067425

H          x = -2.749790  y =  0.014685  z = -2.455809 angstrom
           Maximum rank =  0   Radius =  0.325 angstrom
                   Q00  =   0.080429

H          x = -2.133480  y =  1.107366  z = -3.747169 angstrom
           Maximum rank =  0   Radius =  0.325 angstrom
                   Q00  =   0.070372

Total multipoles referred to origin at
           x =   0.000000,  y =    0.000000,  z =    0.000000 angstrom
                   Q00  =  -0.000000

Finished at 8:17:32 on 28 Apr 2020

  DMA results are available in the Python driver through the
	  variable('DMA DISTRIBUTED MULTIPOLES')
  and
	  variable('DMA TOTAL MULTIPOLES')
  commands.

    Psi4 stopped on: Tuesday, 28 April 2020 08:17AM
    Psi4 wall time for execution: 0:03:55.32

*** Psi4 exiting successfully. Buy a developer a beer!
