                               Psi4 1.3.2 release

  ==> Input File <==

--------------------------------------------------------------------------
import numpy as np
set {scf_type pk
basis cc-pvdz
d_convergence 10
gdma_switch   0
gdma_limit    0
gdma_origin   [ 0.0,  0.0,  0.0 ]
}
molecule test {
    units Angstrom
    0 1
    --
    0 1
    C               -0.337881919849510    -1.760237810163728     2.913231094708042
    C                0.666118080150490    -2.861237810163728     2.725231094708041
    C               -0.481881919849510    -1.631237810163728     4.421231094708041
    H               -1.281881919849510    -1.940237810163727     2.436231094708041
    H                0.129118080150490    -0.845237810163728     2.559231094708041
    H                0.165118080150490    -3.828237810163727     2.793231094708041
    H                1.188118080150490    -2.775237810163727     1.771231094708041
    H               -0.584881919849510    -0.583237810163728     4.701231094708042
    H                1.355658080150490    -2.744007810163728     3.574231094708042
    H                0.457968080150490    -2.028517810163728     4.832131094708043
    H               -1.347081919849510    -2.207797810163727     4.780411094708042
    C                1.020118080150490     1.754762189836272    -3.712768905291959
    C               -0.700881919849510     0.419762189836272    -0.017768905291959
    C                0.095118080150490    -0.389237810163728    -0.721768905291958
    C               -1.051881919849510     1.677762189836272    -0.545768905291959
    C                0.679118080150490     0.040762189836272    -1.895768905291959
    C               -0.516881919849510     2.073762189836272    -1.727768905291959
    C                0.390118080150490     1.293762189836272    -2.424768905291959
    H               -0.655881919849510     0.250762189836272     1.038231094708041
    H                0.455118080150490    -1.309237810163728    -0.280768905291959
    H               -1.305881919849510     2.528762189836272     0.074231094708041
    H                1.376118080150490    -0.604237810163728    -2.405768905291958
    H               -0.711881919849510     3.080762189836272    -2.073768905291959
    H                2.084118080150490     1.511762189836272    -3.673768905291959
    H                0.937118080150490     2.842762189836272    -3.771768905291959
    H                0.582618080150490     1.285352189836272    -4.606208905291957

}
e, wfn = energy('scf', return_wfn=True)
gdma(wfn)
dmavals = variable('DMA DISTRIBUTED MULTIPOLES')
charges = np.array(dmavals)
print(charges)
np.save('SSI-098PRO-114PHE-1-dimer.npy', np.array(charges))--------------------------------------------------------------------------

*** tstart() called on ds3
*** at Tue Apr 28 00:45:21 2020

   => Loading Basis Set <=

    Name: CC-PVDZ
    Role: ORBITAL
    Keyword: BASIS
    atoms 1-3, 12-18  entry C          line   138 file /theoryfs2/ds/metcalf/miniconda2/envs/tf2gpu/share/psi4/basis/cc-pvdz.gbs
    atoms 4-11, 19-26 entry H          line    22 file /theoryfs2/ds/metcalf/miniconda2/envs/tf2gpu/share/psi4/basis/cc-pvdz.gbs

         ---------------------------------------------------------
                                   SCF
               by Justin Turney, Rob Parrish, Andy Simmonett
                          and Daniel G. A. Smith
                              RHF Reference
                        1 Threads,    500 MiB Core
         ---------------------------------------------------------

  ==> Geometry <==

    Molecular point group: c1
    Full point group: C1

    Geometry (in Angstrom), charge = 0, multiplicity = 1:

       Center              X                  Y                   Z               Mass
    ------------   -----------------  -----------------  -----------------  -----------------
         C           -0.337881919850    -1.760237810164     2.913231094708    12.000000000000
         C            0.666118080150    -2.861237810164     2.725231094708    12.000000000000
         C           -0.481881919850    -1.631237810164     4.421231094708    12.000000000000
         H           -1.281881919850    -1.940237810164     2.436231094708     1.007825032230
         H            0.129118080150    -0.845237810164     2.559231094708     1.007825032230
         H            0.165118080150    -3.828237810164     2.793231094708     1.007825032230
         H            1.188118080150    -2.775237810164     1.771231094708     1.007825032230
         H           -0.584881919850    -0.583237810164     4.701231094708     1.007825032230
         H            1.355658080150    -2.744007810164     3.574231094708     1.007825032230
         H            0.457968080150    -2.028517810164     4.832131094708     1.007825032230
         H           -1.347081919850    -2.207797810164     4.780411094708     1.007825032230
         C            1.020118080150     1.754762189836    -3.712768905292    12.000000000000
         C           -0.700881919850     0.419762189836    -0.017768905292    12.000000000000
         C            0.095118080150    -0.389237810164    -0.721768905292    12.000000000000
         C           -1.051881919850     1.677762189836    -0.545768905292    12.000000000000
         C            0.679118080150     0.040762189836    -1.895768905292    12.000000000000
         C           -0.516881919850     2.073762189836    -1.727768905292    12.000000000000
         C            0.390118080150     1.293762189836    -2.424768905292    12.000000000000
         H           -0.655881919850     0.250762189836     1.038231094708     1.007825032230
         H            0.455118080150    -1.309237810164    -0.280768905292     1.007825032230
         H           -1.305881919850     2.528762189836     0.074231094708     1.007825032230
         H            1.376118080150    -0.604237810164    -2.405768905292     1.007825032230
         H           -0.711881919850     3.080762189836    -2.073768905292     1.007825032230
         H            2.084118080150     1.511762189836    -3.673768905292     1.007825032230
         H            0.937118080150     2.842762189836    -3.771768905292     1.007825032230
         H            0.582618080150     1.285352189836    -4.606208905292     1.007825032230

  Running in c1 symmetry.

  Rotational constants: A =      0.10547  B =      0.01371  C =      0.01241 [cm^-1]
  Rotational constants: A =   3161.85340  B =    411.14489  C =    371.95647 [MHz]
  Nuclear repulsion =  477.165000249807235

  Charge       = 0
  Multiplicity = 1
  Electrons    = 76
  Nalpha       = 38
  Nbeta        = 38

  ==> Algorithm <==

  SCF Algorithm Type is PK.
  DIIS enabled.
  MOM disabled.
  Fractional occupation disabled.
  Guess Type is SAD.
  Energy threshold   = 1.00e-06
  Density threshold  = 1.00e-10
  Integral threshold = 0.00e+00

  ==> Primary Basis <==

  Basis Set: CC-PVDZ
    Blend: CC-PVDZ
    Number of shells: 108
    Number of basis function: 220
    Number of Cartesian functions: 230
    Spherical Harmonics?: true
    Max angular momentum: 2

  ==> Pre-Iterations <==

   -------------------------------------------------------
    Irrep   Nso     Nmo     Nalpha   Nbeta   Ndocc  Nsocc
   -------------------------------------------------------
     A        220     220       0       0       0       0
   -------------------------------------------------------
    Total     220     220      38      38      38       0
   -------------------------------------------------------

  ==> Integral Setup <==

  Using integral reordering PK algorithm.
  Sizing the integral batches needed.
  Building batch lookup table.
   Calculation information:
      Number of atoms:                  26
      Number of AO shells:             108
      Number of primitives:            300
      Number of atomic orbitals:       230
      Number of basis functions:       220

      Integral cutoff                 1.00e-12
      Number of threads:                 1

	Batch   1 pq = [       0,    9405] index = [             0,44231715] size =     44231715
	Batch   2 pq = [    9405,   13301] index = [      44231715,88464951] size =     44233236
	Batch   3 pq = [   13301,   16290] index = [      88464951,132690195] size =     44225244
	Batch   4 pq = [   16290,   18810] index = [     132690195,176917455] size =     44227260
	Batch   5 pq = [   18810,   21030] index = [     176917455,221140965] size =     44223510
	Batch   6 pq = [   21030,   23037] index = [     221140965,265363203] size =     44222238
	Batch   7 pq = [   23037,   24310] index = [     265363203,295500205] size =     30137002
  Task number: 27
  Buffer size: 11059200
  Buffer per thread: 2
  We computed 13220689 shell quartets total.
  Whereas there are 17325441 unique shell quartets.

  ==> DiskJK: Disk-Based J/K Matrices <==

    J tasked:                  Yes
    K tasked:                  Yes
    wK tasked:                  No
    Memory [MiB]:              375
    Schwarz Cutoff:          1E-12

    OpenMP threads:              1

  Minimum eigenvalue in the overlap matrix is 3.5857879853E-04.
  Using Symmetric Orthogonalization.

  SCF Guess: Superposition of Atomic Densities via on-the-fly atomic UHF.

  ==> Iterations <==

                        Total Energy        Delta E     RMS |[F,P]|

   @RHF iter SAD:  -387.28447584727110   -3.87284e+02   0.00000e+00
   @RHF iter   1:  -387.71141111556062   -4.26935e-01   2.84038e-03 DIIS
   @RHF iter   2:  -387.93931153207143   -2.27900e-01   1.21457e-03 DIIS
   @RHF iter   3:  -387.97764416452799   -3.83326e-02   2.54511e-04 DIIS
   @RHF iter   4:  -387.98060748993453   -2.96333e-03   4.82668e-05 DIIS
   @RHF iter   5:  -387.98069093237086   -8.34424e-05   1.46237e-05 DIIS
   @RHF iter   6:  -387.98069879023552   -7.85786e-06   4.75554e-06 DIIS
   @RHF iter   7:  -387.98069976554331   -9.75308e-07   1.68181e-06 DIIS
   @RHF iter   8:  -387.98069997876820   -2.13225e-07   7.03951e-07 DIIS
   @RHF iter   9:  -387.98070005561533   -7.68471e-08   3.12161e-07 DIIS
   @RHF iter  10:  -387.98070007136346   -1.57481e-08   1.05405e-07 DIIS
   @RHF iter  11:  -387.98070007257576   -1.21230e-09   3.81490e-08 DIIS
   @RHF iter  12:  -387.98070007269575   -1.19996e-10   1.39502e-08 DIIS
   @RHF iter  13:  -387.98070007270599   -1.02318e-11   5.29905e-09 DIIS
   @RHF iter  14:  -387.98070007270906   -3.06954e-12   1.69463e-09 DIIS
   @RHF iter  15:  -387.98070007271070   -1.64846e-12   8.32284e-10 DIIS
   @RHF iter  16:  -387.98070007271161   -9.09495e-13   3.58109e-10 DIIS
   @RHF iter  17:  -387.98070007270758    4.03588e-12   1.40188e-10 DIIS
   @RHF iter  18:  -387.98070007270860   -1.02318e-12   5.38028e-11 DIIS
  Energy and wave function converged.

  ==> Post-Iterations <==

    Orbital Energies [Eh]
    ---------------------

    Doubly Occupied:

       1A    -11.237501     2A    -11.230902     3A    -11.229121
       4A    -11.227259     5A    -11.225103     6A    -11.224773
       7A    -11.222225     8A    -11.214662     9A    -11.214294
      10A    -11.213694    11A     -1.163019    12A     -1.071911
      13A     -1.049111    14A     -1.018926    15A     -0.934217
      16A     -0.916827    17A     -0.822871    18A     -0.803798
      19A     -0.798905    20A     -0.693936    21A     -0.642149
      22A     -0.635124    23A     -0.620708    24A     -0.614936
      25A     -0.582801    26A     -0.575892    27A     -0.567508
      28A     -0.542602    29A     -0.537022    30A     -0.517354
      31A     -0.493315    32A     -0.490997    33A     -0.483640
      34A     -0.473387    35A     -0.461598    36A     -0.460680
      37A     -0.336400    38A     -0.319813

    Virtual:

      39A      0.127343    40A      0.146218    41A      0.174033
      42A      0.190413    43A      0.206809    44A      0.209796
      45A      0.224369    46A      0.228842    47A      0.243546
      48A      0.253452    49A      0.263413    50A      0.265097
      51A      0.280509    52A      0.293875    53A      0.298399
      54A      0.324952    55A      0.343631    56A      0.348675
      57A      0.361476    58A      0.382821    59A      0.399056
      60A      0.420418    61A      0.461828    62A      0.477543
      63A      0.483084    64A      0.509489    65A      0.560376
      66A      0.580553    67A      0.604468    68A      0.611442
      69A      0.630304    70A      0.642313    71A      0.660843
      72A      0.675860    73A      0.686852    74A      0.694574
      75A      0.708500    76A      0.732699    77A      0.741443
      78A      0.745185    79A      0.753762    80A      0.768560
      81A      0.768799    82A      0.777543    83A      0.790181
      84A      0.803774    85A      0.816045    86A      0.828148
      87A      0.839435    88A      0.853066    89A      0.867037
      90A      0.869824    91A      0.879426    92A      0.882028
      93A      0.894601    94A      0.900041    95A      0.902597
      96A      0.908749    97A      0.920840    98A      0.923965
      99A      0.925583   100A      0.940389   101A      0.940992
     102A      0.942586   103A      0.958368   104A      0.971825
     105A      0.988819   106A      0.992602   107A      1.039242
     108A      1.046698   109A      1.099164   110A      1.107005
     111A      1.116816   112A      1.131753   113A      1.151885
     114A      1.164635   115A      1.177078   116A      1.193472
     117A      1.218924   118A      1.228252   119A      1.259250
     120A      1.304125   121A      1.315098   122A      1.339373
     123A      1.346181   124A      1.405155   125A      1.421489
     126A      1.463140   127A      1.475157   128A      1.489125
     129A      1.524786   130A      1.556784   131A      1.567619
     132A      1.589492   133A      1.620375   134A      1.632636
     135A      1.638968   136A      1.665452   137A      1.697026
     138A      1.711397   139A      1.718829   140A      1.737253
     141A      1.757587   142A      1.765419   143A      1.788180
     144A      1.808028   145A      1.837767   146A      1.840886
     147A      1.863983   148A      1.873972   149A      1.880198
     150A      1.882655   151A      1.895616   152A      1.910081
     153A      1.919567   154A      1.920419   155A      1.924636
     156A      1.938548   157A      1.947348   158A      1.953809
     159A      1.969861   160A      1.974288   161A      1.986071
     162A      1.992622   163A      2.019077   164A      2.024955
     165A      2.040919   166A      2.049823   167A      2.056891
     168A      2.064212   169A      2.085002   170A      2.089633
     171A      2.149632   172A      2.152629   173A      2.159316
     174A      2.184763   175A      2.198853   176A      2.211923
     177A      2.228157   178A      2.231183   179A      2.248535
     180A      2.277743   181A      2.282933   182A      2.303472
     183A      2.315884   184A      2.329406   185A      2.339007
     186A      2.359069   187A      2.397696   188A      2.442701
     189A      2.464907   190A      2.474304   191A      2.489942
     192A      2.513094   193A      2.524412   194A      2.550375
     195A      2.572882   196A      2.620085   197A      2.635572
     198A      2.707422   199A      2.732265   200A      2.744781
     201A      2.759738   202A      2.770702   203A      2.784772
     204A      2.792140   205A      2.805049   206A      2.833569
     207A      2.837207   208A      2.847889   209A      2.852692
     210A      2.857190   211A      2.925337   212A      2.954728
     213A      2.962792   214A      3.006327   215A      3.034220
     216A      3.083269   217A      3.152517   218A      3.222664
     219A      3.296884   220A      3.890665

    Final Occupation by Irrep:
              A
    DOCC [    38 ]

  @RHF Final Energy:  -387.98070007270860

   => Energetics <=

    Nuclear Repulsion Energy =            477.1650002498072354
    One-Electron Energy =               -1468.5534390093071124
    Two-Electron Energy =                 603.4077386867912765
    Total Energy =                       -387.9807000727086006

Computation Completed

Properties will be evaluated at   0.000000,   0.000000,   0.000000 [a0]

Properties computed using the SCF density matrix

  Nuclear Dipole Moment: [e a0]
     X:     2.6658      Y:    -6.9052      Z:    11.0137

  Electronic Dipole Moment: [e a0]
     X:    -2.3486      Y:     7.0350      Z:   -11.0674

  Dipole Moment: [e a0]
     X:     0.3172      Y:     0.1298      Z:    -0.0537     Total:     0.3469

  Dipole Moment: [D]
     X:     0.8061      Y:     0.3299      Z:    -0.1366     Total:     0.8817

*** tstop() called on ds3 at Tue Apr 28 00:47:39 2020
Module time:
	user time   =      96.46 seconds =       1.61 minutes
	system time =      46.82 seconds =       0.78 minutes
	total time  =        138 seconds =       2.30 minutes
Total time:
	user time   =      96.46 seconds =       1.61 minutes
	system time =      46.82 seconds =       0.78 minutes
	total time  =        138 seconds =       2.30 minutes
                                     G D M A

                                 by Anthony Stone

                           version 2.2.06, 22 June 2011

               Distributed Multipoles from Gaussian wavefunctions

Starting at 0:47:39 on 28 Apr 2020

Using SCF density matrix from file ./SSI/SSI-098PRO-114PHE-1-dimer.test.24082.fchk

                         Distributed Multipole Analysis

Standard DMA

Positions and radii in angstrom
Multipole moments in atomic units, ea_0^k for rank k

C          x = -0.337882  y = -1.760238  z =  2.913231 angstrom
           Maximum rank =  0   Radius =  0.650 angstrom
                   Q00  =  -0.084162

C          x =  0.666118  y = -2.861238  z =  2.725231 angstrom
           Maximum rank =  0   Radius =  0.650 angstrom
                   Q00  =  -0.213976

C          x = -0.481882  y = -1.631238  z =  4.421231 angstrom
           Maximum rank =  0   Radius =  0.650 angstrom
                   Q00  =  -0.234765

H          x = -1.281882  y = -1.940238  z =  2.436231 angstrom
           Maximum rank =  0   Radius =  0.325 angstrom
                   Q00  =   0.062538

H          x =  0.129118  y = -0.845238  z =  2.559231 angstrom
           Maximum rank =  0   Radius =  0.325 angstrom
                   Q00  =   0.038280

H          x =  0.165118  y = -3.828238  z =  2.793231 angstrom
           Maximum rank =  0   Radius =  0.325 angstrom
                   Q00  =   0.076243

H          x =  1.188118  y = -2.775238  z =  1.771231 angstrom
           Maximum rank =  0   Radius =  0.325 angstrom
                   Q00  =   0.076927

H          x = -0.584882  y = -0.583238  z =  4.701231 angstrom
           Maximum rank =  0   Radius =  0.325 angstrom
                   Q00  =   0.085312

H          x =  1.355658  y = -2.744008  z =  3.574231 angstrom
           Maximum rank =  0   Radius =  0.325 angstrom
                   Q00  =   0.053834

H          x =  0.457968  y = -2.028518  z =  4.832131 angstrom
           Maximum rank =  0   Radius =  0.325 angstrom
                   Q00  =   0.063397

H          x = -1.347082  y = -2.207798  z =  4.780411 angstrom
           Maximum rank =  0   Radius =  0.325 angstrom
                   Q00  =   0.079207

C          x =  1.020118  y =  1.754762  z = -3.712769 angstrom
           Maximum rank =  0   Radius =  0.650 angstrom
                   Q00  =  -0.206783

C          x = -0.700882  y =  0.419762  z = -0.017769 angstrom
           Maximum rank =  0   Radius =  0.650 angstrom
                   Q00  =  -0.120608

C          x =  0.095118  y = -0.389238  z = -0.721769 angstrom
           Maximum rank =  0   Radius =  0.650 angstrom
                   Q00  =  -0.045009

C          x = -1.051882  y =  1.677762  z = -0.545769 angstrom
           Maximum rank =  0   Radius =  0.650 angstrom
                   Q00  =  -0.116756

C          x =  0.679118  y =  0.040762  z = -1.895769 angstrom
           Maximum rank =  0   Radius =  0.650 angstrom
                   Q00  =  -0.023865

C          x = -0.516882  y =  2.073762  z = -1.727769 angstrom
           Maximum rank =  0   Radius =  0.650 angstrom
                   Q00  =  -0.015238

C          x =  0.390118  y =  1.293762  z = -2.424769 angstrom
           Maximum rank =  0   Radius =  0.650 angstrom
                   Q00  =  -0.101711

H          x = -0.655882  y =  0.250762  z =  1.038231 angstrom
           Maximum rank =  0   Radius =  0.325 angstrom
                   Q00  =   0.078314

H          x =  0.455118  y = -1.309238  z = -0.280769 angstrom
           Maximum rank =  0   Radius =  0.325 angstrom
                   Q00  =   0.056010

H          x = -1.305882  y =  2.528762  z =  0.074231 angstrom
           Maximum rank =  0   Radius =  0.325 angstrom
                   Q00  =   0.085662

H          x =  1.376118  y = -0.604238  z = -2.405769 angstrom
           Maximum rank =  0   Radius =  0.325 angstrom
                   Q00  =   0.049664

H          x = -0.711882  y =  3.080762  z = -2.073769 angstrom
           Maximum rank =  0   Radius =  0.325 angstrom
                   Q00  =   0.053421

H          x =  2.084118  y =  1.511762  z = -3.673769 angstrom
           Maximum rank =  0   Radius =  0.325 angstrom
                   Q00  =   0.098556

H          x =  0.937118  y =  2.842762  z = -3.771769 angstrom
           Maximum rank =  0   Radius =  0.325 angstrom
                   Q00  =   0.097168

H          x =  0.582618  y =  1.285352  z = -4.606209 angstrom
           Maximum rank =  0   Radius =  0.325 angstrom
                   Q00  =   0.108341

Total multipoles referred to origin at
           x =   0.000000,  y =    0.000000,  z =    0.000000 angstrom
                   Q00  =  -0.000000

Finished at 0:47:39 on 28 Apr 2020

  DMA results are available in the Python driver through the
	  variable('DMA DISTRIBUTED MULTIPOLES')
  and
	  variable('DMA TOTAL MULTIPOLES')
  commands.

    Psi4 stopped on: Tuesday, 28 April 2020 12:47AM
    Psi4 wall time for execution: 0:02:17.99

*** Psi4 exiting successfully. Buy a developer a beer!
