                               Psi4 1.3.2 release

  ==> Input File <==

--------------------------------------------------------------------------
import numpy as np
set {scf_type pk
basis cc-pvdz
d_convergence 10
gdma_switch   0
gdma_limit    0
gdma_origin   [ 0.0,  0.0,  0.0 ]
}
molecule test {
    units Angstrom
    0 1
    --
    0 1
    C               -1.356099286138132    -1.095541343477748     3.666568219937494
    C               -0.633099286138132    -0.770541343477748    -0.053431780062506
    C                0.125900713861868    -1.871541343477747    -0.282431780062506
    C               -1.129099286138132    -0.527541343477748     1.216568219937494
    C               -0.838099286138132    -1.386541343477748     2.273568219937494
    C                0.399900713861868    -2.754541343477748     0.757568219937494
    C               -0.079099286138132    -2.515541343477748     2.024568219937494
    H               -0.873099286138132    -0.106541343477748    -0.866431780062506
    H                0.511900713861868    -2.064541343477748    -1.273431780062506
    H               -1.739099286138132     0.346458656522252     1.382568219937494
    H                1.001900713861868    -3.626541343477748     0.566568219937494
    H               -1.346099286138132    -0.018541343477748     3.833568219937494
    H               -0.677099286138132    -1.542541343477748     4.392568219937494
    H                0.147900713861868    -3.207541343477748     2.824568219937494
    H               -2.368209286138133    -1.486650343477748     3.847302219937494
    C               -0.084099286138132     2.682458656522252    -1.450431780062506
    C               -1.152099286138132     2.439458656522252    -2.480431780062506
    C                1.126900713861868     1.784458656522252    -1.651431780062506
    O                1.100900713861868     0.826458656522252    -2.425431780062506
    N                2.179900713861868     2.066458656522252    -0.909431780062506
    H                0.235900713861868     3.718458656522252    -1.528431780062506
    H               -0.481099286138132     2.513458656522252    -0.449431780062506
    H               -1.498099286138132     1.408458656522252    -2.421431780062506
    H               -0.717099286138132     2.599458656522252    -3.469431780062506
    H                2.978900713861868     1.449458656522252    -0.902431780062506
    H                2.172900713861868     2.891458656522252    -0.306431780062506
    H               -2.019169286138132     3.107928656522252    -2.373937080062506

}
e, wfn = energy('scf', return_wfn=True)
gdma(wfn)
dmavals = variable('DMA DISTRIBUTED MULTIPOLES')
charges = np.array(dmavals)
print(charges)
np.save('SSI-027PHE-078GLN-1-dimer.npy', np.array(charges))--------------------------------------------------------------------------

*** tstart() called on ds3
*** at Sun Apr 26 21:39:37 2020

   => Loading Basis Set <=

    Name: CC-PVDZ
    Role: ORBITAL
    Keyword: BASIS
    atoms 1-7, 16-18  entry C          line   138 file /theoryfs2/ds/metcalf/miniconda2/envs/tf2gpu/share/psi4/basis/cc-pvdz.gbs
    atoms 8-15, 21-27 entry H          line    22 file /theoryfs2/ds/metcalf/miniconda2/envs/tf2gpu/share/psi4/basis/cc-pvdz.gbs
    atoms 19          entry O          line   198 file /theoryfs2/ds/metcalf/miniconda2/envs/tf2gpu/share/psi4/basis/cc-pvdz.gbs
    atoms 20          entry N          line   168 file /theoryfs2/ds/metcalf/miniconda2/envs/tf2gpu/share/psi4/basis/cc-pvdz.gbs

         ---------------------------------------------------------
                                   SCF
               by Justin Turney, Rob Parrish, Andy Simmonett
                          and Daniel G. A. Smith
                              RHF Reference
                        1 Threads,    500 MiB Core
         ---------------------------------------------------------

  ==> Geometry <==

    Molecular point group: c1
    Full point group: C1

    Geometry (in Angstrom), charge = 0, multiplicity = 1:

       Center              X                  Y                   Z               Mass
    ------------   -----------------  -----------------  -----------------  -----------------
         C           -1.356099286138    -1.095541343478     3.666568219937    12.000000000000
         C           -0.633099286138    -0.770541343478    -0.053431780063    12.000000000000
         C            0.125900713862    -1.871541343478    -0.282431780063    12.000000000000
         C           -1.129099286138    -0.527541343478     1.216568219937    12.000000000000
         C           -0.838099286138    -1.386541343478     2.273568219937    12.000000000000
         C            0.399900713862    -2.754541343478     0.757568219937    12.000000000000
         C           -0.079099286138    -2.515541343478     2.024568219937    12.000000000000
         H           -0.873099286138    -0.106541343478    -0.866431780063     1.007825032230
         H            0.511900713862    -2.064541343478    -1.273431780063     1.007825032230
         H           -1.739099286138     0.346458656522     1.382568219937     1.007825032230
         H            1.001900713862    -3.626541343478     0.566568219937     1.007825032230
         H           -1.346099286138    -0.018541343478     3.833568219937     1.007825032230
         H           -0.677099286138    -1.542541343478     4.392568219937     1.007825032230
         H            0.147900713862    -3.207541343478     2.824568219937     1.007825032230
         H           -2.368209286138    -1.486650343478     3.847302219937     1.007825032230
         C           -0.084099286138     2.682458656522    -1.450431780063    12.000000000000
         C           -1.152099286138     2.439458656522    -2.480431780063    12.000000000000
         C            1.126900713862     1.784458656522    -1.651431780063    12.000000000000
         O            1.100900713862     0.826458656522    -2.425431780063    15.994914619570
         N            2.179900713862     2.066458656522    -0.909431780063    14.003074004430
         H            0.235900713862     3.718458656522    -1.528431780063     1.007825032230
         H           -0.481099286138     2.513458656522    -0.449431780063     1.007825032230
         H           -1.498099286138     1.408458656522    -2.421431780063     1.007825032230
         H           -0.717099286138     2.599458656522    -3.469431780063     1.007825032230
         H            2.978900713862     1.449458656522    -0.902431780063     1.007825032230
         H            2.172900713862     2.891458656522    -0.306431780063     1.007825032230
         H           -2.019169286138     3.107928656522    -2.373937080063     1.007825032230

  Running in c1 symmetry.

  Rotational constants: A =      0.04894  B =      0.01388  C =      0.01288 [cm^-1]
  Rotational constants: A =   1467.12857  B =    415.97443  C =    386.00670 [MHz]
  Nuclear repulsion =  659.242220078688547

  Charge       = 0
  Multiplicity = 1
  Electrons    = 90
  Nalpha       = 45
  Nbeta        = 45

  ==> Algorithm <==

  SCF Algorithm Type is PK.
  DIIS enabled.
  MOM disabled.
  Fractional occupation disabled.
  Guess Type is SAD.
  Energy threshold   = 1.00e-06
  Density threshold  = 1.00e-10
  Integral threshold = 0.00e+00

  ==> Primary Basis <==

  Basis Set: CC-PVDZ
    Blend: CC-PVDZ
    Number of shells: 117
    Number of basis function: 243
    Number of Cartesian functions: 255
    Spherical Harmonics?: true
    Max angular momentum: 2

  ==> Pre-Iterations <==

   -------------------------------------------------------
    Irrep   Nso     Nmo     Nalpha   Nbeta   Ndocc  Nsocc
   -------------------------------------------------------
     A        243     243       0       0       0       0
   -------------------------------------------------------
    Total     243     243      45      45      45       0
   -------------------------------------------------------

  ==> Integral Setup <==

  Using integral reordering PK algorithm.
  Sizing the integral batches needed.
  Building batch lookup table.
   Calculation information:
      Number of atoms:                  27
      Number of AO shells:             117
      Number of primitives:            339
      Number of atomic orbitals:       255
      Number of basis functions:       243

      Integral cutoff                 1.00e-12
      Number of threads:                 1

	Batch   1 pq = [       0,    9405] index = [             0,44231715] size =     44231715
	Batch   2 pq = [    9405,   13301] index = [      44231715,88464951] size =     44233236
	Batch   3 pq = [   13301,   16290] index = [      88464951,132690195] size =     44225244
	Batch   4 pq = [   16290,   18810] index = [     132690195,176917455] size =     44227260
	Batch   5 pq = [   18810,   21030] index = [     176917455,221140965] size =     44223510
	Batch   6 pq = [   21030,   23037] index = [     221140965,265363203] size =     44222238
	Batch   7 pq = [   23037,   24883] index = [     265363203,309594286] size =     44231083
	Batch   8 pq = [   24883,   26601] index = [     309594286,353819901] size =     44225615
	Batch   9 pq = [   26601,   28214] index = [     353819901,398029005] size =     44209104
	Batch  10 pq = [   28214,   29646] index = [     398029005,439457481] size =     41428476
  Task number: 40
  Buffer size: 11059200
  Buffer per thread: 2
  We computed 22032036 shell quartets total.
  Whereas there are 23829156 unique shell quartets.

  ==> DiskJK: Disk-Based J/K Matrices <==

    J tasked:                  Yes
    K tasked:                  Yes
    wK tasked:                  No
    Memory [MiB]:              375
    Schwarz Cutoff:          1E-12

    OpenMP threads:              1

  Minimum eigenvalue in the overlap matrix is 2.7651704582E-04.
  Using Symmetric Orthogonalization.

  SCF Guess: Superposition of Atomic Densities via on-the-fly atomic UHF.

  ==> Iterations <==

                        Total Energy        Delta E     RMS |[F,P]|

   @RHF iter SAD:  -515.64510511365938   -5.15645e+02   0.00000e+00
   @RHF iter   1:  -516.46050221486757   -8.15397e-01   3.03248e-03 DIIS
   @RHF iter   2:  -516.72259875691543   -2.62097e-01   1.59051e-03 DIIS
   @RHF iter   3:  -516.78393465372085   -6.13359e-02   3.73977e-04 DIIS
   @RHF iter   4:  -516.78863879918742   -4.70415e-03   1.52950e-04 DIIS
   @RHF iter   5:  -516.78942031040719   -7.81511e-04   2.14883e-05 DIIS
   @RHF iter   6:  -516.78945327427846   -3.29639e-05   9.20365e-06 DIIS
   @RHF iter   7:  -516.78945849225045   -5.21797e-06   3.58139e-06 DIIS
   @RHF iter   8:  -516.78945952725974   -1.03501e-06   1.47153e-06 DIIS
   @RHF iter   9:  -516.78945970214284   -1.74883e-07   5.52745e-07 DIIS
   @RHF iter  10:  -516.78945972091060   -1.87678e-08   1.61192e-07 DIIS
   @RHF iter  11:  -516.78945972290489   -1.99429e-09   4.65066e-08 DIIS
   @RHF iter  12:  -516.78945972303245   -1.27557e-10   1.67865e-08 DIIS
   @RHF iter  13:  -516.78945972305439   -2.19416e-11   5.17936e-09 DIIS
   @RHF iter  14:  -516.78945972305519   -7.95808e-13   2.47848e-09 DIIS
   @RHF iter  15:  -516.78945972305360    1.59162e-12   1.22167e-09 DIIS
   @RHF iter  16:  -516.78945972305905   -5.45697e-12   5.10673e-10 DIIS
   @RHF iter  17:  -516.78945972305689    2.16005e-12   1.73104e-10 DIIS
   @RHF iter  18:  -516.78945972305110    5.79803e-12   5.06829e-11 DIIS
  Energy and wave function converged.

  ==> Post-Iterations <==

    Orbital Energies [Eh]
    ---------------------

    Doubly Occupied:

       1A    -20.506355     2A    -15.589229     3A    -11.345777
       4A    -11.240970     5A    -11.233356     6A    -11.226905
       7A    -11.224339     8A    -11.222105     9A    -11.221242
      10A    -11.220637    11A    -11.218889    12A    -11.215427
      13A     -1.368432    14A     -1.217512    15A     -1.152211
      16A     -1.054011    17A     -1.039734    18A     -1.008577
      19A     -0.927170    20A     -0.888959    21A     -0.819470
      22A     -0.790502    23A     -0.784698    24A     -0.719911
      25A     -0.686850    26A     -0.667583    27A     -0.643632
      28A     -0.627845    29A     -0.618962    30A     -0.587365
      31A     -0.576498    32A     -0.573252    33A     -0.554529
      34A     -0.551438    35A     -0.532123    36A     -0.525898
      37A     -0.504833    38A     -0.492643    39A     -0.484957
      40A     -0.477383    41A     -0.472622    42A     -0.410917
      43A     -0.404267    44A     -0.328746    45A     -0.316008

    Virtual:

      46A      0.143469    47A      0.149929    48A      0.164578
      49A      0.180349    50A      0.197656    51A      0.200059
      52A      0.212607    53A      0.228999    54A      0.232137
      55A      0.250819    56A      0.257815    57A      0.262004
      58A      0.267127    59A      0.273980    60A      0.291378
      61A      0.293596    62A      0.316780    63A      0.369710
      64A      0.378225    65A      0.384326    66A      0.402488
      67A      0.419899    68A      0.464628    69A      0.477332
      70A      0.488062    71A      0.493789    72A      0.511967
      73A      0.539491    74A      0.571918    75A      0.605320
      76A      0.616482    77A      0.638429    78A      0.643383
      79A      0.661362    80A      0.674517    81A      0.693742
      82A      0.702054    83A      0.715003    84A      0.719268
      85A      0.726393    86A      0.739312    87A      0.746270
      88A      0.749081    89A      0.762418    90A      0.766841
      91A      0.780424    92A      0.783129    93A      0.802413
      94A      0.822863    95A      0.832904    96A      0.853066
      97A      0.859232    98A      0.861477    99A      0.871215
     100A      0.878042   101A      0.887169   102A      0.895461
     103A      0.898776   104A      0.904079   105A      0.914866
     106A      0.921734   107A      0.926299   108A      0.932535
     109A      0.940199   110A      0.958301   111A      0.961223
     112A      0.968508   113A      0.974052   114A      1.013996
     115A      1.019809   116A      1.038822   117A      1.056578
     118A      1.086149   119A      1.088640   120A      1.125131
     121A      1.156125   122A      1.159804   123A      1.164252
     124A      1.169666   125A      1.178077   126A      1.210880
     127A      1.249429   128A      1.255318   129A      1.263154
     130A      1.270441   131A      1.297690   132A      1.312719
     133A      1.316521   134A      1.328900   135A      1.337234
     136A      1.347076   137A      1.370476   138A      1.391075
     139A      1.419761   140A      1.441898   141A      1.451001
     142A      1.484353   143A      1.499332   144A      1.528713
     145A      1.549068   146A      1.565369   147A      1.610930
     148A      1.631308   149A      1.662785   150A      1.675161
     151A      1.693838   152A      1.705020   153A      1.721227
     154A      1.748309   155A      1.767012   156A      1.772125
     157A      1.788144   158A      1.796659   159A      1.813519
     160A      1.823956   161A      1.858000   162A      1.878279
     163A      1.880586   164A      1.888885   165A      1.900036
     166A      1.914933   167A      1.918640   168A      1.923888
     169A      1.930855   170A      1.936625   171A      1.954672
     172A      1.960422   173A      1.968684   174A      1.970084
     175A      1.989812   176A      1.996464   177A      2.000928
     178A      2.008140   179A      2.023915   180A      2.026191
     181A      2.042227   182A      2.060310   183A      2.074059
     184A      2.078406   185A      2.099928   186A      2.125030
     187A      2.136920   188A      2.163487   189A      2.172255
     190A      2.179694   191A      2.190399   192A      2.198522
     193A      2.214663   194A      2.258026   195A      2.273758
     196A      2.292653   197A      2.300118   198A      2.305277
     199A      2.311203   200A      2.324703   201A      2.344313
     202A      2.350420   203A      2.378699   204A      2.454922
     205A      2.481986   206A      2.486078   207A      2.494021
     208A      2.507820   209A      2.548956   210A      2.558631
     211A      2.561766   212A      2.579386   213A      2.606194
     214A      2.625177   215A      2.638423   216A      2.734529
     217A      2.759017   218A      2.776014   219A      2.785973
     220A      2.790559   221A      2.809137   222A      2.835374
     223A      2.857379   224A      2.866774   225A      2.887341
     226A      2.906468   227A      2.913543   228A      2.962997
     229A      3.018233   230A      3.035205   231A      3.038847
     232A      3.063247   233A      3.108081   234A      3.155138
     235A      3.182979   236A      3.233062   237A      3.278827
     238A      3.342540   239A      3.520973   240A      3.530438
     241A      3.861062   242A      3.911702   243A      4.022951

    Final Occupation by Irrep:
              A
    DOCC [    45 ]

  @RHF Final Energy:  -516.78945972305110

   => Energetics <=

    Nuclear Repulsion Energy =            659.2422200786885469
    One-Electron Energy =               -2009.5138184133170398
    Two-Electron Energy =                 833.4821386115772839
    Total Energy =                       -516.7894597230510954

Computation Completed

Properties will be evaluated at   0.000000,   0.000000,   0.000000 [a0]

Properties computed using the SCF density matrix

  Nuclear Dipole Moment: [e a0]
     X:    -4.3787      Y:     5.6061      Z:     3.0432

  Electronic Dipole Moment: [e a0]
     X:     4.7618      Y:    -4.3992      Z:    -1.9662

  Dipole Moment: [e a0]
     X:     0.3831      Y:     1.2070      Z:     1.0770     Total:     1.6624

  Dipole Moment: [D]
     X:     0.9738      Y:     3.0678      Z:     2.7374     Total:     4.2253

*** tstop() called on ds3 at Sun Apr 26 21:47:44 2020
Module time:
	user time   =     166.02 seconds =       2.77 minutes
	system time =      64.03 seconds =       1.07 minutes
	total time  =        487 seconds =       8.12 minutes
Total time:
	user time   =     166.02 seconds =       2.77 minutes
	system time =      64.03 seconds =       1.07 minutes
	total time  =        487 seconds =       8.12 minutes
                                     G D M A

                                 by Anthony Stone

                           version 2.2.06, 22 June 2011

               Distributed Multipoles from Gaussian wavefunctions

Starting at 21:47:44 on 26 Apr 2020

Using SCF density matrix from file ./SSI/SSI-027PHE-078GLN-1-dimer.test.5534.fchk

                         Distributed Multipole Analysis

Standard DMA

Positions and radii in angstrom
Multipole moments in atomic units, ea_0^k for rank k

C          x = -1.356099  y = -1.095541  z =  3.666568 angstrom
           Maximum rank =  0   Radius =  0.650 angstrom
                   Q00  =  -0.201681

C          x = -0.633099  y = -0.770541  z = -0.053432 angstrom
           Maximum rank =  0   Radius =  0.650 angstrom
                   Q00  =  -0.055384

C          x =  0.125901  y = -1.871541  z = -0.282432 angstrom
           Maximum rank =  0   Radius =  0.650 angstrom
                   Q00  =  -0.066677

C          x = -1.129099  y = -0.527541  z =  1.216568 angstrom
           Maximum rank =  0   Radius =  0.650 angstrom
                   Q00  =  -0.035164

C          x = -0.838099  y = -1.386541  z =  2.273568 angstrom
           Maximum rank =  0   Radius =  0.650 angstrom
                   Q00  =  -0.113787

C          x =  0.399901  y = -2.754541  z =  0.757568 angstrom
           Maximum rank =  0   Radius =  0.650 angstrom
                   Q00  =  -0.023603

C          x = -0.079099  y = -2.515541  z =  2.024568 angstrom
           Maximum rank =  0   Radius =  0.650 angstrom
                   Q00  =  -0.085126

H          x = -0.873099  y = -0.106541  z = -0.866432 angstrom
           Maximum rank =  0   Radius =  0.325 angstrom
                   Q00  =   0.058050

H          x =  0.511901  y = -2.064541  z = -1.273432 angstrom
           Maximum rank =  0   Radius =  0.325 angstrom
                   Q00  =   0.068091

H          x = -1.739099  y =  0.346459  z =  1.382568 angstrom
           Maximum rank =  0   Radius =  0.325 angstrom
                   Q00  =   0.041544

H          x =  1.001901  y = -3.626541  z =  0.566568 angstrom
           Maximum rank =  0   Radius =  0.325 angstrom
                   Q00  =   0.058795

H          x = -1.346099  y = -0.018541  z =  3.833568 angstrom
           Maximum rank =  0   Radius =  0.325 angstrom
                   Q00  =   0.095622

H          x = -0.677099  y = -1.542541  z =  4.392568 angstrom
           Maximum rank =  0   Radius =  0.325 angstrom
                   Q00  =   0.095541

H          x =  0.147901  y = -3.207541  z =  2.824568 angstrom
           Maximum rank =  0   Radius =  0.325 angstrom
                   Q00  =   0.051729

H          x = -2.368209  y = -1.486650  z =  3.847302 angstrom
           Maximum rank =  0   Radius =  0.325 angstrom
                   Q00  =   0.104688

C          x = -0.084099  y =  2.682459  z = -1.450432 angstrom
           Maximum rank =  0   Radius =  0.650 angstrom
                   Q00  =  -0.174140

C          x = -1.152099  y =  2.439459  z = -2.480432 angstrom
           Maximum rank =  0   Radius =  0.650 angstrom
                   Q00  =  -0.218366

C          x =  1.126901  y =  1.784459  z = -1.651432 angstrom
           Maximum rank =  0   Radius =  0.650 angstrom
                   Q00  =   0.887368

O          x =  1.100901  y =  0.826459  z = -2.425432 angstrom
           Maximum rank =  0   Radius =  0.650 angstrom
                   Q00  =  -0.820051

N          x =  2.179901  y =  2.066459  z = -0.909432 angstrom
           Maximum rank =  0   Radius =  0.650 angstrom
                   Q00  =  -0.552951

H          x =  0.235901  y =  3.718459  z = -1.528432 angstrom
           Maximum rank =  0   Radius =  0.325 angstrom
                   Q00  =   0.077085

H          x = -0.481099  y =  2.513459  z = -0.449432 angstrom
           Maximum rank =  0   Radius =  0.325 angstrom
                   Q00  =   0.096592

H          x = -1.498099  y =  1.408459  z = -2.421432 angstrom
           Maximum rank =  0   Radius =  0.325 angstrom
                   Q00  =   0.106148

H          x = -0.717099  y =  2.599459  z = -3.469432 angstrom
           Maximum rank =  0   Radius =  0.325 angstrom
                   Q00  =   0.098060

H          x =  2.978901  y =  1.449459  z = -0.902432 angstrom
           Maximum rank =  0   Radius =  0.325 angstrom
                   Q00  =   0.222437

H          x =  2.172901  y =  2.891459  z = -0.306432 angstrom
           Maximum rank =  0   Radius =  0.325 angstrom
                   Q00  =   0.206125

H          x = -2.019169  y =  3.107929  z = -2.373937 angstrom
           Maximum rank =  0   Radius =  0.325 angstrom
                   Q00  =   0.079058

Total multipoles referred to origin at
           x =   0.000000,  y =    0.000000,  z =    0.000000 angstrom
                   Q00  =  -0.000000

Finished at 21:47:44 on 26 Apr 2020

  DMA results are available in the Python driver through the
	  variable('DMA DISTRIBUTED MULTIPOLES')
  and
	  variable('DMA TOTAL MULTIPOLES')
  commands.

    Psi4 stopped on: Sunday, 26 April 2020 09:47PM
    Psi4 wall time for execution: 0:08:06.24

*** Psi4 exiting successfully. Buy a developer a beer!
