                               Psi4 1.3.2 release

  ==> Input File <==

--------------------------------------------------------------------------
import numpy as np
set {scf_type pk
basis cc-pvdz
d_convergence 10
gdma_switch   0
gdma_limit    0
gdma_origin   [ 0.0,  0.0,  0.0 ]
}
molecule test {
    units Angstrom
    0 1
    --
    0 1
    C               -0.671756357890598     0.067297942703319    -2.793006349844100
    C               -1.330756357890598    -0.571702057296681    -4.054006349844101
    H                0.391243642109402     0.230297942703319    -2.974006349844100
    H               -1.148756357890598     1.022297942703319    -2.570006349844100
    H               -0.789756357890598    -0.597702057296681    -1.937006349844101
    H               -2.376756357890597    -0.761702057296681    -3.802006349844100
    H               -0.863034357890598    -1.542545057296681    -4.274686349844100
    H               -1.307154357890598     0.083444942703319    -4.937306349844101
    C               -1.849756357890598     2.025297942703319     0.345993650155900
    C               -0.719756357890598     1.029297942703318     0.620993650155899
    C               -1.005756357890598    -0.131702057296681     1.362993650155899
    C                0.599243642109402     1.250297942703319     0.151993650155900
    C               -0.020756357890598    -1.037702057296682     1.677993650155899
    C                1.610243642109402     0.321297942703319     0.458993650155899
    C                1.289243642109402    -0.815702057296681     1.246993650155900
    O                2.176243642109402    -1.796702057296681     1.610993650155899
    H               -2.722756357890598     1.483297942703319    -0.021006349844100
    H               -1.538756357890598     2.739297942703319    -0.418006349844101
    H               -2.017756357890598    -0.312702057296681     1.703993650155899
    H                0.825243642109402     2.123297942703319    -0.448006349844100
    H               -0.267756357890598    -1.909702057296681     2.265993650155900
    H                2.615243642109403     0.436297942703319     0.087993650155900
    H                1.772243642109402    -2.471702057296682     2.160993650155900
    H               -2.108012357890598     2.551687842703318     1.276703650155899

}
e, wfn = energy('scf', return_wfn=True)
gdma(wfn)
dmavals = variable('DMA DISTRIBUTED MULTIPOLES')
charges = np.array(dmavals)
print(charges)
np.save('SSI-101ALA-138TYR-1-dimer.npy', np.array(charges))--------------------------------------------------------------------------

*** tstart() called on ds3
*** at Mon Apr 27 10:12:59 2020

   => Loading Basis Set <=

    Name: CC-PVDZ
    Role: ORBITAL
    Keyword: BASIS
    atoms 1-2, 9-15  entry C          line   138 file /theoryfs2/ds/metcalf/miniconda2/envs/tf2gpu/share/psi4/basis/cc-pvdz.gbs
    atoms 3-8, 17-24 entry H          line    22 file /theoryfs2/ds/metcalf/miniconda2/envs/tf2gpu/share/psi4/basis/cc-pvdz.gbs
    atoms 16         entry O          line   198 file /theoryfs2/ds/metcalf/miniconda2/envs/tf2gpu/share/psi4/basis/cc-pvdz.gbs

         ---------------------------------------------------------
                                   SCF
               by Justin Turney, Rob Parrish, Andy Simmonett
                          and Daniel G. A. Smith
                              RHF Reference
                        1 Threads,    500 MiB Core
         ---------------------------------------------------------

  ==> Geometry <==

    Molecular point group: c1
    Full point group: C1

    Geometry (in Angstrom), charge = 0, multiplicity = 1:

       Center              X                  Y                   Z               Mass
    ------------   -----------------  -----------------  -----------------  -----------------
         C           -0.671756357891     0.067297942703    -2.793006349844    12.000000000000
         C           -1.330756357891    -0.571702057297    -4.054006349844    12.000000000000
         H            0.391243642109     0.230297942703    -2.974006349844     1.007825032230
         H           -1.148756357891     1.022297942703    -2.570006349844     1.007825032230
         H           -0.789756357891    -0.597702057297    -1.937006349844     1.007825032230
         H           -2.376756357891    -0.761702057297    -3.802006349844     1.007825032230
         H           -0.863034357891    -1.542545057297    -4.274686349844     1.007825032230
         H           -1.307154357891     0.083444942703    -4.937306349844     1.007825032230
         C           -1.849756357891     2.025297942703     0.345993650156    12.000000000000
         C           -0.719756357891     1.029297942703     0.620993650156    12.000000000000
         C           -1.005756357891    -0.131702057297     1.362993650156    12.000000000000
         C            0.599243642109     1.250297942703     0.151993650156    12.000000000000
         C           -0.020756357891    -1.037702057297     1.677993650156    12.000000000000
         C            1.610243642109     0.321297942703     0.458993650156    12.000000000000
         C            1.289243642109    -0.815702057297     1.246993650156    12.000000000000
         O            2.176243642109    -1.796702057297     1.610993650156    15.994914619570
         H           -2.722756357891     1.483297942703    -0.021006349844     1.007825032230
         H           -1.538756357891     2.739297942703    -0.418006349844     1.007825032230
         H           -2.017756357891    -0.312702057297     1.703993650156     1.007825032230
         H            0.825243642109     2.123297942703    -0.448006349844     1.007825032230
         H           -0.267756357891    -1.909702057297     2.265993650156     1.007825032230
         H            2.615243642109     0.436297942703     0.087993650156     1.007825032230
         H            1.772243642109    -2.471702057297     2.160993650156     1.007825032230
         H           -2.108012357891     2.551687842703     1.276703650156     1.007825032230

  Running in c1 symmetry.

  Rotational constants: A =      0.04784  B =      0.02416  C =      0.01945 [cm^-1]
  Rotational constants: A =   1434.11055  B =    724.25446  C =    582.95463 [MHz]
  Nuclear repulsion =  498.286592168642187

  Charge       = 0
  Multiplicity = 1
  Electrons    = 76
  Nalpha       = 38
  Nbeta        = 38

  ==> Algorithm <==

  SCF Algorithm Type is PK.
  DIIS enabled.
  MOM disabled.
  Fractional occupation disabled.
  Guess Type is SAD.
  Energy threshold   = 1.00e-06
  Density threshold  = 1.00e-10
  Integral threshold = 0.00e+00

  ==> Primary Basis <==

  Basis Set: CC-PVDZ
    Blend: CC-PVDZ
    Number of shells: 102
    Number of basis function: 210
    Number of Cartesian functions: 220
    Spherical Harmonics?: true
    Max angular momentum: 2

  ==> Pre-Iterations <==

   -------------------------------------------------------
    Irrep   Nso     Nmo     Nalpha   Nbeta   Ndocc  Nsocc
   -------------------------------------------------------
     A        210     210       0       0       0       0
   -------------------------------------------------------
    Total     210     210      38      38      38       0
   -------------------------------------------------------

  ==> Integral Setup <==

  Using integral reordering PK algorithm.
  Sizing the integral batches needed.
  Building batch lookup table.
   Calculation information:
      Number of atoms:                  24
      Number of AO shells:             102
      Number of primitives:            290
      Number of atomic orbitals:       220
      Number of basis functions:       210

      Integral cutoff                 1.00e-12
      Number of threads:                 1

	Batch   1 pq = [       0,    9405] index = [             0,44231715] size =     44231715
	Batch   2 pq = [    9405,   13301] index = [      44231715,88464951] size =     44233236
	Batch   3 pq = [   13301,   16290] index = [      88464951,132690195] size =     44225244
	Batch   4 pq = [   16290,   18810] index = [     132690195,176917455] size =     44227260
	Batch   5 pq = [   18810,   21030] index = [     176917455,221140965] size =     44223510
	Batch   6 pq = [   21030,   22155] index = [     221140965,245433090] size =     24292125
  Task number: 23
  Buffer size: 11059200
  Buffer per thread: 2
  We computed 12386832 shell quartets total.
  Whereas there are 13799631 unique shell quartets.

  ==> DiskJK: Disk-Based J/K Matrices <==

    J tasked:                  Yes
    K tasked:                  Yes
    wK tasked:                  No
    Memory [MiB]:              375
    Schwarz Cutoff:          1E-12

    OpenMP threads:              1

  Minimum eigenvalue in the overlap matrix is 3.5146113068E-04.
  Using Symmetric Orthogonalization.

  SCF Guess: Superposition of Atomic Densities via on-the-fly atomic UHF.

  ==> Iterations <==

                        Total Energy        Delta E     RMS |[F,P]|

   @RHF iter SAD:  -422.47912084766051   -4.22479e+02   0.00000e+00
   @RHF iter   1:  -423.59841059901674   -1.11929e+00   2.94078e-03 DIIS
   @RHF iter   2:  -423.81073118523204   -2.12321e-01   1.22611e-03 DIIS
   @RHF iter   3:  -423.84384592566715   -3.31147e-02   2.82929e-04 DIIS
   @RHF iter   4:  -423.84666864672488   -2.82272e-03   1.17910e-04 DIIS
   @RHF iter   5:  -423.84702619641416   -3.57550e-04   2.08591e-05 DIIS
   @RHF iter   6:  -423.84704399283441   -1.77964e-05   6.63718e-06 DIIS
   @RHF iter   7:  -423.84704577154480   -1.77871e-06   2.24042e-06 DIIS
   @RHF iter   8:  -423.84704603863611   -2.67091e-07   8.09354e-07 DIIS
   @RHF iter   9:  -423.84704608437880   -4.57427e-08   3.28859e-07 DIIS
   @RHF iter  10:  -423.84704609360966   -9.23086e-09   1.44080e-07 DIIS
   @RHF iter  11:  -423.84704609661929   -3.00963e-09   5.85137e-08 DIIS
   @RHF iter  12:  -423.84704609710428   -4.84988e-10   2.17781e-08 DIIS
   @RHF iter  13:  -423.84704609715129   -4.70095e-11   6.57963e-09 DIIS
   @RHF iter  14:  -423.84704609715538   -4.09273e-12   1.66413e-09 DIIS
   @RHF iter  15:  -423.84704609715368    1.70530e-12   9.09826e-10 DIIS
   @RHF iter  16:  -423.84704609715340    2.84217e-13   3.67630e-10 DIIS
   @RHF iter  17:  -423.84704609715146    1.93268e-12   1.87968e-10 DIIS
   @RHF iter  18:  -423.84704609715487   -3.41061e-12   8.51916e-11 DIIS
  Energy and wave function converged.

  ==> Post-Iterations <==

    Orbital Energies [Eh]
    ---------------------

    Doubly Occupied:

       1A    -20.579827     2A    -11.304884     3A    -11.245403
       4A    -11.239107     5A    -11.238909     6A    -11.237945
       7A    -11.232079     8A    -11.230885     9A    -11.216177
      10A    -11.211611    11A     -1.395493    12A     -1.144356
      13A     -1.029740    14A     -1.018883    15A     -1.003842
      16A     -0.922511    17A     -0.839714    18A     -0.832450
      19A     -0.803246    20A     -0.730306    21A     -0.667456
      22A     -0.641517    23A     -0.604591    24A     -0.591148
      25A     -0.588605    26A     -0.588076    27A     -0.582051
      28A     -0.568990    29A     -0.563368    30A     -0.526706
      31A     -0.494953    32A     -0.491884    33A     -0.483663
      34A     -0.481761    35A     -0.477849    36A     -0.461741
      37A     -0.340936    38A     -0.296675

    Virtual:

      39A      0.128671    40A      0.150933    41A      0.174850
      42A      0.179381    43A      0.200584    44A      0.211537
      45A      0.219124    46A      0.245776    47A      0.260387
      48A      0.263070    49A      0.268013    50A      0.271616
      51A      0.281282    52A      0.287624    53A      0.296546
      54A      0.316127    55A      0.363690    56A      0.364854
      57A      0.394475    58A      0.422772    59A      0.447964
      60A      0.475905    61A      0.497667    62A      0.503022
      63A      0.574111    64A      0.596869    65A      0.600789
      66A      0.612544    67A      0.636476    68A      0.640884
      69A      0.653765    70A      0.683539    71A      0.689297
      72A      0.706199    73A      0.716505    74A      0.723130
      75A      0.727235    76A      0.743910    77A      0.763609
      78A      0.768888    79A      0.777435    80A      0.785010
      81A      0.799410    82A      0.829186    83A      0.844837
      84A      0.857166    85A      0.871647    86A      0.886603
      87A      0.893289    88A      0.895536    89A      0.897316
      90A      0.900319    91A      0.911886    92A      0.917781
      93A      0.924595    94A      0.936428    95A      0.944836
      96A      0.953535    97A      0.982851    98A      0.986535
      99A      1.001112   100A      1.006340   101A      1.031370
     102A      1.070911   103A      1.119803   104A      1.129869
     105A      1.132985   106A      1.137893   107A      1.142611
     108A      1.172155   109A      1.210176   110A      1.228285
     111A      1.242274   112A      1.256130   113A      1.277937
     114A      1.288639   115A      1.292933   116A      1.303451
     117A      1.320814   118A      1.349993   119A      1.356677
     120A      1.405134   121A      1.459436   122A      1.471937
     123A      1.481729   124A      1.512281   125A      1.539464
     126A      1.562008   127A      1.590349   128A      1.620447
     129A      1.631877   130A      1.674055   131A      1.687790
     132A      1.693397   133A      1.708006   134A      1.736828
     135A      1.747603   136A      1.772046   137A      1.785533
     138A      1.797542   139A      1.843840   140A      1.869395
     141A      1.875336   142A      1.880067   143A      1.891562
     144A      1.895061   145A      1.903059   146A      1.920277
     147A      1.925376   148A      1.932057   149A      1.941993
     150A      1.948593   151A      1.952432   152A      1.966426
     153A      1.970018   154A      1.979069   155A      1.995711
     156A      2.015521   157A      2.032800   158A      2.047593
     159A      2.064116   160A      2.072182   161A      2.082039
     162A      2.090513   163A      2.110216   164A      2.128746
     165A      2.142074   166A      2.178702   167A      2.196930
     168A      2.213767   169A      2.250889   170A      2.265991
     171A      2.288901   172A      2.299825   173A      2.322928
     174A      2.361219   175A      2.383491   176A      2.394153
     177A      2.448860   178A      2.457759   179A      2.464886
     180A      2.475887   181A      2.492525   182A      2.504637
     183A      2.524041   184A      2.552502   185A      2.578403
     186A      2.599096   187A      2.661584   188A      2.737813
     189A      2.761151   190A      2.774189   191A      2.786009
     192A      2.793189   193A      2.803425   194A      2.829206
     195A      2.840431   196A      2.870388   197A      2.884317
     198A      2.949990   199A      2.955935   200A      2.962674
     201A      2.985918   202A      3.047799   203A      3.096387
     204A      3.246236   205A      3.262326   206A      3.341640
     207A      3.565526   208A      3.618152   209A      3.986826
     210A      4.170003

    Final Occupation by Irrep:
              A
    DOCC [    38 ]

  @RHF Final Energy:  -423.84704609715487

   => Energetics <=

    Nuclear Repulsion Energy =            498.2865921686421871
    One-Electron Energy =               -1562.4486016078521970
    Two-Electron Energy =                 640.3149633420551936
    Total Energy =                       -423.8470460971549301

Computation Completed

Properties will be evaluated at   0.000000,   0.000000,   0.000000 [a0]

Properties computed using the SCF density matrix

  Nuclear Dipole Moment: [e a0]
     X:    -8.9297      Y:     2.8730      Z:   -13.0103

  Electronic Dipole Moment: [e a0]
     X:     8.4010      Y:    -2.9927      Z:    13.3008

  Dipole Moment: [e a0]
     X:    -0.5288      Y:    -0.1197      Z:     0.2905     Total:     0.6151

  Dipole Moment: [D]
     X:    -1.3440      Y:    -0.3042      Z:     0.7384     Total:     1.5634

*** tstop() called on ds3 at Mon Apr 27 10:22:23 2020
Module time:
	user time   =      89.75 seconds =       1.50 minutes
	system time =      35.24 seconds =       0.59 minutes
	total time  =        564 seconds =       9.40 minutes
Total time:
	user time   =      89.75 seconds =       1.50 minutes
	system time =      35.24 seconds =       0.59 minutes
	total time  =        564 seconds =       9.40 minutes
                                     G D M A

                                 by Anthony Stone

                           version 2.2.06, 22 June 2011

               Distributed Multipoles from Gaussian wavefunctions

Starting at 10:22:23 on 27 Apr 2020

Using SCF density matrix from file ./SSI/SSI-101ALA-138TYR-1-dimer.test.2444.fchk

                         Distributed Multipole Analysis

Standard DMA

Positions and radii in angstrom
Multipole moments in atomic units, ea_0^k for rank k

C          x = -0.671756  y =  0.067298  z = -2.793006 angstrom
           Maximum rank =  0   Radius =  0.650 angstrom
                   Q00  =  -0.237786

C          x = -1.330756  y = -0.571702  z = -4.054006 angstrom
           Maximum rank =  0   Radius =  0.650 angstrom
                   Q00  =  -0.247021

H          x =  0.391244  y =  0.230298  z = -2.974006 angstrom
           Maximum rank =  0   Radius =  0.325 angstrom
                   Q00  =   0.078712

H          x = -1.148756  y =  1.022298  z = -2.570006 angstrom
           Maximum rank =  0   Radius =  0.325 angstrom
                   Q00  =   0.073862

H          x = -0.789756  y = -0.597702  z = -1.937006 angstrom
           Maximum rank =  0   Radius =  0.325 angstrom
                   Q00  =   0.091648

H          x = -2.376756  y = -0.761702  z = -3.802006 angstrom
           Maximum rank =  0   Radius =  0.325 angstrom
                   Q00  =   0.074470

H          x = -0.863034  y = -1.542545  z = -4.274686 angstrom
           Maximum rank =  0   Radius =  0.325 angstrom
                   Q00  =   0.081448

H          x = -1.307154  y =  0.083445  z = -4.937306 angstrom
           Maximum rank =  0   Radius =  0.325 angstrom
                   Q00  =   0.081708

C          x = -1.849756  y =  2.025298  z =  0.345994 angstrom
           Maximum rank =  0   Radius =  0.650 angstrom
                   Q00  =  -0.198761

C          x = -0.719756  y =  1.029298  z =  0.620994 angstrom
           Maximum rank =  0   Radius =  0.650 angstrom
                   Q00  =  -0.152124

C          x = -1.005756  y = -0.131702  z =  1.362994 angstrom
           Maximum rank =  0   Radius =  0.650 angstrom
                   Q00  =   0.042683

C          x =  0.599244  y =  1.250298  z =  0.151994 angstrom
           Maximum rank =  0   Radius =  0.650 angstrom
                   Q00  =  -0.039660

C          x = -0.020756  y = -1.037702  z =  1.677994 angstrom
           Maximum rank =  0   Radius =  0.650 angstrom
                   Q00  =  -0.174868

C          x =  1.610244  y =  0.321298  z =  0.458994 angstrom
           Maximum rank =  0   Radius =  0.650 angstrom
                   Q00  =  -0.122218

C          x =  1.289244  y = -0.815702  z =  1.246994 angstrom
           Maximum rank =  0   Radius =  0.650 angstrom
                   Q00  =   0.301500

O          x =  2.176244  y = -1.796702  z =  1.610994 angstrom
           Maximum rank =  0   Radius =  0.650 angstrom
                   Q00  =  -0.645511

H          x = -2.722756  y =  1.483298  z = -0.021006 angstrom
           Maximum rank =  0   Radius =  0.325 angstrom
                   Q00  =   0.095889

H          x = -1.538756  y =  2.739298  z = -0.418006 angstrom
           Maximum rank =  0   Radius =  0.325 angstrom
                   Q00  =   0.098471

H          x = -2.017756  y = -0.312702  z =  1.703994 angstrom
           Maximum rank =  0   Radius =  0.325 angstrom
                   Q00  =   0.066544

H          x =  0.825244  y =  2.123298  z = -0.448006 angstrom
           Maximum rank =  0   Radius =  0.325 angstrom
                   Q00  =   0.072275

H          x = -0.267756  y = -1.909702  z =  2.265994 angstrom
           Maximum rank =  0   Radius =  0.325 angstrom
                   Q00  =   0.064427

H          x =  2.615244  y =  0.436298  z =  0.087994 angstrom
           Maximum rank =  0   Radius =  0.325 angstrom
                   Q00  =   0.083804

H          x =  1.772244  y = -2.471702  z =  2.160994 angstrom
           Maximum rank =  0   Radius =  0.325 angstrom
                   Q00  =   0.410820

H          x = -2.108012  y =  2.551688  z =  1.276704 angstrom
           Maximum rank =  0   Radius =  0.325 angstrom
                   Q00  =   0.099690

Total multipoles referred to origin at
           x =   0.000000,  y =    0.000000,  z =    0.000000 angstrom
                   Q00  =  -0.000000

Finished at 10:22:23 on 27 Apr 2020

  DMA results are available in the Python driver through the
	  variable('DMA DISTRIBUTED MULTIPOLES')
  and
	  variable('DMA TOTAL MULTIPOLES')
  commands.

    Psi4 stopped on: Monday, 27 April 2020 10:22AM
    Psi4 wall time for execution: 0:09:24.01

*** Psi4 exiting successfully. Buy a developer a beer!
