                               Psi4 1.3.2 release

  ==> Input File <==

--------------------------------------------------------------------------
import numpy as np
set {scf_type pk
basis cc-pvdz
d_convergence 10
gdma_switch   0
gdma_limit    0
gdma_origin   [ 0.0,  0.0,  0.0 ]
}
molecule test {
    units Angstrom
    0 1
    --
    0 1
    C               -0.518320443462305     2.007361919701957     2.197628125173146
    C               -1.527320443462305    -0.242638080298043     1.494628125173146
    C               -0.524320443462305     0.677361919701957     1.509628125173146
    C                0.109679556537695    -1.147638080298043     0.258628125173146
    C                0.539679556537695     0.123361919701957     0.721628125173146
    C                0.903679556537695    -1.954638080298043    -0.542371874826854
    C                1.815679556537695     0.571361919701957     0.360628125173146
    C                2.158679556537695    -1.484638080298043    -0.888371874826854
    C                2.614679556537695    -0.238638080298043    -0.440371874826854
    N               -1.154320443462305    -1.337638080298043     0.747628125173146
    H               -2.481320443462306    -0.132638080298043     1.993628125173146
    H               -1.752320443462305    -2.138638080298044     0.580628125173146
    H               -0.262320443462305     2.783361919701957     1.475628125173146
    H                0.271679556537695     1.977361919701957     2.950628125173146
    H                0.521679556537695    -2.891638080298043    -0.930371874826854
    H                2.170679556537695     1.530361919701957     0.709628125173146
    H                2.766679556537695    -2.046638080298043    -1.589371874826853
    H                3.592679556537695     0.108361919701957    -0.744371874826854
    H               -1.466260443462305     2.270081919701957     2.689958125173146
    C               -2.016320443462305     0.556361919701957    -2.232371874826854
    C               -1.588320443462305     1.943361919701956    -2.679371874826853
    H               -2.844320443462306     0.210361919701957    -2.851371874826854
    H               -1.181320443462305    -0.138638080298043    -2.330371874826854
    H               -2.331320443462305     0.582361919701957    -1.188371874826854
    H               -0.728320443462305     2.239361919701956    -2.077371874826853
    H               -2.402540443462306     2.657881919701957    -2.488279874826854
    H               -1.261210443462305     1.918091919701957    -3.729304874826854

}
e, wfn = energy('scf', return_wfn=True)
gdma(wfn)
dmavals = variable('DMA DISTRIBUTED MULTIPOLES')
charges = np.array(dmavals)
print(charges)
np.save('SSI-037TRP-050ALA-1-dimer.npy', np.array(charges))--------------------------------------------------------------------------

*** tstart() called on ds3
*** at Mon Apr 27 18:53:02 2020

   => Loading Basis Set <=

    Name: CC-PVDZ
    Role: ORBITAL
    Keyword: BASIS
    atoms 1-9, 20-21   entry C          line   138 file /theoryfs2/ds/metcalf/miniconda2/envs/tf2gpu/share/psi4/basis/cc-pvdz.gbs
    atoms 10           entry N          line   168 file /theoryfs2/ds/metcalf/miniconda2/envs/tf2gpu/share/psi4/basis/cc-pvdz.gbs
    atoms 11-19, 22-27 entry H          line    22 file /theoryfs2/ds/metcalf/miniconda2/envs/tf2gpu/share/psi4/basis/cc-pvdz.gbs

         ---------------------------------------------------------
                                   SCF
               by Justin Turney, Rob Parrish, Andy Simmonett
                          and Daniel G. A. Smith
                              RHF Reference
                        1 Threads,    500 MiB Core
         ---------------------------------------------------------

  ==> Geometry <==

    Molecular point group: c1
    Full point group: C1

    Geometry (in Angstrom), charge = 0, multiplicity = 1:

       Center              X                  Y                   Z               Mass
    ------------   -----------------  -----------------  -----------------  -----------------
         C           -0.518320443462     2.007361919702     2.197628125173    12.000000000000
         C           -1.527320443462    -0.242638080298     1.494628125173    12.000000000000
         C           -0.524320443462     0.677361919702     1.509628125173    12.000000000000
         C            0.109679556538    -1.147638080298     0.258628125173    12.000000000000
         C            0.539679556538     0.123361919702     0.721628125173    12.000000000000
         C            0.903679556538    -1.954638080298    -0.542371874827    12.000000000000
         C            1.815679556538     0.571361919702     0.360628125173    12.000000000000
         C            2.158679556538    -1.484638080298    -0.888371874827    12.000000000000
         C            2.614679556538    -0.238638080298    -0.440371874827    12.000000000000
         N           -1.154320443462    -1.337638080298     0.747628125173    14.003074004430
         H           -2.481320443462    -0.132638080298     1.993628125173     1.007825032230
         H           -1.752320443462    -2.138638080298     0.580628125173     1.007825032230
         H           -0.262320443462     2.783361919702     1.475628125173     1.007825032230
         H            0.271679556538     1.977361919702     2.950628125173     1.007825032230
         H            0.521679556538    -2.891638080298    -0.930371874827     1.007825032230
         H            2.170679556538     1.530361919702     0.709628125173     1.007825032230
         H            2.766679556538    -2.046638080298    -1.589371874827     1.007825032230
         H            3.592679556538     0.108361919702    -0.744371874827     1.007825032230
         H           -1.466260443462     2.270081919702     2.689958125173     1.007825032230
         C           -2.016320443462     0.556361919702    -2.232371874827    12.000000000000
         C           -1.588320443462     1.943361919702    -2.679371874827    12.000000000000
         H           -2.844320443462     0.210361919702    -2.851371874827     1.007825032230
         H           -1.181320443462    -0.138638080298    -2.330371874827     1.007825032230
         H           -2.331320443462     0.582361919702    -1.188371874827     1.007825032230
         H           -0.728320443462     2.239361919702    -2.077371874827     1.007825032230
         H           -2.402540443462     2.657881919702    -2.488279874827     1.007825032230
         H           -1.261210443462     1.918091919702    -3.729304874827     1.007825032230

  Running in c1 symmetry.

  Rotational constants: A =      0.03023  B =      0.02553  C =      0.02078 [cm^-1]
  Rotational constants: A =    906.31589  B =    765.35273  C =    623.00082 [MHz]
  Nuclear repulsion =  673.706425826041368

  Charge       = 0
  Multiplicity = 1
  Electrons    = 88
  Nalpha       = 44
  Nbeta        = 44

  ==> Algorithm <==

  SCF Algorithm Type is PK.
  DIIS enabled.
  MOM disabled.
  Fractional occupation disabled.
  Guess Type is SAD.
  Energy threshold   = 1.00e-06
  Density threshold  = 1.00e-10
  Integral threshold = 0.00e+00

  ==> Primary Basis <==

  Basis Set: CC-PVDZ
    Blend: CC-PVDZ
    Number of shells: 117
    Number of basis function: 243
    Number of Cartesian functions: 255
    Spherical Harmonics?: true
    Max angular momentum: 2

  ==> Pre-Iterations <==

   -------------------------------------------------------
    Irrep   Nso     Nmo     Nalpha   Nbeta   Ndocc  Nsocc
   -------------------------------------------------------
     A        243     243       0       0       0       0
   -------------------------------------------------------
    Total     243     243      44      44      44       0
   -------------------------------------------------------

  ==> Integral Setup <==

  Using integral reordering PK algorithm.
  Sizing the integral batches needed.
  Building batch lookup table.
   Calculation information:
      Number of atoms:                  27
      Number of AO shells:             117
      Number of primitives:            339
      Number of atomic orbitals:       255
      Number of basis functions:       243

      Integral cutoff                 1.00e-12
      Number of threads:                 1

	Batch   1 pq = [       0,    9405] index = [             0,44231715] size =     44231715
	Batch   2 pq = [    9405,   13301] index = [      44231715,88464951] size =     44233236
	Batch   3 pq = [   13301,   16290] index = [      88464951,132690195] size =     44225244
	Batch   4 pq = [   16290,   18810] index = [     132690195,176917455] size =     44227260
	Batch   5 pq = [   18810,   21030] index = [     176917455,221140965] size =     44223510
	Batch   6 pq = [   21030,   23037] index = [     221140965,265363203] size =     44222238
	Batch   7 pq = [   23037,   24883] index = [     265363203,309594286] size =     44231083
	Batch   8 pq = [   24883,   26601] index = [     309594286,353819901] size =     44225615
	Batch   9 pq = [   26601,   28214] index = [     353819901,398029005] size =     44209104
	Batch  10 pq = [   28214,   29646] index = [     398029005,439457481] size =     41428476
  Task number: 40
  Buffer size: 11059200
  Buffer per thread: 2
  We computed 25594812 shell quartets total.
  Whereas there are 23829156 unique shell quartets.
     7.41 percent of shell quartets recomputed by reordering.

  ==> DiskJK: Disk-Based J/K Matrices <==

    J tasked:                  Yes
    K tasked:                  Yes
    wK tasked:                  No
    Memory [MiB]:              375
    Schwarz Cutoff:          1E-12

    OpenMP threads:              1

  Minimum eigenvalue in the overlap matrix is 2.4035394582E-04.
  Using Symmetric Orthogonalization.

  SCF Guess: Superposition of Atomic Densities via on-the-fly atomic UHF.

  ==> Iterations <==

                        Total Energy        Delta E     RMS |[F,P]|

   @RHF iter SAD:  -479.06118273969707   -4.79061e+02   0.00000e+00
   @RHF iter   1:  -479.48837110363746   -4.27188e-01   2.61820e-03 DIIS
   @RHF iter   2:  -479.72097065992034   -2.32600e-01   1.17894e-03 DIIS
   @RHF iter   3:  -479.76414464897607   -4.31740e-02   3.06149e-04 DIIS
   @RHF iter   4:  -479.76799647638234   -3.85183e-03   1.40918e-04 DIIS
   @RHF iter   5:  -479.76866138852245   -6.64912e-04   2.02987e-05 DIIS
   @RHF iter   6:  -479.76869126301176   -2.98745e-05   9.31186e-06 DIIS
   @RHF iter   7:  -479.76869741290881   -6.14990e-06   3.85401e-06 DIIS
   @RHF iter   8:  -479.76869914318036   -1.73027e-06   1.53232e-06 DIIS
   @RHF iter   9:  -479.76869948740728   -3.44227e-07   6.74881e-07 DIIS
   @RHF iter  10:  -479.76869955518828   -6.77810e-08   3.07564e-07 DIIS
   @RHF iter  11:  -479.76869957187546   -1.66872e-08   1.15790e-07 DIIS
   @RHF iter  12:  -479.76869957415670   -2.28124e-09   3.70775e-08 DIIS
   @RHF iter  13:  -479.76869957431262   -1.55921e-10   9.52082e-09 DIIS
   @RHF iter  14:  -479.76869957432410   -1.14824e-11   3.73853e-09 DIIS
   @RHF iter  15:  -479.76869957431597    8.12861e-12   1.89627e-09 DIIS
   @RHF iter  16:  -479.76869957432541   -9.43601e-12   9.10588e-10 DIIS
   @RHF iter  17:  -479.76869957432359    1.81899e-12   3.15032e-10 DIIS
   @RHF iter  18:  -479.76869957432780   -4.20641e-12   1.44490e-10 DIIS
   @RHF iter  19:  -479.76869957432427    3.52429e-12   4.54787e-11 DIIS
  Energy and wave function converged.

  ==> Post-Iterations <==

    Orbital Energies [Eh]
    ---------------------

    Doubly Occupied:

       1A    -15.600600     2A    -11.264451     3A    -11.263653
       4A    -11.231716     5A    -11.231230     6A    -11.229974
       7A    -11.228155     8A    -11.221739     9A    -11.221119
      10A    -11.218855    11A    -11.208442    12A    -11.203449
      13A     -1.295373    14A     -1.129753    15A     -1.074675
      16A     -1.009903    17A     -0.998280    18A     -0.988026
      19A     -0.932755    20A     -0.840738    21A     -0.823635
      22A     -0.804532    23A     -0.753315    24A     -0.719776
      25A     -0.662683    26A     -0.642976    27A     -0.603394
      28A     -0.598359    29A     -0.591684    30A     -0.591461
      31A     -0.581400    32A     -0.570167    33A     -0.552359
      34A     -0.537290    35A     -0.528145    36A     -0.495762
      37A     -0.488622    38A     -0.478875    39A     -0.473563
      40A     -0.470480    41A     -0.460587    42A     -0.373001
      43A     -0.295852    44A     -0.276385

    Virtual:

      45A      0.124415    46A      0.166714    47A      0.176087
      48A      0.180191    49A      0.201069    50A      0.204573
      51A      0.224753    52A      0.230493    53A      0.234517
      54A      0.251525    55A      0.262154    56A      0.264785
      57A      0.269950    58A      0.277362    59A      0.281385
      60A      0.288554    61A      0.309416    62A      0.317179
      63A      0.376085    64A      0.383881    65A      0.406414
      66A      0.407338    67A      0.419479    68A      0.443981
      69A      0.471422    70A      0.484669    71A      0.497194
      72A      0.510906    73A      0.582808    74A      0.593328
      75A      0.605893    76A      0.612285    77A      0.621635
      78A      0.634176    79A      0.643830    80A      0.666046
      81A      0.670977    82A      0.695508    83A      0.706172
      84A      0.712656    85A      0.722870    86A      0.732537
      87A      0.739469    88A      0.745037    89A      0.751580
      90A      0.764553    91A      0.780178    92A      0.782990
      93A      0.798179    94A      0.813168    95A      0.833132
      96A      0.838623    97A      0.862558    98A      0.865698
      99A      0.871943   100A      0.879778   101A      0.887366
     102A      0.893068   103A      0.898171   104A      0.903476
     105A      0.909739   106A      0.917900   107A      0.942685
     108A      0.945605   109A      0.953488   110A      0.959302
     111A      0.972182   112A      0.973830   113A      0.983670
     114A      1.007613   115A      1.010060   116A      1.026619
     117A      1.065408   118A      1.077900   119A      1.091194
     120A      1.125151   121A      1.135216   122A      1.136856
     123A      1.149035   124A      1.154300   125A      1.168046
     126A      1.175617   127A      1.205864   128A      1.217217
     129A      1.225337   130A      1.239368   131A      1.249848
     132A      1.272611   133A      1.285315   134A      1.291724
     135A      1.305806   136A      1.324816   137A      1.345552
     138A      1.366384   139A      1.373096   140A      1.398940
     141A      1.440830   142A      1.490556   143A      1.505005
     144A      1.523852   145A      1.555569   146A      1.577409
     147A      1.585170   148A      1.595295   149A      1.642173
     150A      1.647797   151A      1.671583   152A      1.684794
     153A      1.685774   154A      1.688467   155A      1.724396
     156A      1.748889   157A      1.758534   158A      1.778039
     159A      1.800186   160A      1.812578   161A      1.825956
     162A      1.837332   163A      1.860998   164A      1.879149
     165A      1.884963   166A      1.887108   167A      1.904895
     168A      1.914297   169A      1.916985   170A      1.933359
     171A      1.936958   172A      1.941272   173A      1.953553
     174A      1.964645   175A      1.966422   176A      1.979416
     177A      1.984539   178A      1.987954   179A      1.997663
     180A      2.004127   181A      2.012462   182A      2.034566
     183A      2.042384   184A      2.075923   185A      2.090161
     186A      2.099655   187A      2.105928   188A      2.114925
     189A      2.122302   190A      2.135493   191A      2.138862
     192A      2.143847   193A      2.155107   194A      2.168137
     195A      2.184383   196A      2.221776   197A      2.228057
     198A      2.298477   199A      2.300286   200A      2.313715
     201A      2.318756   202A      2.321425   203A      2.330044
     204A      2.352191   205A      2.400575   206A      2.440121
     207A      2.453399   208A      2.465888   209A      2.474378
     210A      2.486130   211A      2.538440   212A      2.577485
     213A      2.588754   214A      2.595464   215A      2.607370
     216A      2.654104   217A      2.658254   218A      2.678416
     219A      2.702225   220A      2.764990   221A      2.769657
     222A      2.780183   223A      2.791440   224A      2.796189
     225A      2.807274   226A      2.820598   227A      2.854603
     228A      2.863458   229A      2.871059   230A      2.874526
     231A      2.909028   232A      2.969171   233A      2.975721
     234A      2.987833   235A      3.036181   236A      3.069891
     237A      3.091448   238A      3.133043   239A      3.207052
     240A      3.308102   241A      3.382706   242A      3.751210
     243A      3.949535

    Final Occupation by Irrep:
              A
    DOCC [    44 ]

  @RHF Final Energy:  -479.76869957432427

   => Energetics <=

    Nuclear Repulsion Energy =            673.7064258260413681
    One-Electron Energy =               -1985.4158758715072963
    Two-Electron Energy =                 831.9407504711416550
    Total Energy =                       -479.7686995743242733

Computation Completed

Properties will be evaluated at   0.000000,   0.000000,   0.000000 [a0]

Properties computed using the SCF density matrix

  Nuclear Dipole Moment: [e a0]
     X:    -6.9225      Y:     8.3749      Z:    -7.0605

  Electronic Dipole Moment: [e a0]
     X:     6.2859      Y:    -8.7408      Z:     7.2410

  Dipole Moment: [e a0]
     X:    -0.6366      Y:    -0.3658      Z:     0.1805     Total:     0.7561

  Dipole Moment: [D]
     X:    -1.6181      Y:    -0.9298      Z:     0.4589     Total:     1.9219

*** tstop() called on ds3 at Mon Apr 27 18:57:24 2020
Module time:
	user time   =     196.79 seconds =       3.28 minutes
	system time =      73.29 seconds =       1.22 minutes
	total time  =        262 seconds =       4.37 minutes
Total time:
	user time   =     196.79 seconds =       3.28 minutes
	system time =      73.29 seconds =       1.22 minutes
	total time  =        262 seconds =       4.37 minutes
                                     G D M A

                                 by Anthony Stone

                           version 2.2.06, 22 June 2011

               Distributed Multipoles from Gaussian wavefunctions

Starting at 18:57:24 on 27 Apr 2020

Using SCF density matrix from file ./SSI/SSI-037TRP-050ALA-1-dimer.test.30588.fchk

                         Distributed Multipole Analysis

Standard DMA

Positions and radii in angstrom
Multipole moments in atomic units, ea_0^k for rank k

C          x = -0.518320  y =  2.007362  z =  2.197628 angstrom
           Maximum rank =  0   Radius =  0.650 angstrom
                   Q00  =  -0.203970

C          x = -1.527320  y = -0.242638  z =  1.494628 angstrom
           Maximum rank =  0   Radius =  0.650 angstrom
                   Q00  =   0.066668

C          x = -0.524320  y =  0.677362  z =  1.509628 angstrom
           Maximum rank =  0   Radius =  0.650 angstrom
                   Q00  =  -0.119113

C          x =  0.109680  y = -1.147638  z =  0.258628 angstrom
           Maximum rank =  0   Radius =  0.650 angstrom
                   Q00  =   0.282517

C          x =  0.539680  y =  0.123362  z =  0.721628 angstrom
           Maximum rank =  0   Radius =  0.650 angstrom
                   Q00  =  -0.058128

C          x =  0.903680  y = -1.954638  z = -0.542372 angstrom
           Maximum rank =  0   Radius =  0.650 angstrom
                   Q00  =  -0.124090

C          x =  1.815680  y =  0.571362  z =  0.360628 angstrom
           Maximum rank =  0   Radius =  0.650 angstrom
                   Q00  =  -0.098252

C          x =  2.158680  y = -1.484638  z = -0.888372 angstrom
           Maximum rank =  0   Radius =  0.650 angstrom
                   Q00  =  -0.039236

C          x =  2.614680  y = -0.238638  z = -0.440372 angstrom
           Maximum rank =  0   Radius =  0.650 angstrom
                   Q00  =  -0.098642

N          x = -1.154320  y = -1.337638  z =  0.747628 angstrom
           Maximum rank =  0   Radius =  0.650 angstrom
                   Q00  =  -0.492580

H          x = -2.481320  y = -0.132638  z =  1.993628 angstrom
           Maximum rank =  0   Radius =  0.325 angstrom
                   Q00  =   0.100023

H          x = -1.752320  y = -2.138638  z =  0.580628 angstrom
           Maximum rank =  0   Radius =  0.325 angstrom
                   Q00  =   0.218192

H          x = -0.262320  y =  2.783362  z =  1.475628 angstrom
           Maximum rank =  0   Radius =  0.325 angstrom
                   Q00  =   0.098815

H          x =  0.271680  y =  1.977362  z =  2.950628 angstrom
           Maximum rank =  0   Radius =  0.325 angstrom
                   Q00  =   0.096471

H          x =  0.521680  y = -2.891638  z = -0.930372 angstrom
           Maximum rank =  0   Radius =  0.325 angstrom
                   Q00  =   0.073559

H          x =  2.170680  y =  1.530362  z =  0.709628 angstrom
           Maximum rank =  0   Radius =  0.325 angstrom
                   Q00  =   0.070574

H          x =  2.766680  y = -2.046638  z = -1.589372 angstrom
           Maximum rank =  0   Radius =  0.325 angstrom
                   Q00  =   0.065802

H          x =  3.592680  y =  0.108362  z = -0.744372 angstrom
           Maximum rank =  0   Radius =  0.325 angstrom
                   Q00  =   0.061022

H          x = -1.466260  y =  2.270082  z =  2.689958 angstrom
           Maximum rank =  0   Radius =  0.325 angstrom
                   Q00  =   0.106393

C          x = -2.016320  y =  0.556362  z = -2.232372 angstrom
           Maximum rank =  0   Radius =  0.650 angstrom
                   Q00  =  -0.237092

C          x = -1.588320  y =  1.943362  z = -2.679372 angstrom
           Maximum rank =  0   Radius =  0.650 angstrom
                   Q00  =  -0.230329

H          x = -2.844320  y =  0.210362  z = -2.851372 angstrom
           Maximum rank =  0   Radius =  0.325 angstrom
                   Q00  =   0.064634

H          x = -1.181320  y = -0.138638  z = -2.330372 angstrom
           Maximum rank =  0   Radius =  0.325 angstrom
                   Q00  =   0.086059

H          x = -2.331320  y =  0.582362  z = -1.188372 angstrom
           Maximum rank =  0   Radius =  0.325 angstrom
                   Q00  =   0.082200

H          x = -0.728320  y =  2.239362  z = -2.077372 angstrom
           Maximum rank =  0   Radius =  0.325 angstrom
                   Q00  =   0.080641

H          x = -2.402540  y =  2.657882  z = -2.488280 angstrom
           Maximum rank =  0   Radius =  0.325 angstrom
                   Q00  =   0.072136

H          x = -1.261210  y =  1.918092  z = -3.729305 angstrom
           Maximum rank =  0   Radius =  0.325 angstrom
                   Q00  =   0.075727

Total multipoles referred to origin at
           x =   0.000000,  y =    0.000000,  z =    0.000000 angstrom
                   Q00  =  -0.000000

Finished at 18:57:24 on 27 Apr 2020

  DMA results are available in the Python driver through the
	  variable('DMA DISTRIBUTED MULTIPOLES')
  and
	  variable('DMA TOTAL MULTIPOLES')
  commands.

    Psi4 stopped on: Monday, 27 April 2020 06:57PM
    Psi4 wall time for execution: 0:04:21.93

*** Psi4 exiting successfully. Buy a developer a beer!
