                               Psi4 1.3.2 release

  ==> Input File <==

--------------------------------------------------------------------------
import numpy as np
set {scf_type pk
basis cc-pvdz
d_convergence 10
gdma_switch   0
gdma_limit    0
gdma_origin   [ 0.0,  0.0,  0.0 ]
}
molecule test {
    units Angstrom
    0 1
    --
    0 1
    C                2.920265783043291     0.313649904729841    -1.401158083118503
    C                3.378265783043291     1.520649904729842    -0.589158083118503
    H                3.378265783043291    -0.601350095270158    -1.029158083118503
    H                1.840265783043291     0.207649904729842    -1.306158083118503
    H                3.170265783043291     0.453649904729842    -2.452158083118503
    H                3.276265783043291     1.271649904729841     0.467841916881497
    H                2.712265783043291     2.355649904729841    -0.811158083118503
    H                4.409099383043291     1.828542904729842    -0.818470083118503
    C               -1.699734216956709    -3.021350095270158    -0.319158083118503
    C                0.213265783043291    -0.005350095270159     1.040841916881497
    C               -0.156734216956709    -1.314350095270159     0.781841916881497
    C               -0.521734216956709     1.028649904729841     0.539841916881497
    C               -1.274734216956709    -1.582350095270158     0.007841916881497
    C               -1.622734216956709     0.799649904729841    -0.240158083118503
    C               -2.006734216956709    -0.500350095270159    -0.494158083118503
    O               -0.087734216956709     2.278649904729841     0.807841916881497
    H                1.091265783043291     0.189649904729841     1.637841916881497
    H                0.434265783043291    -2.126350095270159     1.167841916881497
    H                0.691265783043291     2.286649904729841     1.367841916881497
    H               -2.160734216956708     1.628649904729842    -0.668158083118503
    H               -0.921734216956709    -3.724350095270159    -0.022158083118503
    H               -1.824734216956709    -3.080350095270159    -1.399158083118503
    H               -2.876734216956709    -0.692350095270159    -1.103158083118503
    H               -2.651386216956709    -3.284619095270159     0.165658916881497

}
e, wfn = energy('scf', return_wfn=True)
gdma(wfn)
dmavals = variable('DMA DISTRIBUTED MULTIPOLES')
charges = np.array(dmavals)
print(charges)
np.save('SSI-068ILE-084TYR-1-dimer.npy', np.array(charges))--------------------------------------------------------------------------

*** tstart() called on ds3
*** at Mon Apr 27 16:03:53 2020

   => Loading Basis Set <=

    Name: CC-PVDZ
    Role: ORBITAL
    Keyword: BASIS
    atoms 1-2, 9-15  entry C          line   138 file /theoryfs2/ds/metcalf/miniconda2/envs/tf2gpu/share/psi4/basis/cc-pvdz.gbs
    atoms 3-8, 17-24 entry H          line    22 file /theoryfs2/ds/metcalf/miniconda2/envs/tf2gpu/share/psi4/basis/cc-pvdz.gbs
    atoms 16         entry O          line   198 file /theoryfs2/ds/metcalf/miniconda2/envs/tf2gpu/share/psi4/basis/cc-pvdz.gbs

         ---------------------------------------------------------
                                   SCF
               by Justin Turney, Rob Parrish, Andy Simmonett
                          and Daniel G. A. Smith
                              RHF Reference
                        1 Threads,    500 MiB Core
         ---------------------------------------------------------

  ==> Geometry <==

    Molecular point group: c1
    Full point group: C1

    Geometry (in Angstrom), charge = 0, multiplicity = 1:

       Center              X                  Y                   Z               Mass
    ------------   -----------------  -----------------  -----------------  -----------------
         C            2.920265783043     0.313649904730    -1.401158083119    12.000000000000
         C            3.378265783043     1.520649904730    -0.589158083119    12.000000000000
         H            3.378265783043    -0.601350095270    -1.029158083119     1.007825032230
         H            1.840265783043     0.207649904730    -1.306158083119     1.007825032230
         H            3.170265783043     0.453649904730    -2.452158083119     1.007825032230
         H            3.276265783043     1.271649904730     0.467841916881     1.007825032230
         H            2.712265783043     2.355649904730    -0.811158083119     1.007825032230
         H            4.409099383043     1.828542904730    -0.818470083119     1.007825032230
         C           -1.699734216957    -3.021350095270    -0.319158083119    12.000000000000
         C            0.213265783043    -0.005350095270     1.040841916881    12.000000000000
         C           -0.156734216957    -1.314350095270     0.781841916881    12.000000000000
         C           -0.521734216957     1.028649904730     0.539841916881    12.000000000000
         C           -1.274734216957    -1.582350095270     0.007841916881    12.000000000000
         C           -1.622734216957     0.799649904730    -0.240158083119    12.000000000000
         C           -2.006734216957    -0.500350095270    -0.494158083119    12.000000000000
         O           -0.087734216957     2.278649904730     0.807841916881    15.994914619570
         H            1.091265783043     0.189649904730     1.637841916881     1.007825032230
         H            0.434265783043    -2.126350095270     1.167841916881     1.007825032230
         H            0.691265783043     2.286649904730     1.367841916881     1.007825032230
         H           -2.160734216957     1.628649904730    -0.668158083119     1.007825032230
         H           -0.921734216957    -3.724350095270    -0.022158083119     1.007825032230
         H           -1.824734216957    -3.080350095270    -1.399158083119     1.007825032230
         H           -2.876734216957    -0.692350095270    -1.103158083119     1.007825032230
         H           -2.651386216957    -3.284619095270     0.165658916881     1.007825032230

  Running in c1 symmetry.

  Rotational constants: A =      0.05568  B =      0.02512  C =      0.02002 [cm^-1]
  Rotational constants: A =   1669.28559  B =    753.16437  C =    600.19192 [MHz]
  Nuclear repulsion =  506.194871553592009

  Charge       = 0
  Multiplicity = 1
  Electrons    = 76
  Nalpha       = 38
  Nbeta        = 38

  ==> Algorithm <==

  SCF Algorithm Type is PK.
  DIIS enabled.
  MOM disabled.
  Fractional occupation disabled.
  Guess Type is SAD.
  Energy threshold   = 1.00e-06
  Density threshold  = 1.00e-10
  Integral threshold = 0.00e+00

  ==> Primary Basis <==

  Basis Set: CC-PVDZ
    Blend: CC-PVDZ
    Number of shells: 102
    Number of basis function: 210
    Number of Cartesian functions: 220
    Spherical Harmonics?: true
    Max angular momentum: 2

  ==> Pre-Iterations <==

   -------------------------------------------------------
    Irrep   Nso     Nmo     Nalpha   Nbeta   Ndocc  Nsocc
   -------------------------------------------------------
     A        210     210       0       0       0       0
   -------------------------------------------------------
    Total     210     210      38      38      38       0
   -------------------------------------------------------

  ==> Integral Setup <==

  Using integral reordering PK algorithm.
  Sizing the integral batches needed.
  Building batch lookup table.
   Calculation information:
      Number of atoms:                  24
      Number of AO shells:             102
      Number of primitives:            290
      Number of atomic orbitals:       220
      Number of basis functions:       210

      Integral cutoff                 1.00e-12
      Number of threads:                 1

	Batch   1 pq = [       0,    9405] index = [             0,44231715] size =     44231715
	Batch   2 pq = [    9405,   13301] index = [      44231715,88464951] size =     44233236
	Batch   3 pq = [   13301,   16290] index = [      88464951,132690195] size =     44225244
	Batch   4 pq = [   16290,   18810] index = [     132690195,176917455] size =     44227260
	Batch   5 pq = [   18810,   21030] index = [     176917455,221140965] size =     44223510
	Batch   6 pq = [   21030,   22155] index = [     221140965,245433090] size =     24292125
  Task number: 23
  Buffer size: 11059200
  Buffer per thread: 2
  We computed 12511011 shell quartets total.
  Whereas there are 13799631 unique shell quartets.

  ==> DiskJK: Disk-Based J/K Matrices <==

    J tasked:                  Yes
    K tasked:                  Yes
    wK tasked:                  No
    Memory [MiB]:              375
    Schwarz Cutoff:          1E-12

    OpenMP threads:              1

  Minimum eigenvalue in the overlap matrix is 2.9981008899E-04.
  Using Symmetric Orthogonalization.

  SCF Guess: Superposition of Atomic Densities via on-the-fly atomic UHF.

  ==> Iterations <==

                        Total Energy        Delta E     RMS |[F,P]|

   @RHF iter SAD:  -422.83854985928110   -4.22839e+02   0.00000e+00
   @RHF iter   1:  -423.59921854458094   -7.60669e-01   2.98415e-03 DIIS
   @RHF iter   2:  -423.81723455249977   -2.18016e-01   1.23247e-03 DIIS
   @RHF iter   3:  -423.85094851567760   -3.37140e-02   2.65978e-04 DIIS
   @RHF iter   4:  -423.85367523690161   -2.72672e-03   9.16201e-05 DIIS
   @RHF iter   5:  -423.85388883979385   -2.13603e-04   2.15713e-05 DIIS
   @RHF iter   6:  -423.85390615303083   -1.73132e-05   6.38303e-06 DIIS
   @RHF iter   7:  -423.85390782938686   -1.67636e-06   2.06468e-06 DIIS
   @RHF iter   8:  -423.85390808859540   -2.59209e-07   7.99575e-07 DIIS
   @RHF iter   9:  -423.85390813968382   -5.10884e-08   3.60116e-07 DIIS
   @RHF iter  10:  -423.85390815124032   -1.15565e-08   1.56140e-07 DIIS
   @RHF iter  11:  -423.85390815483390   -3.59358e-09   6.01045e-08 DIIS
   @RHF iter  12:  -423.85390815525966   -4.25757e-10   2.32319e-08 DIIS
   @RHF iter  13:  -423.85390815530326   -4.35989e-11   7.26866e-09 DIIS
   @RHF iter  14:  -423.85390815530769   -4.43379e-12   2.12228e-09 DIIS
   @RHF iter  15:  -423.85390815530747    2.27374e-13   8.45791e-10 DIIS
   @RHF iter  16:  -423.85390815530644    1.02318e-12   3.65085e-10 DIIS
   @RHF iter  17:  -423.85390815530889   -2.44427e-12   1.52422e-10 DIIS
   @RHF iter  18:  -423.85390815530775    1.13687e-12   6.67907e-11 DIIS
  Energy and wave function converged.

  ==> Post-Iterations <==

    Orbital Energies [Eh]
    ---------------------

    Doubly Occupied:

       1A    -20.579448     2A    -11.291896     3A    -11.237281
       4A    -11.235727     5A    -11.233657     6A    -11.230595
       7A    -11.227268     8A    -11.225788     9A    -11.218516
      10A    -11.211206    11A     -1.404952    12A     -1.156776
      13A     -1.037222    14A     -1.023012    15A     -1.017486
      16A     -0.927693    17A     -0.848971    18A     -0.835171
      19A     -0.805303    20A     -0.736459    21A     -0.671860
      22A     -0.642120    23A     -0.607691    24A     -0.602184
      25A     -0.598242    26A     -0.589239    27A     -0.585028
      28A     -0.569600    29A     -0.565379    30A     -0.530748
      31A     -0.499950    32A     -0.494147    33A     -0.486995
      34A     -0.484392    35A     -0.482782    36A     -0.467469
      37A     -0.341275    38A     -0.303505

    Virtual:

      39A      0.130993    40A      0.159476    41A      0.165692
      42A      0.185680    43A      0.209876    44A      0.214355
      45A      0.217209    46A      0.244788    47A      0.249119
      48A      0.264872    49A      0.267969    50A      0.275593
      51A      0.277199    52A      0.288451    53A      0.304006
      54A      0.331033    55A      0.367063    56A      0.382926
      57A      0.399441    58A      0.435363    59A      0.453731
      60A      0.483572    61A      0.500105    62A      0.515446
      63A      0.585570    64A      0.595607    65A      0.601555
      66A      0.618861    67A      0.634857    68A      0.650609
      69A      0.660711    70A      0.673824    71A      0.683275
      72A      0.693436    73A      0.707121    74A      0.722711
      75A      0.733547    76A      0.742253    77A      0.766937
      78A      0.782293    79A      0.788058    80A      0.800582
      81A      0.811622    82A      0.831232    83A      0.849877
      84A      0.854195    85A      0.862371    86A      0.879863
      87A      0.884694    88A      0.886823    89A      0.895391
      90A      0.900428    91A      0.911135    92A      0.922711
      93A      0.927757    94A      0.936426    95A      0.941371
      96A      0.956573    97A      0.961477    98A      0.981613
      99A      1.006863   100A      1.037262   101A      1.047912
     102A      1.058599   103A      1.115815   104A      1.127840
     105A      1.139122   106A      1.142864   107A      1.151265
     108A      1.190575   109A      1.201677   110A      1.237279
     111A      1.251597   112A      1.255447   113A      1.273986
     114A      1.300165   115A      1.306836   116A      1.321882
     117A      1.330941   118A      1.352280   119A      1.371789
     120A      1.401850   121A      1.473525   122A      1.481330
     123A      1.496666   124A      1.508306   125A      1.542818
     126A      1.552334   127A      1.577782   128A      1.618104
     129A      1.631900   130A      1.674084   131A      1.684699
     132A      1.687380   133A      1.700784   134A      1.743403
     135A      1.750698   136A      1.784412   137A      1.817633
     138A      1.823629   139A      1.865861   140A      1.872280
     141A      1.872872   142A      1.887634   143A      1.897929
     144A      1.906404   145A      1.912107   146A      1.927749
     147A      1.936879   148A      1.944320   149A      1.948003
     150A      1.957691   151A      1.963113   152A      1.964936
     153A      1.972100   154A      1.981050   155A      1.991381
     156A      2.008398   157A      2.026542   158A      2.060605
     159A      2.073573   160A      2.079665   161A      2.096234
     162A      2.122108   163A      2.129302   164A      2.160353
     165A      2.164067   166A      2.179512   167A      2.197466
     168A      2.229880   169A      2.256087   170A      2.277775
     171A      2.301505   172A      2.310625   173A      2.322331
     174A      2.357839   175A      2.387766   176A      2.414440
     177A      2.442781   178A      2.454504   179A      2.475246
     180A      2.481505   181A      2.509212   182A      2.525777
     183A      2.559810   184A      2.578970   185A      2.602994
     186A      2.615267   187A      2.692938   188A      2.755743
     189A      2.774776   190A      2.778555   191A      2.797193
     192A      2.805065   193A      2.821068   194A      2.837096
     195A      2.850886   196A      2.865310   197A      2.908509
     198A      2.956633   199A      2.966323   200A      2.987242
     201A      3.024410   202A      3.113664   203A      3.121456
     204A      3.263478   205A      3.309183   206A      3.362696
     207A      3.600584   208A      3.689959   209A      4.033615
     210A      4.212774

    Final Occupation by Irrep:
              A
    DOCC [    38 ]

  @RHF Final Energy:  -423.85390815530775

   => Energetics <=

    Nuclear Repulsion Energy =            506.1948715535920087
    One-Electron Energy =               -1578.0834951569197528
    Two-Electron Energy =                 648.0347154480199379
    Total Energy =                       -423.8539081553077494

Computation Completed

Properties will be evaluated at   0.000000,   0.000000,   0.000000 [a0]

Properties computed using the SCF density matrix

  Nuclear Dipole Moment: [e a0]
     X:     9.9067      Y:    -3.0708      Z:    -4.4985

  Electronic Dipole Moment: [e a0]
     X:    -9.6431      Y:     2.6890      Z:     4.6832

  Dipole Moment: [e a0]
     X:     0.2636      Y:    -0.3818      Z:     0.1847     Total:     0.4994

  Dipole Moment: [D]
     X:     0.6700      Y:    -0.9705      Z:     0.4695     Total:     1.2693

*** tstop() called on ds3 at Mon Apr 27 16:06:07 2020
Module time:
	user time   =      99.08 seconds =       1.65 minutes
	system time =      41.14 seconds =       0.69 minutes
	total time  =        134 seconds =       2.23 minutes
Total time:
	user time   =      99.08 seconds =       1.65 minutes
	system time =      41.14 seconds =       0.69 minutes
	total time  =        134 seconds =       2.23 minutes
                                     G D M A

                                 by Anthony Stone

                           version 2.2.06, 22 June 2011

               Distributed Multipoles from Gaussian wavefunctions

Starting at 16:6:7 on 27 Apr 2020

Using SCF density matrix from file ./SSI/SSI-068ILE-084TYR-1-dimer.test.10751.fchk

                         Distributed Multipole Analysis

Standard DMA

Positions and radii in angstrom
Multipole moments in atomic units, ea_0^k for rank k

C          x =  2.920266  y =  0.313650  z = -1.401158 angstrom
           Maximum rank =  0   Radius =  0.650 angstrom
                   Q00  =  -0.236246

C          x =  3.378266  y =  1.520650  z = -0.589158 angstrom
           Maximum rank =  0   Radius =  0.650 angstrom
                   Q00  =  -0.236715

H          x =  3.378266  y = -0.601350  z = -1.029158 angstrom
           Maximum rank =  0   Radius =  0.325 angstrom
                   Q00  =   0.072505

H          x =  1.840266  y =  0.207650  z = -1.306158 angstrom
           Maximum rank =  0   Radius =  0.325 angstrom
                   Q00  =   0.094582

H          x =  3.170266  y =  0.453650  z = -2.452158 angstrom
           Maximum rank =  0   Radius =  0.325 angstrom
                   Q00  =   0.077983

H          x =  3.276266  y =  1.271650  z =  0.467842 angstrom
           Maximum rank =  0   Radius =  0.325 angstrom
                   Q00  =   0.061697

H          x =  2.712266  y =  2.355650  z = -0.811158 angstrom
           Maximum rank =  0   Radius =  0.325 angstrom
                   Q00  =   0.079977

H          x =  4.409099  y =  1.828543  z = -0.818470 angstrom
           Maximum rank =  0   Radius =  0.325 angstrom
                   Q00  =   0.081255

C          x = -1.699734  y = -3.021350  z = -0.319158 angstrom
           Maximum rank =  0   Radius =  0.650 angstrom
                   Q00  =  -0.200414

C          x =  0.213266  y = -0.005350  z =  1.040842 angstrom
           Maximum rank =  0   Radius =  0.650 angstrom
                   Q00  =  -0.192666

C          x = -0.156734  y = -1.314350  z =  0.781842 angstrom
           Maximum rank =  0   Radius =  0.650 angstrom
                   Q00  =  -0.040556

C          x = -0.521734  y =  1.028650  z =  0.539842 angstrom
           Maximum rank =  0   Radius =  0.650 angstrom
                   Q00  =   0.383257

C          x = -1.274734  y = -1.582350  z =  0.007842 angstrom
           Maximum rank =  0   Radius =  0.650 angstrom
                   Q00  =  -0.151655

C          x = -1.622734  y =  0.799650  z = -0.240158 angstrom
           Maximum rank =  0   Radius =  0.650 angstrom
                   Q00  =  -0.126012

C          x = -2.006734  y = -0.500350  z = -0.494158 angstrom
           Maximum rank =  0   Radius =  0.650 angstrom
                   Q00  =   0.000467

O          x = -0.087734  y =  2.278650  z =  0.807842 angstrom
           Maximum rank =  0   Radius =  0.650 angstrom
                   Q00  =  -0.647262

H          x =  1.091266  y =  0.189650  z =  1.637842 angstrom
           Maximum rank =  0   Radius =  0.325 angstrom
                   Q00  =   0.063647

H          x =  0.434266  y = -2.126350  z =  1.167842 angstrom
           Maximum rank =  0   Radius =  0.325 angstrom
                   Q00  =   0.068282

H          x =  0.691266  y =  2.286650  z =  1.367842 angstrom
           Maximum rank =  0   Radius =  0.325 angstrom
                   Q00  =   0.410013

H          x = -2.160734  y =  1.628650  z = -0.668158 angstrom
           Maximum rank =  0   Radius =  0.325 angstrom
                   Q00  =   0.080159

H          x = -0.921734  y = -3.724350  z = -0.022158 angstrom
           Maximum rank =  0   Radius =  0.325 angstrom
                   Q00  =   0.099595

H          x = -1.824734  y = -3.080350  z = -1.399158 angstrom
           Maximum rank =  0   Radius =  0.325 angstrom
                   Q00  =   0.097308

H          x = -2.876734  y = -0.692350  z = -1.103158 angstrom
           Maximum rank =  0   Radius =  0.325 angstrom
                   Q00  =   0.060353

H          x = -2.651386  y = -3.284619  z =  0.165659 angstrom
           Maximum rank =  0   Radius =  0.325 angstrom
                   Q00  =   0.100448

Total multipoles referred to origin at
           x =   0.000000,  y =    0.000000,  z =    0.000000 angstrom
                   Q00  =  -0.000000

Finished at 16:6:7 on 27 Apr 2020

  DMA results are available in the Python driver through the
	  variable('DMA DISTRIBUTED MULTIPOLES')
  and
	  variable('DMA TOTAL MULTIPOLES')
  commands.

    Psi4 stopped on: Monday, 27 April 2020 04:06PM
    Psi4 wall time for execution: 0:02:14.14

*** Psi4 exiting successfully. Buy a developer a beer!
