                               Psi4 1.3.2 release

  ==> Input File <==

--------------------------------------------------------------------------
import numpy as np
set {scf_type pk
basis cc-pvdz
d_convergence 10
gdma_switch   0
gdma_limit    0
gdma_origin   [ 0.0,  0.0,  0.0 ]
}
molecule test {
    units Angstrom
    1 1
    --
    1 1
    C                0.487791478713039     0.701688393126484    -2.041934627795176
    C                0.320791478713039     2.425688393126484    -0.271934627795176
    N                0.212791478713039     1.171688393126484    -0.680934627795176
    N                0.695791478713039     3.370688393126485    -1.107934627795176
    N                0.068791478713039     2.733688393126484     0.981065372204824
    H               -0.032208521286961     0.456688393126484     0.000065372204824
    H                0.726791478713039    -0.362311606873516    -1.979934627795176
    H                1.365791478713039     1.194688393126484    -2.463934627795175
    H                0.939791478713039     3.132688393126484    -2.052934627795176
    H                0.804791478713039     4.320688393126484    -0.790934627795176
    H               -0.119208521286961     2.026688393126484     1.675065372204824
    H                0.160791478713039     3.689688393126484     1.289065372204824
    H               -0.368568521286961     0.815778393126484    -2.722834627795176
    C                0.750791478713039    -3.370311606873515     1.118065372204824
    C               -0.478208521286961    -2.552311606873516     0.765065372204824
    O               -0.396208521286961    -1.337311606873515     0.611065372204824
    N               -1.631208521286961    -3.191311606873515     0.653065372204824
    H                1.465791478713039    -3.269311606873516     0.300065372204824
    H                0.506791478713039    -4.426311606873516     1.217065372204824
    H               -2.437208521286960    -2.640311606873516     0.373065372204824
    H               -1.720208521286960    -4.193311606873515     0.691065372204824
    H                1.206321478713039    -2.993721606873516     2.045785372204824

}
e, wfn = energy('scf', return_wfn=True)
gdma(wfn)
dmavals = variable('DMA DISTRIBUTED MULTIPOLES')
charges = np.array(dmavals)
print(charges)
np.save('SSI-049ARG-167GLN-1-dimer.npy', np.array(charges))--------------------------------------------------------------------------

*** tstart() called on ds3
*** at Sun Apr 26 21:33:46 2020

   => Loading Basis Set <=

    Name: CC-PVDZ
    Role: ORBITAL
    Keyword: BASIS
    atoms 1-2, 14-15  entry C          line   138 file /theoryfs2/ds/metcalf/miniconda2/envs/tf2gpu/share/psi4/basis/cc-pvdz.gbs
    atoms 3-5, 17     entry N          line   168 file /theoryfs2/ds/metcalf/miniconda2/envs/tf2gpu/share/psi4/basis/cc-pvdz.gbs
    atoms 6-13, 18-22 entry H          line    22 file /theoryfs2/ds/metcalf/miniconda2/envs/tf2gpu/share/psi4/basis/cc-pvdz.gbs
    atoms 16          entry O          line   198 file /theoryfs2/ds/metcalf/miniconda2/envs/tf2gpu/share/psi4/basis/cc-pvdz.gbs

         ---------------------------------------------------------
                                   SCF
               by Justin Turney, Rob Parrish, Andy Simmonett
                          and Daniel G. A. Smith
                              RHF Reference
                        1 Threads,    500 MiB Core
         ---------------------------------------------------------

  ==> Geometry <==

    Molecular point group: c1
    Full point group: C1

    Geometry (in Angstrom), charge = 1, multiplicity = 1:

       Center              X                  Y                   Z               Mass
    ------------   -----------------  -----------------  -----------------  -----------------
         C            0.487791478713     0.701688393126    -2.041934627795    12.000000000000
         C            0.320791478713     2.425688393126    -0.271934627795    12.000000000000
         N            0.212791478713     1.171688393126    -0.680934627795    14.003074004430
         N            0.695791478713     3.370688393126    -1.107934627795    14.003074004430
         N            0.068791478713     2.733688393126     0.981065372205    14.003074004430
         H           -0.032208521287     0.456688393126     0.000065372205     1.007825032230
         H            0.726791478713    -0.362311606874    -1.979934627795     1.007825032230
         H            1.365791478713     1.194688393126    -2.463934627795     1.007825032230
         H            0.939791478713     3.132688393126    -2.052934627795     1.007825032230
         H            0.804791478713     4.320688393126    -0.790934627795     1.007825032230
         H           -0.119208521287     2.026688393126     1.675065372205     1.007825032230
         H            0.160791478713     3.689688393126     1.289065372205     1.007825032230
         H           -0.368568521287     0.815778393126    -2.722834627795     1.007825032230
         C            0.750791478713    -3.370311606874     1.118065372205    12.000000000000
         C           -0.478208521287    -2.552311606874     0.765065372205    12.000000000000
         O           -0.396208521287    -1.337311606874     0.611065372205    15.994914619570
         N           -1.631208521287    -3.191311606874     0.653065372205    14.003074004430
         H            1.465791478713    -3.269311606874     0.300065372205     1.007825032230
         H            0.506791478713    -4.426311606874     1.217065372205     1.007825032230
         H           -2.437208521287    -2.640311606874     0.373065372205     1.007825032230
         H           -1.720208521287    -4.193311606874     0.691065372205     1.007825032230
         H            1.206321478713    -2.993721606874     2.045785372205     1.007825032230

  Running in c1 symmetry.

  Rotational constants: A =      0.10152  B =      0.01720  C =      0.01625 [cm^-1]
  Rotational constants: A =   3043.63247  B =    515.78684  C =    487.06598 [MHz]
  Nuclear repulsion =  456.155302880571696

  Charge       = 1
  Multiplicity = 1
  Electrons    = 72
  Nalpha       = 36
  Nbeta        = 36

  ==> Algorithm <==

  SCF Algorithm Type is PK.
  DIIS enabled.
  MOM disabled.
  Fractional occupation disabled.
  Guess Type is SAD.
  Energy threshold   = 1.00e-06
  Density threshold  = 1.00e-10
  Integral threshold = 0.00e+00

  ==> Primary Basis <==

  Basis Set: CC-PVDZ
    Blend: CC-PVDZ
    Number of shells: 93
    Number of basis function: 191
    Number of Cartesian functions: 200
    Spherical Harmonics?: true
    Max angular momentum: 2

  ==> Pre-Iterations <==

   -------------------------------------------------------
    Irrep   Nso     Nmo     Nalpha   Nbeta   Ndocc  Nsocc
   -------------------------------------------------------
     A        191     191       0       0       0       0
   -------------------------------------------------------
    Total     191     191      36      36      36       0
   -------------------------------------------------------

  ==> Integral Setup <==

  Using integral reordering PK algorithm.
  Sizing the integral batches needed.
  Building batch lookup table.
   Calculation information:
      Number of atoms:                  22
      Number of AO shells:              93
      Number of primitives:            263
      Number of atomic orbitals:       200
      Number of basis functions:       191

      Integral cutoff                 1.00e-12
      Number of threads:                 1

	Batch   1 pq = [       0,    9405] index = [             0,44231715] size =     44231715
	Batch   2 pq = [    9405,   13301] index = [      44231715,88464951] size =     44233236
	Batch   3 pq = [   13301,   16290] index = [      88464951,132690195] size =     44225244
	Batch   4 pq = [   16290,   18336] index = [     132690195,168113616] size =     35423421
  Task number: 16
  Buffer size: 11059200
  Buffer per thread: 2
  We computed 7170905 shell quartets total.
  Whereas there are 9555006 unique shell quartets.

  ==> DiskJK: Disk-Based J/K Matrices <==

    J tasked:                  Yes
    K tasked:                  Yes
    wK tasked:                  No
    Memory [MiB]:              375
    Schwarz Cutoff:          1E-12

    OpenMP threads:              1

  Minimum eigenvalue in the overlap matrix is 3.8210446760E-03.
  Using Symmetric Orthogonalization.

  SCF Guess: Superposition of Atomic Densities via on-the-fly atomic UHF.

  ==> Iterations <==

                        Total Energy        Delta E     RMS |[F,P]|

   @RHF iter SAD:  -450.75730924682648   -4.50757e+02   0.00000e+00
   @RHF iter   1:  -451.36082108064943   -6.03512e-01   3.59747e-03 DIIS
   @RHF iter   2:  -451.56311332547153   -2.02292e-01   1.73304e-03 DIIS
   @RHF iter   3:  -451.60534516751261   -4.22318e-02   4.26021e-04 DIIS
   @RHF iter   4:  -451.60904330895073   -3.69814e-03   1.58777e-04 DIIS
   @RHF iter   5:  -451.60954755237674   -5.04243e-04   2.67206e-05 DIIS
   @RHF iter   6:  -451.60957624247908   -2.86901e-05   1.09679e-05 DIIS
   @RHF iter   7:  -451.60957982200455   -3.57953e-06   3.22855e-06 DIIS
   @RHF iter   8:  -451.60958037785161   -5.55847e-07   1.01660e-06 DIIS
   @RHF iter   9:  -451.60958042792294   -5.00713e-08   3.68312e-07 DIIS
   @RHF iter  10:  -451.60958043474830   -6.82536e-09   1.39173e-07 DIIS
   @RHF iter  11:  -451.60958043560299   -8.54698e-10   3.08297e-08 DIIS
   @RHF iter  12:  -451.60958043563858   -3.55840e-11   1.01064e-08 DIIS
   @RHF iter  13:  -451.60958043564403   -5.45697e-12   3.20864e-09 DIIS
   @RHF iter  14:  -451.60958043564813   -4.09273e-12   9.62401e-10 DIIS
   @RHF iter  15:  -451.60958043564369    4.43379e-12   3.35127e-10 DIIS
   @RHF iter  16:  -451.60958043564722   -3.52429e-12   1.51282e-10 DIIS
   @RHF iter  17:  -451.60958043564767   -4.54747e-13   5.23593e-11 DIIS
  Energy and wave function converged.

  ==> Post-Iterations <==

    Orbital Energies [Eh]
    ---------------------

    Doubly Occupied:

       1A    -20.629997     2A    -15.765117     3A    -15.761879
       4A    -15.745772     5A    -15.700203     6A    -11.560188
       7A    -11.470243     8A    -11.414998     9A    -11.344164
      10A     -1.519384    11A     -1.495823    12A     -1.370421
      13A     -1.368507    14A     -1.329629    15A     -1.113493
      16A     -1.104684    17A     -1.011793    18A     -0.954092
      19A     -0.916057    20A     -0.913170    21A     -0.837570
      22A     -0.834603    23A     -0.830237    24A     -0.797095
      25A     -0.780261    26A     -0.758301    27A     -0.722003
      28A     -0.718888    29A     -0.696832    30A     -0.685097
      31A     -0.659640    32A     -0.633243    33A     -0.595931
      34A     -0.553488    35A     -0.537706    36A     -0.526540

    Virtual:

      37A      0.016149    38A      0.047997    39A      0.054233
      40A      0.065318    41A      0.072752    42A      0.086810
      43A      0.104331    44A      0.105544    45A      0.121548
      46A      0.129448    47A      0.146449    48A      0.156833
      49A      0.173458    50A      0.184059    51A      0.194013
      52A      0.251333    53A      0.278099    54A      0.302582
      55A      0.350477    56A      0.357640    57A      0.381392
      58A      0.456799    59A      0.475367    60A      0.481184
      61A      0.532156    62A      0.541927    63A      0.550918
      64A      0.557290    65A      0.565950    66A      0.575196
      67A      0.581630    68A      0.585631    69A      0.594256
      70A      0.613905    71A      0.630676    72A      0.640568
      73A      0.702877    74A      0.714589    75A      0.722059
      76A      0.733568    77A      0.740892    78A      0.756455
      79A      0.775478    80A      0.777823    81A      0.798692
      82A      0.811140    83A      0.813996    84A      0.829310
      85A      0.839927    86A      0.853732    87A      0.877473
      88A      0.896651    89A      0.904092    90A      0.929237
      91A      0.947575    92A      0.955936    93A      0.983353
      94A      1.016827    95A      1.021291    96A      1.068575
      97A      1.121995    98A      1.137684    99A      1.157460
     100A      1.177219   101A      1.213082   102A      1.227506
     103A      1.230616   104A      1.253477   105A      1.267548
     106A      1.285651   107A      1.297753   108A      1.315459
     109A      1.325954   110A      1.373153   111A      1.391748
     112A      1.451906   113A      1.501720   114A      1.517469
     115A      1.524361   116A      1.549537   117A      1.562923
     118A      1.564643   119A      1.597406   120A      1.623799
     121A      1.647922   122A      1.682590   123A      1.721338
     124A      1.725335   125A      1.741115   126A      1.747644
     127A      1.754386   128A      1.773568   129A      1.779688
     130A      1.784403   131A      1.796738   132A      1.811752
     133A      1.820518   134A      1.825289   135A      1.843568
     136A      1.851215   137A      1.876968   138A      1.878865
     139A      1.942296   140A      1.960078   141A      1.967243
     142A      2.005544   143A      2.026352   144A      2.053238
     145A      2.113240   146A      2.120318   147A      2.163904
     148A      2.186242   149A      2.206382   150A      2.211298
     151A      2.277812   152A      2.285587   153A      2.299004
     154A      2.311863   155A      2.315533   156A      2.357635
     157A      2.359232   158A      2.366844   159A      2.417407
     160A      2.431275   161A      2.459325   162A      2.466385
     163A      2.475819   164A      2.539622   165A      2.558208
     166A      2.616289   167A      2.624776   168A      2.642433
     169A      2.670145   170A      2.693468   171A      2.700675
     172A      2.738183   173A      2.754608   174A      2.794231
     175A      2.816395   176A      2.847002   177A      2.864659
     178A      2.876002   179A      2.943528   180A      2.959762
     181A      3.000676   182A      3.083588   183A      3.110948
     184A      3.143749   185A      3.161115   186A      3.382509
     187A      3.401148   188A      3.613474   189A      3.683822
     190A      3.756367   191A      3.839875

    Final Occupation by Irrep:
              A
    DOCC [    36 ]

  @RHF Final Energy:  -451.60958043564767

   => Energetics <=

    Nuclear Repulsion Energy =            456.1553028805716963
    One-Electron Energy =               -1508.2156676274105394
    Two-Electron Energy =                 600.4507843111911143
    Total Energy =                       -451.6095804356476719

Computation Completed

Properties will be evaluated at   0.000000,   0.000000,   0.000000 [a0]

Properties computed using the SCF density matrix

  Nuclear Dipole Moment: [e a0]
     X:     2.3432      Y:    -2.1261      Z:    -2.2647

  Electronic Dipole Moment: [e a0]
     X:    -2.1216      Y:     3.9918      Z:     1.8614

  Dipole Moment: [e a0]
     X:     0.2215      Y:     1.8657      Z:    -0.4033     Total:     1.9216

  Dipole Moment: [D]
     X:     0.5631      Y:     4.7423      Z:    -1.0250     Total:     4.8843

*** tstop() called on ds3 at Sun Apr 26 21:35:28 2020
Module time:
	user time   =      50.44 seconds =       0.84 minutes
	system time =      25.76 seconds =       0.43 minutes
	total time  =        102 seconds =       1.70 minutes
Total time:
	user time   =      50.44 seconds =       0.84 minutes
	system time =      25.76 seconds =       0.43 minutes
	total time  =        102 seconds =       1.70 minutes
                                     G D M A

                                 by Anthony Stone

                           version 2.2.06, 22 June 2011

               Distributed Multipoles from Gaussian wavefunctions

Starting at 21:35:28 on 26 Apr 2020

Using SCF density matrix from file ./SSI/SSI-049ARG-167GLN-1-dimer.test.26925.fchk

                         Distributed Multipole Analysis

Standard DMA

Positions and radii in angstrom
Multipole moments in atomic units, ea_0^k for rank k

C          x =  0.487791  y =  0.701688  z = -2.041935 angstrom
           Maximum rank =  0   Radius =  0.650 angstrom
                   Q00  =  -0.124524

C          x =  0.320791  y =  2.425688  z = -0.271935 angstrom
           Maximum rank =  0   Radius =  0.650 angstrom
                   Q00  =   1.084152

N          x =  0.212791  y =  1.171688  z = -0.680935 angstrom
           Maximum rank =  0   Radius =  0.650 angstrom
                   Q00  =  -0.517743

N          x =  0.695791  y =  3.370688  z = -1.107935 angstrom
           Maximum rank =  0   Radius =  0.650 angstrom
                   Q00  =  -0.584705

N          x =  0.068791  y =  2.733688  z =  0.981065 angstrom
           Maximum rank =  0   Radius =  0.650 angstrom
                   Q00  =  -0.593566

H          x = -0.032209  y =  0.456688  z =  0.000065 angstrom
           Maximum rank =  0   Radius =  0.325 angstrom
                   Q00  =   0.284343

H          x =  0.726791  y = -0.362312  z = -1.979935 angstrom
           Maximum rank =  0   Radius =  0.325 angstrom
                   Q00  =   0.160151

H          x =  1.365791  y =  1.194688  z = -2.463935 angstrom
           Maximum rank =  0   Radius =  0.325 angstrom
                   Q00  =   0.097977

H          x =  0.939791  y =  3.132688  z = -2.052935 angstrom
           Maximum rank =  0   Radius =  0.325 angstrom
                   Q00  =   0.266249

H          x =  0.804791  y =  4.320688  z = -0.790935 angstrom
           Maximum rank =  0   Radius =  0.325 angstrom
                   Q00  =   0.259210

H          x = -0.119209  y =  2.026688  z =  1.675065 angstrom
           Maximum rank =  0   Radius =  0.325 angstrom
                   Q00  =   0.272397

H          x =  0.160791  y =  3.689688  z =  1.289065 angstrom
           Maximum rank =  0   Radius =  0.325 angstrom
                   Q00  =   0.251841

H          x = -0.368569  y =  0.815778  z = -2.722835 angstrom
           Maximum rank =  0   Radius =  0.325 angstrom
                   Q00  =   0.121278

C          x =  0.750791  y = -3.370312  z =  1.118065 angstrom
           Maximum rank =  0   Radius =  0.650 angstrom
                   Q00  =  -0.256586

C          x = -0.478209  y = -2.552312  z =  0.765065 angstrom
           Maximum rank =  0   Radius =  0.650 angstrom
                   Q00  =   0.816609

O          x = -0.396209  y = -1.337312  z =  0.611065 angstrom
           Maximum rank =  0   Radius =  0.650 angstrom
                   Q00  =  -0.841320

N          x = -1.631209  y = -3.191312  z =  0.653065 angstrom
           Maximum rank =  0   Radius =  0.650 angstrom
                   Q00  =  -0.528371

H          x =  1.465791  y = -3.269312  z =  0.300065 angstrom
           Maximum rank =  0   Radius =  0.325 angstrom
                   Q00  =   0.133012

H          x =  0.506791  y = -4.426312  z =  1.217065 angstrom
           Maximum rank =  0   Radius =  0.325 angstrom
                   Q00  =   0.099521

H          x = -2.437209  y = -2.640312  z =  0.373065 angstrom
           Maximum rank =  0   Radius =  0.325 angstrom
                   Q00  =   0.224428

H          x = -1.720209  y = -4.193312  z =  0.691065 angstrom
           Maximum rank =  0   Radius =  0.325 angstrom
                   Q00  =   0.234669

H          x =  1.206321  y = -2.993722  z =  2.045785 angstrom
           Maximum rank =  0   Radius =  0.325 angstrom
                   Q00  =   0.140980

Total multipoles referred to origin at
           x =   0.000000,  y =    0.000000,  z =    0.000000 angstrom
                   Q00  =   1.000000

Finished at 21:35:28 on 26 Apr 2020

  DMA results are available in the Python driver through the
	  variable('DMA DISTRIBUTED MULTIPOLES')
  and
	  variable('DMA TOTAL MULTIPOLES')
  commands.

    Psi4 stopped on: Sunday, 26 April 2020 09:35PM
    Psi4 wall time for execution: 0:01:41.98

*** Psi4 exiting successfully. Buy a developer a beer!
