                               Psi4 1.3.2 release

  ==> Input File <==

--------------------------------------------------------------------------
import numpy as np
set {scf_type pk
basis cc-pvdz
d_convergence 10
gdma_switch   0
gdma_limit    0
gdma_origin   [ 0.0,  0.0,  0.0 ]
}
molecule test {
    units Angstrom
    0 1
    --
    0 1
    C               -1.739148399939196    -0.036774578145569    -3.831567098981433
    C               -0.494148399939196    -0.673774578145569    -1.794567098981434
    N               -0.742148399939196     0.549225421854431    -1.283567098981434
    N               -0.962148399939196    -0.976774578145568    -3.013567098981433
    N                0.218851600060804    -1.558774578145569    -1.076567098981434
    H               -1.267148399939196     1.225225421854431    -1.835567098981433
    H               -0.403148399939196     0.821225421854431    -0.383567098981434
    H               -0.789148399939196    -1.899774578145569    -3.395567098981433
    H                0.419851600060804    -2.483774578145569    -1.451567098981434
    H                0.568851600060804    -1.320774578145569    -0.162567098981434
    H               -1.242148399939196     0.933225421854431    -3.798567098981434
    H               -2.735148399939195     0.049225421854431    -3.398567098981434
    H               -1.860448399939196    -0.313774578145569    -4.889167098981433
    C                0.698851600060804    -0.839774578145569     2.685432901018566
    C                0.884851600060804     0.931225421854431     2.796432901018567
    O                0.285851600060804     1.246225421854431     1.726432901018566
    O                1.833851600060804     1.359225421854431     3.792432901018567
    H                1.178851600060804    -1.007774578145568     3.556432901018566
    H                1.237851600060804    -1.307774578145569     1.852432901018567
    H               -0.375548399939196    -1.075474578145569     2.699732901018566

}
e, wfn = energy('scf', return_wfn=True)
gdma(wfn)
dmavals = variable('DMA DISTRIBUTED MULTIPOLES')
charges = np.array(dmavals)
print(charges)
np.save('SSI-130ARG-248GLU-1-dimer.npy', np.array(charges))--------------------------------------------------------------------------

*** tstart() called on ds3
*** at Sun Apr 26 20:53:34 2020

   => Loading Basis Set <=

    Name: CC-PVDZ
    Role: ORBITAL
    Keyword: BASIS
    atoms 1-2, 14-15  entry C          line   138 file /theoryfs2/ds/metcalf/miniconda2/envs/tf2gpu/share/psi4/basis/cc-pvdz.gbs
    atoms 3-5         entry N          line   168 file /theoryfs2/ds/metcalf/miniconda2/envs/tf2gpu/share/psi4/basis/cc-pvdz.gbs
    atoms 6-13, 18-20 entry H          line    22 file /theoryfs2/ds/metcalf/miniconda2/envs/tf2gpu/share/psi4/basis/cc-pvdz.gbs
    atoms 16-17       entry O          line   198 file /theoryfs2/ds/metcalf/miniconda2/envs/tf2gpu/share/psi4/basis/cc-pvdz.gbs

         ---------------------------------------------------------
                                   SCF
               by Justin Turney, Rob Parrish, Andy Simmonett
                          and Daniel G. A. Smith
                              RHF Reference
                        1 Threads,    500 MiB Core
         ---------------------------------------------------------

  ==> Geometry <==

    Molecular point group: c1
    Full point group: C1

    Geometry (in Angstrom), charge = 0, multiplicity = 1:

       Center              X                  Y                   Z               Mass
    ------------   -----------------  -----------------  -----------------  -----------------
         C           -1.739148399939    -0.036774578146    -3.831567098981    12.000000000000
         C           -0.494148399939    -0.673774578146    -1.794567098981    12.000000000000
         N           -0.742148399939     0.549225421854    -1.283567098981    14.003074004430
         N           -0.962148399939    -0.976774578146    -3.013567098981    14.003074004430
         N            0.218851600061    -1.558774578146    -1.076567098981    14.003074004430
         H           -1.267148399939     1.225225421854    -1.835567098981     1.007825032230
         H           -0.403148399939     0.821225421854    -0.383567098981     1.007825032230
         H           -0.789148399939    -1.899774578146    -3.395567098981     1.007825032230
         H            0.419851600061    -2.483774578146    -1.451567098981     1.007825032230
         H            0.568851600061    -1.320774578146    -0.162567098981     1.007825032230
         H           -1.242148399939     0.933225421854    -3.798567098981     1.007825032230
         H           -2.735148399939     0.049225421854    -3.398567098981     1.007825032230
         H           -1.860448399939    -0.313774578146    -4.889167098981     1.007825032230
         C            0.698851600061    -0.839774578146     2.685432901019    12.000000000000
         C            0.884851600061     0.931225421854     2.796432901019    12.000000000000
         O            0.285851600061     1.246225421854     1.726432901019    15.994914619570
         O            1.833851600061     1.359225421854     3.792432901019    15.994914619570
         H            1.178851600061    -1.007774578146     3.556432901019     1.007825032230
         H            1.237851600061    -1.307774578146     1.852432901019     1.007825032230
         H           -0.375548399939    -1.075474578146     2.699732901019     1.007825032230

  Running in c1 symmetry.

  Rotational constants: A =      0.13200  B =      0.01511  C =      0.01388 [cm^-1]
  Rotational constants: A =   3957.39872  B =    452.93534  C =    416.07183 [MHz]
  Nuclear repulsion =  427.337633260442658

  Charge       = 0
  Multiplicity = 1
  Electrons    = 72
  Nalpha       = 36
  Nbeta        = 36

  ==> Algorithm <==

  SCF Algorithm Type is PK.
  DIIS enabled.
  MOM disabled.
  Fractional occupation disabled.
  Guess Type is SAD.
  Energy threshold   = 1.00e-06
  Density threshold  = 1.00e-10
  Integral threshold = 0.00e+00

  ==> Primary Basis <==

  Basis Set: CC-PVDZ
    Blend: CC-PVDZ
    Number of shells: 87
    Number of basis function: 181
    Number of Cartesian functions: 190
    Spherical Harmonics?: true
    Max angular momentum: 2

  ==> Pre-Iterations <==

   -------------------------------------------------------
    Irrep   Nso     Nmo     Nalpha   Nbeta   Ndocc  Nsocc
   -------------------------------------------------------
     A        181     181       0       0       0       0
   -------------------------------------------------------
    Total     181     181      36      36      36       0
   -------------------------------------------------------

  ==> Integral Setup <==

  Using integral reordering PK algorithm.
  Sizing the integral batches needed.
  Building batch lookup table.
   Calculation information:
      Number of atoms:                  20
      Number of AO shells:              87
      Number of primitives:            253
      Number of atomic orbitals:       190
      Number of basis functions:       181

      Integral cutoff                 1.00e-12
      Number of threads:                 1

	Batch   1 pq = [       0,    9405] index = [             0,44231715] size =     44231715
	Batch   2 pq = [    9405,   13301] index = [      44231715,88464951] size =     44233236
	Batch   3 pq = [   13301,   16471] index = [      88464951,135655156] size =     47190205
  Task number: 13
  Buffer size: 11059200
  Buffer per thread: 2
  We computed 5426317 shell quartets total.
  Whereas there are 7328706 unique shell quartets.

  ==> DiskJK: Disk-Based J/K Matrices <==

    J tasked:                  Yes
    K tasked:                  Yes
    wK tasked:                  No
    Memory [MiB]:              375
    Schwarz Cutoff:          1E-12

    OpenMP threads:              1

  Minimum eigenvalue in the overlap matrix is 4.0195742887E-03.
  Using Symmetric Orthogonalization.

  SCF Guess: Superposition of Atomic Densities via on-the-fly atomic UHF.

  ==> Iterations <==

                        Total Energy        Delta E     RMS |[F,P]|

   @RHF iter SAD:  -468.84479026890097   -4.68845e+02   0.00000e+00
   @RHF iter   1:  -470.51065507072468   -1.66586e+00   4.50706e-03 DIIS
   @RHF iter   2:  -470.71807875363089   -2.07424e-01   3.00553e-03 DIIS
   @RHF iter   3:  -470.82929951956396   -1.11221e-01   5.56398e-04 DIIS
   @RHF iter   4:  -470.83482947685093   -5.52996e-03   2.20553e-04 DIIS
   @RHF iter   5:  -470.83586650757934   -1.03703e-03   6.85887e-05 DIIS
   @RHF iter   6:  -470.83597705367470   -1.10546e-04   2.65833e-05 DIIS
   @RHF iter   7:  -470.83601342749876   -3.63738e-05   1.11428e-05 DIIS
   @RHF iter   8:  -470.83602061416661   -7.18667e-06   4.69934e-06 DIIS
   @RHF iter   9:  -470.83602229933382   -1.68517e-06   1.81204e-06 DIIS
   @RHF iter  10:  -470.83602257212658   -2.72793e-07   5.88358e-07 DIIS
   @RHF iter  11:  -470.83602259622967   -2.41031e-08   2.07799e-07 DIIS
   @RHF iter  12:  -470.83602259826591   -2.03624e-09   7.28109e-08 DIIS
   @RHF iter  13:  -470.83602259860970   -3.43789e-10   2.94984e-08 DIIS
   @RHF iter  14:  -470.83602259867303   -6.33236e-11   1.24383e-08 DIIS
   @RHF iter  15:  -470.83602259868019   -7.16227e-12   4.97887e-09 DIIS
   @RHF iter  16:  -470.83602259868428   -4.09273e-12   2.45229e-09 DIIS
   @RHF iter  17:  -470.83602259868314    1.13687e-12   1.20489e-09 DIIS
   @RHF iter  18:  -470.83602259868331   -1.70530e-13   5.50500e-10 DIIS
   @RHF iter  19:  -470.83602259868150    1.81899e-12   1.89806e-10 DIIS
   @RHF iter  20:  -470.83602259868371   -2.21689e-12   7.87335e-11 DIIS
  Energy and wave function converged.

  ==> Post-Iterations <==

    Orbital Energies [Eh]
    ---------------------

    Doubly Occupied:

       1A    -20.443636     2A    -20.410958     3A    -15.693463
       4A    -15.677480     5A    -15.666530     6A    -11.489873
       7A    -11.359120     8A    -11.298324     9A    -11.150669
      10A     -1.423280    11A     -1.293974    12A     -1.266644
      13A     -1.264263    14A     -1.122441    15A     -1.048596
      16A     -0.929276    17A     -0.874615    18A     -0.862476
      19A     -0.823848    20A     -0.742745    21A     -0.736915
      22A     -0.723299    23A     -0.702662    24A     -0.641504
      25A     -0.634998    26A     -0.630392    27A     -0.521122
      28A     -0.510799    29A     -0.495458    30A     -0.490320
      31A     -0.488385    32A     -0.465190    33A     -0.430149
      34A     -0.321467    35A     -0.298953    36A     -0.254207

    Virtual:

      37A      0.092936    38A      0.120507    39A      0.122123
      40A      0.142625    41A      0.189020    42A      0.194409
      43A      0.198756    44A      0.211869    45A      0.261360
      46A      0.270523    47A      0.285893    48A      0.294741
      49A      0.342344    50A      0.351492    51A      0.381715
      52A      0.400656    53A      0.424590    54A      0.450749
      55A      0.480151    56A      0.535291    57A      0.562241
      58A      0.605221    59A      0.622118    60A      0.630032
      61A      0.630648    62A      0.647239    63A      0.652353
      64A      0.673841    65A      0.706602    66A      0.737810
      67A      0.769391    68A      0.783997    69A      0.798658
      70A      0.808831    71A      0.813711    72A      0.820156
      73A      0.838893    74A      0.844377    75A      0.899750
      76A      0.918783    77A      0.931330    78A      0.933556
      79A      0.939804    80A      0.968891    81A      0.978578
      82A      1.000753    83A      1.005812    84A      1.016578
      85A      1.053211    86A      1.073477    87A      1.081281
      88A      1.114870    89A      1.159262    90A      1.185688
      91A      1.217132    92A      1.230465    93A      1.238313
      94A      1.248378    95A      1.291934    96A      1.299536
      97A      1.316309    98A      1.330632    99A      1.371962
     100A      1.382021   101A      1.451141   102A      1.457090
     103A      1.470366   104A      1.501209   105A      1.526213
     106A      1.545003   107A      1.587626   108A      1.596221
     109A      1.606954   110A      1.625011   111A      1.636176
     112A      1.639128   113A      1.666248   114A      1.714051
     115A      1.742394   116A      1.786481   117A      1.795068
     118A      1.804990   119A      1.823330   120A      1.832323
     121A      1.851561   122A      1.854627   123A      1.863643
     124A      1.869791   125A      1.920079   126A      1.921831
     127A      1.940220   128A      2.001226   129A      2.023244
     130A      2.042679   131A      2.079696   132A      2.085230
     133A      2.125918   134A      2.136456   135A      2.152845
     136A      2.184833   137A      2.197724   138A      2.218011
     139A      2.226142   140A      2.267692   141A      2.272974
     142A      2.318049   143A      2.385444   144A      2.390103
     145A      2.420262   146A      2.439257   147A      2.443474
     148A      2.501174   149A      2.504483   150A      2.530989
     151A      2.559298   152A      2.568943   153A      2.625127
     154A      2.649538   155A      2.668164   156A      2.690064
     157A      2.721245   158A      2.800321   159A      2.823592
     160A      2.832668   161A      2.854585   162A      2.863162
     163A      2.901362   164A      2.939410   165A      2.985671
     166A      3.096060   167A      3.111382   168A      3.133920
     169A      3.155223   170A      3.163053   171A      3.172775
     172A      3.192027   173A      3.243379   174A      3.270759
     175A      3.462740   176A      3.541327   177A      3.630683
     178A      3.648192   179A      3.717196   180A      3.850451
     181A      3.998185

    Final Occupation by Irrep:
              A
    DOCC [    36 ]

  @RHF Final Energy:  -470.83602259868371

   => Energetics <=

    Nuclear Repulsion Energy =            427.3376332604426580
    One-Electron Energy =               -1489.9712549219016182
    Two-Electron Energy =                 591.7975990627753617
    Total Energy =                       -470.8360225986837122

Computation Completed

Properties will be evaluated at   0.000000,   0.000000,   0.000000 [a0]

Properties computed using the SCF density matrix

  Nuclear Dipole Moment: [e a0]
     X:    -4.9235      Y:    -5.9630      Z:   -10.4637

  Electronic Dipole Moment: [e a0]
     X:     1.9976      Y:     2.9497      Z:     2.3822

  Dipole Moment: [e a0]
     X:    -2.9259      Y:    -3.0133      Z:    -8.0815     Total:     9.1077

  Dipole Moment: [D]
     X:    -7.4368      Y:    -7.6590      Z:   -20.5411     Total:    23.1495

*** tstop() called on ds3 at Sun Apr 26 20:55:00 2020
Module time:
	user time   =      43.33 seconds =       0.72 minutes
	system time =      28.09 seconds =       0.47 minutes
	total time  =         86 seconds =       1.43 minutes
Total time:
	user time   =      43.33 seconds =       0.72 minutes
	system time =      28.09 seconds =       0.47 minutes
	total time  =         86 seconds =       1.43 minutes
                                     G D M A

                                 by Anthony Stone

                           version 2.2.06, 22 June 2011

               Distributed Multipoles from Gaussian wavefunctions

Starting at 20:55:0 on 26 Apr 2020

Using SCF density matrix from file ./SSI/SSI-130ARG-248GLU-1-dimer.test.10587.fchk

                         Distributed Multipole Analysis

Standard DMA

Positions and radii in angstrom
Multipole moments in atomic units, ea_0^k for rank k

C          x = -1.739148  y = -0.036775  z = -3.831567 angstrom
           Maximum rank =  0   Radius =  0.650 angstrom
                   Q00  =  -0.109950

C          x = -0.494148  y = -0.673775  z = -1.794567 angstrom
           Maximum rank =  0   Radius =  0.650 angstrom
                   Q00  =   1.060165

N          x = -0.742148  y =  0.549225  z = -1.283567 angstrom
           Maximum rank =  0   Radius =  0.650 angstrom
                   Q00  =  -0.582474

N          x = -0.962148  y = -0.976775  z = -3.013567 angstrom
           Maximum rank =  0   Radius =  0.650 angstrom
                   Q00  =  -0.499228

N          x =  0.218852  y = -1.558775  z = -1.076567 angstrom
           Maximum rank =  0   Radius =  0.650 angstrom
                   Q00  =  -0.595078

H          x = -1.267148  y =  1.225225  z = -1.835567 angstrom
           Maximum rank =  0   Radius =  0.325 angstrom
                   Q00  =   0.254851

H          x = -0.403148  y =  0.821225  z = -0.383567 angstrom
           Maximum rank =  0   Radius =  0.325 angstrom
                   Q00  =   0.309472

H          x = -0.789148  y = -1.899775  z = -3.395567 angstrom
           Maximum rank =  0   Radius =  0.325 angstrom
                   Q00  =   0.225436

H          x =  0.419852  y = -2.483775  z = -1.451567 angstrom
           Maximum rank =  0   Radius =  0.325 angstrom
                   Q00  =   0.249306

H          x =  0.568852  y = -1.320775  z = -0.162567 angstrom
           Maximum rank =  0   Radius =  0.325 angstrom
                   Q00  =   0.302815

H          x = -1.242148  y =  0.933225  z = -3.798567 angstrom
           Maximum rank =  0   Radius =  0.325 angstrom
                   Q00  =   0.105817

H          x = -2.735148  y =  0.049225  z = -3.398567 angstrom
           Maximum rank =  0   Radius =  0.325 angstrom
                   Q00  =   0.111908

H          x = -1.860448  y = -0.313775  z = -4.889167 angstrom
           Maximum rank =  0   Radius =  0.325 angstrom
                   Q00  =   0.153124

C          x =  0.698852  y = -0.839775  z =  2.685433 angstrom
           Maximum rank =  0   Radius =  0.650 angstrom
                   Q00  =  -0.399261

C          x =  0.884852  y =  0.931225  z =  2.796433 angstrom
           Maximum rank =  0   Radius =  0.650 angstrom
                   Q00  =   0.721053

O          x =  0.285852  y =  1.246225  z =  1.726433 angstrom
           Maximum rank =  0   Radius =  0.650 angstrom
                   Q00  =  -0.594306

O          x =  1.833852  y =  1.359225  z =  3.792433 angstrom
           Maximum rank =  0   Radius =  0.650 angstrom
                   Q00  =  -0.865133

H          x =  1.178852  y = -1.007775  z =  3.556433 angstrom
           Maximum rank =  0   Radius =  0.325 angstrom
                   Q00  =   0.050316

H          x =  1.237852  y = -1.307775  z =  1.852433 angstrom
           Maximum rank =  0   Radius =  0.325 angstrom
                   Q00  =   0.037264

H          x = -0.375548  y = -1.075475  z =  2.699733 angstrom
           Maximum rank =  0   Radius =  0.325 angstrom
                   Q00  =   0.063904

Total multipoles referred to origin at
           x =   0.000000,  y =    0.000000,  z =    0.000000 angstrom
                   Q00  =  -0.000000

Finished at 20:55:0 on 26 Apr 2020

  DMA results are available in the Python driver through the
	  variable('DMA DISTRIBUTED MULTIPOLES')
  and
	  variable('DMA TOTAL MULTIPOLES')
  commands.

    Psi4 stopped on: Sunday, 26 April 2020 08:55PM
    Psi4 wall time for execution: 0:01:26.21

*** Psi4 exiting successfully. Buy a developer a beer!
