                               Psi4 1.3.2 release

  ==> Input File <==

--------------------------------------------------------------------------
import numpy as np
set {scf_type pk
basis cc-pvdz
d_convergence 10
gdma_switch   0
gdma_limit    0
gdma_origin   [ 0.0,  0.0,  0.0 ]
}
molecule test {
    units Angstrom
    0 1
    --
    0 1
    C                2.228984637943674    -2.558992821650921     0.910242642328833
    C                1.501984637943674    -0.441992821650921     2.082242642328833
    C                2.183984637943674    -1.053992821650921     1.032242642328833
    C                1.458984637943674     0.963007178349079     2.180242642328833
    C                2.844984637943674    -0.244992821650921     0.097242642328833
    C                2.132984637943674     1.745007178349079     1.235242642328833
    C                2.827984637943674     1.141007178349079     0.196242642328833
    O                2.108984637943674     3.111007178349079     1.314242642328833
    H                1.047984637943674    -1.053992821650921     2.835242642328833
    H                0.929984637943674     1.441007178349079     2.991242642328833
    H                2.318984637943674    -2.809992821650921    -0.145757357671167
    H                1.284984637943674    -2.982992821650921     1.250242642328833
    H                3.368984637943674    -0.704992821650921    -0.729757357671167
    H                3.343984637943674     1.740007178349079    -0.539757357671167
    H                2.665984637943674     3.516007178349079     0.646242642328833
    H                3.063564637943674    -3.028218821650921     1.451822642328833
    C               -3.864015362056326     0.129007178349079    -3.305757357671167
    C               -1.519015362056326    -0.873992821650921     0.169242642328833
    C               -1.163015362056326     0.216007178349079    -0.632757357671167
    C               -2.655015362056326    -1.633992821650921    -0.147757357671167
    C               -1.941015362056326     0.539007178349079    -1.742757357671167
    C               -3.428015362056326    -1.298992821650921    -1.258757357671167
    C               -3.067015362056326    -0.215992821650921    -2.071757357671167
    H               -0.922015362056326    -1.131992821650921     1.030242642328833
    H               -0.285015362056326     0.800007178349079    -0.393757357671167
    H               -2.932015362056326    -2.474992821650921     0.471242642328833
    H               -1.655015362056326     1.375007178349079    -2.364757357671167
    H               -4.299015362056325    -1.890992821650921    -1.498757357671167
    H               -4.311015362056326    -0.788992821650921    -3.686757357671167
    H               -3.180015362056326     0.489007178349079    -4.072757357671167
    H               -4.653827362056326     0.876495178349079    -3.140047357671167

}
e, wfn = energy('scf', return_wfn=True)
gdma(wfn)
dmavals = variable('DMA DISTRIBUTED MULTIPOLES')
charges = np.array(dmavals)
print(charges)
np.save('SSI-014TYR-082PHE-1-dimer.npy', np.array(charges))--------------------------------------------------------------------------

*** tstart() called on ds3
*** at Mon Apr 27 13:14:16 2020

   => Loading Basis Set <=

    Name: CC-PVDZ
    Role: ORBITAL
    Keyword: BASIS
    atoms 1-7, 17-23  entry C          line   138 file /theoryfs2/ds/metcalf/miniconda2/envs/tf2gpu/share/psi4/basis/cc-pvdz.gbs
    atoms 8           entry O          line   198 file /theoryfs2/ds/metcalf/miniconda2/envs/tf2gpu/share/psi4/basis/cc-pvdz.gbs
    atoms 9-16, 24-31 entry H          line    22 file /theoryfs2/ds/metcalf/miniconda2/envs/tf2gpu/share/psi4/basis/cc-pvdz.gbs

         ---------------------------------------------------------
                                   SCF
               by Justin Turney, Rob Parrish, Andy Simmonett
                          and Daniel G. A. Smith
                              RHF Reference
                        1 Threads,    500 MiB Core
         ---------------------------------------------------------

  ==> Geometry <==

    Molecular point group: c1
    Full point group: C1

    Geometry (in Angstrom), charge = 0, multiplicity = 1:

       Center              X                  Y                   Z               Mass
    ------------   -----------------  -----------------  -----------------  -----------------
         C            2.228984637944    -2.558992821651     0.910242642329    12.000000000000
         C            1.501984637944    -0.441992821651     2.082242642329    12.000000000000
         C            2.183984637944    -1.053992821651     1.032242642329    12.000000000000
         C            1.458984637944     0.963007178349     2.180242642329    12.000000000000
         C            2.844984637944    -0.244992821651     0.097242642329    12.000000000000
         C            2.132984637944     1.745007178349     1.235242642329    12.000000000000
         C            2.827984637944     1.141007178349     0.196242642329    12.000000000000
         O            2.108984637944     3.111007178349     1.314242642329    15.994914619570
         H            1.047984637944    -1.053992821651     2.835242642329     1.007825032230
         H            0.929984637944     1.441007178349     2.991242642329     1.007825032230
         H            2.318984637944    -2.809992821651    -0.145757357671     1.007825032230
         H            1.284984637944    -2.982992821651     1.250242642329     1.007825032230
         H            3.368984637944    -0.704992821651    -0.729757357671     1.007825032230
         H            3.343984637944     1.740007178349    -0.539757357671     1.007825032230
         H            2.665984637944     3.516007178349     0.646242642329     1.007825032230
         H            3.063564637944    -3.028218821651     1.451822642329     1.007825032230
         C           -3.864015362056     0.129007178349    -3.305757357671    12.000000000000
         C           -1.519015362056    -0.873992821651     0.169242642329    12.000000000000
         C           -1.163015362056     0.216007178349    -0.632757357671    12.000000000000
         C           -2.655015362056    -1.633992821651    -0.147757357671    12.000000000000
         C           -1.941015362056     0.539007178349    -1.742757357671    12.000000000000
         C           -3.428015362056    -1.298992821651    -1.258757357671    12.000000000000
         C           -3.067015362056    -0.215992821651    -2.071757357671    12.000000000000
         H           -0.922015362056    -1.131992821651     1.030242642329     1.007825032230
         H           -0.285015362056     0.800007178349    -0.393757357671     1.007825032230
         H           -2.932015362056    -2.474992821651     0.471242642329     1.007825032230
         H           -1.655015362056     1.375007178349    -2.364757357671     1.007825032230
         H           -4.299015362056    -1.890992821651    -1.498757357671     1.007825032230
         H           -4.311015362056    -0.788992821651    -3.686757357671     1.007825032230
         H           -3.180015362056     0.489007178349    -4.072757357671     1.007825032230
         H           -4.653827362056     0.876495178349    -3.140047357671     1.007825032230

  Running in c1 symmetry.

  Rotational constants: A =      0.03049  B =      0.00963  C =      0.00837 [cm^-1]
  Rotational constants: A =    914.08110  B =    288.82243  C =    250.81112 [MHz]
  Nuclear repulsion =  886.883531264850149

  Charge       = 0
  Multiplicity = 1
  Electrons    = 108
  Nalpha       = 54
  Nbeta        = 54

  ==> Algorithm <==

  SCF Algorithm Type is PK.
  DIIS enabled.
  MOM disabled.
  Fractional occupation disabled.
  Guess Type is SAD.
  Energy threshold   = 1.00e-06
  Density threshold  = 1.00e-10
  Integral threshold = 0.00e+00

  ==> Primary Basis <==

  Basis Set: CC-PVDZ
    Blend: CC-PVDZ
    Number of shells: 138
    Number of basis function: 290
    Number of Cartesian functions: 305
    Spherical Harmonics?: true
    Max angular momentum: 2

  ==> Pre-Iterations <==

   -------------------------------------------------------
    Irrep   Nso     Nmo     Nalpha   Nbeta   Ndocc  Nsocc
   -------------------------------------------------------
     A        290     290       0       0       0       0
   -------------------------------------------------------
    Total     290     290      54      54      54       0
   -------------------------------------------------------

  ==> Integral Setup <==

  Using integral reordering PK algorithm.
  Sizing the integral batches needed.
  Building batch lookup table.
   Calculation information:
      Number of atoms:                  31
      Number of AO shells:             138
      Number of primitives:            410
      Number of atomic orbitals:       305
      Number of basis functions:       290

      Integral cutoff                 1.00e-12
      Number of threads:                 1

	Batch   1 pq = [       0,    9405] index = [             0,44231715] size =     44231715
	Batch   2 pq = [    9405,   13301] index = [      44231715,88464951] size =     44233236
	Batch   3 pq = [   13301,   16290] index = [      88464951,132690195] size =     44225244
	Batch   4 pq = [   16290,   18810] index = [     132690195,176917455] size =     44227260
	Batch   5 pq = [   18810,   21030] index = [     176917455,221140965] size =     44223510
	Batch   6 pq = [   21030,   23037] index = [     221140965,265363203] size =     44222238
	Batch   7 pq = [   23037,   24883] index = [     265363203,309594286] size =     44231083
	Batch   8 pq = [   24883,   26601] index = [     309594286,353819901] size =     44225615
	Batch   9 pq = [   26601,   28214] index = [     353819901,398029005] size =     44209104
	Batch  10 pq = [   28214,   29740] index = [     398029005,442248670] size =     44219665
	Batch  11 pq = [   29740,   31191] index = [     442248670,486454836] size =     44206166
	Batch  12 pq = [   31191,   32578] index = [     486454836,530679331] size =     44224495
	Batch  13 pq = [   32578,   33908] index = [     530679331,574893186] size =     44213855
	Batch  14 pq = [   33908,   35188] index = [     574893186,619115266] size =     44222080
	Batch  15 pq = [   35188,   36423] index = [     619115266,663335676] size =     44220410
	Batch  16 pq = [   36423,   37617] index = [     663335676,707538153] size =     44202477
	Batch  17 pq = [   37617,   38775] index = [     707538153,751769700] size =     44231547
	Batch  18 pq = [   38775,   39899] index = [     751769700,795985050] size =     44215350
	Batch  19 pq = [   39899,   40992] index = [     795985050,840192528] size =     44207478
	Batch  20 pq = [   40992,   42057] index = [     840192528,884416653] size =     44224125
	Batch  21 pq = [   42057,   42195] index = [     884416653,890230110] size =      5813457
  Task number: 81
  Buffer size: 11059200
  Buffer per thread: 2
  We computed 43211118 shell quartets total.
  Whereas there are 45998436 unique shell quartets.

  ==> DiskJK: Disk-Based J/K Matrices <==

    J tasked:                  Yes
    K tasked:                  Yes
    wK tasked:                  No
    Memory [MiB]:              375
    Schwarz Cutoff:          1E-12

    OpenMP threads:              1

  Minimum eigenvalue in the overlap matrix is 3.0270278735E-04.
  Using Symmetric Orthogonalization.

  SCF Guess: Superposition of Atomic Densities via on-the-fly atomic UHF.

  ==> Iterations <==

                        Total Energy        Delta E     RMS |[F,P]|

   @RHF iter SAD:  -613.10724345473727   -6.13107e+02   0.00000e+00
   @RHF iter   1:  -614.06409364971046   -9.56850e-01   2.35810e-03 DIIS
   @RHF iter   2:  -614.33680723065117   -2.72714e-01   9.72963e-04 DIIS
   @RHF iter   3:  -614.37731624521155   -4.05090e-02   2.35183e-04 DIIS
   @RHF iter   4:  -614.38088269252989   -3.56645e-03   9.25188e-05 DIIS
   @RHF iter   5:  -614.38130008654855   -4.17394e-04   1.69908e-05 DIIS
   @RHF iter   6:  -614.38132089463284   -2.08081e-05   5.84748e-06 DIIS
   @RHF iter   7:  -614.38132330690166   -2.41227e-06   1.74665e-06 DIIS
   @RHF iter   8:  -614.38132363726481   -3.30363e-07   7.10705e-07 DIIS
   @RHF iter   9:  -614.38132369749599   -6.02312e-08   3.02756e-07 DIIS
   @RHF iter  10:  -614.38132371075153   -1.32555e-08   1.34156e-07 DIIS
   @RHF iter  11:  -614.38132371491020   -4.15866e-09   6.09502e-08 DIIS
   @RHF iter  12:  -614.38132371571066   -8.00469e-10   2.78426e-08 DIIS
   @RHF iter  13:  -614.38132371583606   -1.25397e-10   7.26010e-09 DIIS
   @RHF iter  14:  -614.38132371584481   -8.75389e-12   2.34322e-09 DIIS
   @RHF iter  15:  -614.38132371584913   -4.32010e-12   6.66354e-10 DIIS
   @RHF iter  16:  -614.38132371584641    2.72848e-12   2.71658e-10 DIIS
   @RHF iter  17:  -614.38132371584425    2.16005e-12   8.67408e-11 DIIS
  Energy and wave function converged.

  ==> Post-Iterations <==

    Orbital Energies [Eh]
    ---------------------

    Doubly Occupied:

       1A    -20.584128     2A    -11.303421     3A    -11.242194
       4A    -11.241957     5A    -11.236953     6A    -11.236535
       7A    -11.236112     8A    -11.235478     9A    -11.230497
      10A    -11.228943    11A    -11.226917    12A    -11.225640
      13A    -11.225012    14A    -11.224113    15A    -11.223131
      16A     -1.400065    17A     -1.151680    18A     -1.142220
      19A     -1.039063    20A     -1.034956    21A     -1.019126
      22A     -1.003629    23A     -0.927903    24A     -0.923952
      25A     -0.846822    26A     -0.815879    27A     -0.804169
      28A     -0.788334    29A     -0.734516    30A     -0.682693
      31A     -0.669794    32A     -0.643960    33A     -0.623943
      34A     -0.622237    35A     -0.609260    36A     -0.589571
      37A     -0.588254    38A     -0.574992    39A     -0.572726
      40A     -0.571467    41A     -0.569251    42A     -0.553405
      43A     -0.528901    44A     -0.526419    45A     -0.500337
      46A     -0.487420    47A     -0.478242    48A     -0.477843
      49A     -0.475079    50A     -0.466546    51A     -0.340846
      52A     -0.324983    53A     -0.313999    54A     -0.303566

    Virtual:

      55A      0.124328    56A      0.141774    57A      0.144213
      58A      0.153748    59A      0.176421    60A      0.180000
      61A      0.195013    62A      0.210211    63A      0.216619
      64A      0.224887    65A      0.230322    66A      0.251364
      67A      0.259747    68A      0.261783    69A      0.272103
      70A      0.277214    71A      0.288488    72A      0.293893
      73A      0.295831    74A      0.321284    75A      0.365636
      76A      0.368999    77A      0.373903    78A      0.383239
      79A      0.427241    80A      0.451826    81A      0.454580
      82A      0.468092    83A      0.477361    84A      0.485221
      85A      0.491800    86A      0.494444    87A      0.505474
      88A      0.562706    89A      0.597508    90A      0.606760
      91A      0.640313    92A      0.644406    93A      0.648211
      94A      0.661446    95A      0.675441    96A      0.680747
      97A      0.683191    98A      0.693922    99A      0.711528
     100A      0.719036   101A      0.723604   102A      0.729019
     103A      0.731238   104A      0.739495   105A      0.746014
     106A      0.747305   107A      0.757260   108A      0.761872
     109A      0.766287   110A      0.768438   111A      0.776213
     112A      0.790196   113A      0.791340   114A      0.807718
     115A      0.834451   116A      0.838460   117A      0.851782
     118A      0.859501   119A      0.867332   120A      0.877276
     121A      0.877947   122A      0.882517   123A      0.884408
     124A      0.886892   125A      0.894340   126A      0.898036
     127A      0.907310   128A      0.922413   129A      0.922971
     130A      0.929107   131A      0.937617   132A      0.943204
     133A      0.944492   134A      0.949946   135A      0.974794
     136A      0.985866   137A      1.000443   138A      1.008421
     139A      1.025903   140A      1.046273   141A      1.063447
     142A      1.071623   143A      1.108285   144A      1.133917
     145A      1.140245   146A      1.148100   147A      1.155175
     148A      1.160454   149A      1.186386   150A      1.191551
     151A      1.213168   152A      1.223743   153A      1.234654
     154A      1.240781   155A      1.253486   156A      1.256532
     157A      1.262659   158A      1.277183   159A      1.285034
     160A      1.298983   161A      1.302679   162A      1.306060
     163A      1.311815   164A      1.316816   165A      1.321786
     166A      1.335296   167A      1.344252   168A      1.358049
     169A      1.358971   170A      1.395429   171A      1.426858
     172A      1.476869   173A      1.498444   174A      1.515986
     175A      1.529485   176A      1.538021   177A      1.555006
     178A      1.572296   179A      1.608237   180A      1.617138
     181A      1.623207   182A      1.682264   183A      1.686148
     184A      1.706582   185A      1.708690   186A      1.732390
     187A      1.737919   188A      1.743061   189A      1.759959
     190A      1.765655   191A      1.782304   192A      1.791005
     193A      1.795636   194A      1.813020   195A      1.819710
     196A      1.861376   197A      1.870477   198A      1.883324
     199A      1.891157   200A      1.894419   201A      1.894982
     202A      1.902746   203A      1.913169   204A      1.919062
     205A      1.920420   206A      1.929488   207A      1.934771
     208A      1.947425   209A      1.949007   210A      1.959526
     211A      1.971390   212A      1.974469   213A      1.981016
     214A      1.985645   215A      1.997245   216A      2.005992
     217A      2.029162   218A      2.046420   219A      2.054116
     220A      2.060687   221A      2.063780   222A      2.070354
     223A      2.075162   224A      2.082181   225A      2.118283
     226A      2.135916   227A      2.143708   228A      2.150145
     229A      2.152285   230A      2.165041   231A      2.176950
     232A      2.182469   233A      2.203735   234A      2.218006
     235A      2.225493   236A      2.253164   237A      2.262087
     238A      2.279446   239A      2.282950   240A      2.296457
     241A      2.299784   242A      2.311044   243A      2.314970
     244A      2.336522   245A      2.351810   246A      2.380978
     247A      2.428623   248A      2.457740   249A      2.471961
     250A      2.475615   251A      2.476647   252A      2.484254
     253A      2.497991   254A      2.540318   255A      2.547676
     256A      2.554439   257A      2.599622   258A      2.622684
     259A      2.649485   260A      2.748432   261A      2.750591
     262A      2.766329   263A      2.772466   264A      2.775032
     265A      2.787935   266A      2.800241   267A      2.814379
     268A      2.829700   269A      2.844801   270A      2.856986
     271A      2.880846   272A      2.904327   273A      2.961564
     274A      2.982048   275A      2.992346   276A      3.024694
     277A      3.032072   278A      3.078213   279A      3.104897
     280A      3.154602   281A      3.203110   282A      3.249908
     283A      3.276717   284A      3.303278   285A      3.344545
     286A      3.570780   287A      3.661342   288A      3.959236
     289A      3.971056   290A      4.184919

    Final Occupation by Irrep:
              A
    DOCC [    54 ]

  @RHF Final Energy:  -614.38132371584425

   => Energetics <=

    Nuclear Repulsion Energy =            886.8835312648501485
    One-Electron Energy =               -2593.2715548654973645
    Two-Electron Energy =                1092.0066998848028561
    Total Energy =                       -614.3813237158442462

Computation Completed

Properties will be evaluated at   0.000000,   0.000000,   0.000000 [a0]

Properties computed using the SCF density matrix

  Nuclear Dipole Moment: [e a0]
     X:    -3.9399      Y:    -6.2001      Z:    -5.5208

  Electronic Dipole Moment: [e a0]
     X:     4.3984      Y:     6.0752      Z:     5.0416

  Dipole Moment: [e a0]
     X:     0.4586      Y:    -0.1249      Z:    -0.4793     Total:     0.6750

  Dipole Moment: [D]
     X:     1.1655      Y:    -0.3176      Z:    -1.2182     Total:     1.7156

*** tstop() called on ds3 at Mon Apr 27 13:23:46 2020
Module time:
	user time   =     406.97 seconds =       6.78 minutes
	system time =     160.48 seconds =       2.67 minutes
	total time  =        570 seconds =       9.50 minutes
Total time:
	user time   =     406.97 seconds =       6.78 minutes
	system time =     160.48 seconds =       2.67 minutes
	total time  =        570 seconds =       9.50 minutes
                                     G D M A

                                 by Anthony Stone

                           version 2.2.06, 22 June 2011

               Distributed Multipoles from Gaussian wavefunctions

Starting at 13:23:46 on 27 Apr 2020

Using SCF density matrix from file ./SSI/SSI-014TYR-082PHE-1-dimer.test.5858.fchk

                         Distributed Multipole Analysis

Standard DMA

Positions and radii in angstrom
Multipole moments in atomic units, ea_0^k for rank k

C          x =  2.228985  y = -2.558993  z =  0.910243 angstrom
           Maximum rank =  0   Radius =  0.650 angstrom
                   Q00  =  -0.192658

C          x =  1.501985  y = -0.441993  z =  2.082243 angstrom
           Maximum rank =  0   Radius =  0.650 angstrom
                   Q00  =  -0.061891

C          x =  2.183985  y = -1.053993  z =  1.032243 angstrom
           Maximum rank =  0   Radius =  0.650 angstrom
                   Q00  =  -0.140494

C          x =  1.458985  y =  0.963007  z =  2.180243 angstrom
           Maximum rank =  0   Radius =  0.650 angstrom
                   Q00  =  -0.108190

C          x =  2.844985  y = -0.244993  z =  0.097243 angstrom
           Maximum rank =  0   Radius =  0.650 angstrom
                   Q00  =   0.062497

C          x =  2.132985  y =  1.745007  z =  1.235243 angstrom
           Maximum rank =  0   Radius =  0.650 angstrom
                   Q00  =   0.280861

C          x =  2.827985  y =  1.141007  z =  0.196243 angstrom
           Maximum rank =  0   Radius =  0.650 angstrom
                   Q00  =  -0.187378

O          x =  2.108985  y =  3.111007  z =  1.314243 angstrom
           Maximum rank =  0   Radius =  0.650 angstrom
                   Q00  =  -0.645680

H          x =  1.047985  y = -1.053993  z =  2.835243 angstrom
           Maximum rank =  0   Radius =  0.325 angstrom
                   Q00  =   0.066699

H          x =  0.929985  y =  1.441007  z =  2.991243 angstrom
           Maximum rank =  0   Radius =  0.325 angstrom
                   Q00  =   0.085752

H          x =  2.318985  y = -2.809993  z = -0.145757 angstrom
           Maximum rank =  0   Radius =  0.325 angstrom
                   Q00  =   0.099344

H          x =  1.284985  y = -2.982993  z =  1.250243 angstrom
           Maximum rank =  0   Radius =  0.325 angstrom
                   Q00  =   0.096709

H          x =  3.368985  y = -0.704993  z = -0.729757 angstrom
           Maximum rank =  0   Radius =  0.325 angstrom
                   Q00  =   0.070381

H          x =  3.343985  y =  1.740007  z = -0.539757 angstrom
           Maximum rank =  0   Radius =  0.325 angstrom
                   Q00  =   0.071889

H          x =  2.665985  y =  3.516007  z =  0.646243 angstrom
           Maximum rank =  0   Radius =  0.325 angstrom
                   Q00  =   0.405822

H          x =  3.063565  y = -3.028219  z =  1.451823 angstrom
           Maximum rank =  0   Radius =  0.325 angstrom
                   Q00  =   0.100443

C          x = -3.864015  y =  0.129007  z = -3.305757 angstrom
           Maximum rank =  0   Radius =  0.650 angstrom
                   Q00  =  -0.202720

C          x = -1.519015  y = -0.873993  z =  0.169243 angstrom
           Maximum rank =  0   Radius =  0.650 angstrom
                   Q00  =  -0.084116

C          x = -1.163015  y =  0.216007  z = -0.632757 angstrom
           Maximum rank =  0   Radius =  0.650 angstrom
                   Q00  =  -0.071708

C          x = -2.655015  y = -1.633993  z = -0.147757 angstrom
           Maximum rank =  0   Radius =  0.650 angstrom
                   Q00  =  -0.072551

C          x = -1.941015  y =  0.539007  z = -1.742757 angstrom
           Maximum rank =  0   Radius =  0.650 angstrom
                   Q00  =  -0.012637

C          x = -3.428015  y = -1.298993  z = -1.258757 angstrom
           Maximum rank =  0   Radius =  0.650 angstrom
                   Q00  =  -0.055999

C          x = -3.067015  y = -0.215993  z = -2.071757 angstrom
           Maximum rank =  0   Radius =  0.650 angstrom
                   Q00  =  -0.103429

H          x = -0.922015  y = -1.131993  z =  1.030243 angstrom
           Maximum rank =  0   Radius =  0.325 angstrom
                   Q00  =   0.060427

H          x = -0.285015  y =  0.800007  z = -0.393757 angstrom
           Maximum rank =  0   Radius =  0.325 angstrom
                   Q00  =   0.075089

H          x = -2.932015  y = -2.474993  z =  0.471243 angstrom
           Maximum rank =  0   Radius =  0.325 angstrom
                   Q00  =   0.060941

H          x = -1.655015  y =  1.375007  z = -2.364757 angstrom
           Maximum rank =  0   Radius =  0.325 angstrom
                   Q00  =   0.050471

H          x = -4.299015  y = -1.890993  z = -1.498757 angstrom
           Maximum rank =  0   Radius =  0.325 angstrom
                   Q00  =   0.055477

H          x = -4.311015  y = -0.788993  z = -3.686757 angstrom
           Maximum rank =  0   Radius =  0.325 angstrom
                   Q00  =   0.095433

H          x = -3.180015  y =  0.489007  z = -4.072757 angstrom
           Maximum rank =  0   Radius =  0.325 angstrom
                   Q00  =   0.096719

H          x = -4.653827  y =  0.876495  z = -3.140047 angstrom
           Maximum rank =  0   Radius =  0.325 angstrom
                   Q00  =   0.104496

Total multipoles referred to origin at
           x =   0.000000,  y =    0.000000,  z =    0.000000 angstrom
                   Q00  =  -0.000000

Finished at 13:23:47 on 27 Apr 2020

  DMA results are available in the Python driver through the
	  variable('DMA DISTRIBUTED MULTIPOLES')
  and
	  variable('DMA TOTAL MULTIPOLES')
  commands.

    Psi4 stopped on: Monday, 27 April 2020 01:23PM
    Psi4 wall time for execution: 0:09:30.46

*** Psi4 exiting successfully. Buy a developer a beer!
