                               Psi4 1.3.2 release

  ==> Input File <==

--------------------------------------------------------------------------
import numpy as np
set {scf_type pk
basis cc-pvdz
d_convergence 10
gdma_switch   0
gdma_limit    0
gdma_origin   [ 0.0,  0.0,  0.0 ]
}
molecule test {
    units Angstrom
    0 1
    --
    0 1
    C                0.603621077521916     0.260152944747079     1.103394523692480
    C                0.805621077521916    -0.120847055252921     2.572394523692480
    C               -0.584378922478084    -0.404847055252921     0.479394523692480
    C               -1.885378922478084    -0.349847055252921     0.843394523692480
    C               -1.724378922478084    -1.643847055252921    -0.904605476307520
    N               -0.501378922478084    -1.211847055252921    -0.626605476307519
    N               -2.579378922478084    -1.141847055252921    -0.026605476307519
    H                0.504621077521916     1.343152944747079     1.009394523692480
    H                1.478621077521916    -0.038847055252921     0.525394523692480
    H                0.658621077521916    -1.196847055252921     2.649394523692480
    H               -2.285378922478084     0.191152944747079     1.680394523692480
    H               -1.984378922478084    -2.309847055252921    -1.720605476307519
    H               -3.580378922478084    -1.317847055252921    -0.005605476307519
    H                0.061873077521916     0.408256944747079     3.186305823692480
    H                1.844074077521916     0.065057944747079     2.883930443692480
    C                2.040621077521916     1.855152944747079    -2.052605476307519
    C                3.281621077521916     2.328152944747079    -1.294605476307519
    H                1.797621077521916     0.828152944747079    -1.783605476307519
    H                1.193621077521916     2.492152944747079    -1.799605476307520
    H                2.221621077521916     1.917152944747079    -3.125605476307520
    H                3.072621077521916     2.290152944747079    -0.224605476307519
    H                3.416621077521916     3.369152944747079    -1.579605476307520
    H                4.193587077521916     1.752473944747079    -1.511197476307519

}
e, wfn = energy('scf', return_wfn=True)
gdma(wfn)
dmavals = variable('DMA DISTRIBUTED MULTIPOLES')
charges = np.array(dmavals)
print(charges)
np.save('SSI-012HIE-015ILE-1-dimer.npy', np.array(charges))--------------------------------------------------------------------------

*** tstart() called on ds3
*** at Tue Apr 28 16:55:01 2020

   => Loading Basis Set <=

    Name: CC-PVDZ
    Role: ORBITAL
    Keyword: BASIS
    atoms 1-5, 16-17  entry C          line   138 file /theoryfs2/ds/metcalf/miniconda2/envs/tf2gpu/share/psi4/basis/cc-pvdz.gbs
    atoms 6-7         entry N          line   168 file /theoryfs2/ds/metcalf/miniconda2/envs/tf2gpu/share/psi4/basis/cc-pvdz.gbs
    atoms 8-15, 18-23 entry H          line    22 file /theoryfs2/ds/metcalf/miniconda2/envs/tf2gpu/share/psi4/basis/cc-pvdz.gbs

         ---------------------------------------------------------
                                   SCF
               by Justin Turney, Rob Parrish, Andy Simmonett
                          and Daniel G. A. Smith
                              RHF Reference
                        1 Threads,    500 MiB Core
         ---------------------------------------------------------

  ==> Geometry <==

    Molecular point group: c1
    Full point group: C1

    Geometry (in Angstrom), charge = 0, multiplicity = 1:

       Center              X                  Y                   Z               Mass
    ------------   -----------------  -----------------  -----------------  -----------------
         C            0.603621077522     0.260152944747     1.103394523692    12.000000000000
         C            0.805621077522    -0.120847055253     2.572394523692    12.000000000000
         C           -0.584378922478    -0.404847055253     0.479394523692    12.000000000000
         C           -1.885378922478    -0.349847055253     0.843394523692    12.000000000000
         C           -1.724378922478    -1.643847055253    -0.904605476308    12.000000000000
         N           -0.501378922478    -1.211847055253    -0.626605476308    14.003074004430
         N           -2.579378922478    -1.141847055253    -0.026605476308    14.003074004430
         H            0.504621077522     1.343152944747     1.009394523692     1.007825032230
         H            1.478621077522    -0.038847055253     0.525394523692     1.007825032230
         H            0.658621077522    -1.196847055253     2.649394523692     1.007825032230
         H           -2.285378922478     0.191152944747     1.680394523692     1.007825032230
         H           -1.984378922478    -2.309847055253    -1.720605476308     1.007825032230
         H           -3.580378922478    -1.317847055253    -0.005605476308     1.007825032230
         H            0.061873077522     0.408256944747     3.186305823692     1.007825032230
         H            1.844074077522     0.065057944747     2.883930443692     1.007825032230
         C            2.040621077522     1.855152944747    -2.052605476308    12.000000000000
         C            3.281621077522     2.328152944747    -1.294605476308    12.000000000000
         H            1.797621077522     0.828152944747    -1.783605476308     1.007825032230
         H            1.193621077522     2.492152944747    -1.799605476308     1.007825032230
         H            2.221621077522     1.917152944747    -3.125605476308     1.007825032230
         H            3.072621077522     2.290152944747    -0.224605476308     1.007825032230
         H            3.416621077522     3.369152944747    -1.579605476308     1.007825032230
         H            4.193587077522     1.752473944747    -1.511197476308     1.007825032230

  Running in c1 symmetry.

  Rotational constants: A =      0.06669  B =      0.02411  C =      0.01915 [cm^-1]
  Rotational constants: A =   1999.21596  B =    722.88837  C =    574.18444 [MHz]
  Nuclear repulsion =  431.592134084542124

  Charge       = 0
  Multiplicity = 1
  Electrons    = 70
  Nalpha       = 35
  Nbeta        = 35

  ==> Algorithm <==

  SCF Algorithm Type is PK.
  DIIS enabled.
  MOM disabled.
  Fractional occupation disabled.
  Guess Type is SAD.
  Energy threshold   = 1.00e-06
  Density threshold  = 1.00e-10
  Integral threshold = 0.00e+00

  ==> Primary Basis <==

  Basis Set: CC-PVDZ
    Blend: CC-PVDZ
    Number of shells: 96
    Number of basis function: 196
    Number of Cartesian functions: 205
    Spherical Harmonics?: true
    Max angular momentum: 2

  ==> Pre-Iterations <==

   -------------------------------------------------------
    Irrep   Nso     Nmo     Nalpha   Nbeta   Ndocc  Nsocc
   -------------------------------------------------------
     A        196     196       0       0       0       0
   -------------------------------------------------------
    Total     196     196      35      35      35       0
   -------------------------------------------------------

  ==> Integral Setup <==

  Using integral reordering PK algorithm.
  Sizing the integral batches needed.
  Building batch lookup table.
   Calculation information:
      Number of atoms:                  23
      Number of AO shells:              96
      Number of primitives:            268
      Number of atomic orbitals:       205
      Number of basis functions:       196

      Integral cutoff                 1.00e-12
      Number of threads:                 1

	Batch   1 pq = [       0,    9405] index = [             0,44231715] size =     44231715
	Batch   2 pq = [    9405,   13301] index = [      44231715,88464951] size =     44233236
	Batch   3 pq = [   13301,   16290] index = [      88464951,132690195] size =     44225244
	Batch   4 pq = [   16290,   18810] index = [     132690195,176917455] size =     44227260
	Batch   5 pq = [   18810,   19306] index = [     176917455,186370471] size =      9453016
  Task number: 17
  Buffer size: 11059200
  Buffer per thread: 2
  We computed 9013245 shell quartets total.
  Whereas there are 10841496 unique shell quartets.

  ==> DiskJK: Disk-Based J/K Matrices <==

    J tasked:                  Yes
    K tasked:                  Yes
    wK tasked:                  No
    Memory [MiB]:              375
    Schwarz Cutoff:          1E-12

    OpenMP threads:              1

  Minimum eigenvalue in the overlap matrix is 1.1501553648E-03.
  Using Symmetric Orthogonalization.

  SCF Guess: Superposition of Atomic Densities via on-the-fly atomic UHF.

  ==> Iterations <==

                        Total Energy        Delta E     RMS |[F,P]|

   @RHF iter SAD:  -381.28886560502019   -3.81289e+02   0.00000e+00
   @RHF iter   1:  -381.89339939134453   -6.04534e-01   3.12667e-03 DIIS
   @RHF iter   2:  -382.09012542115511   -1.96726e-01   1.56065e-03 DIIS
   @RHF iter   3:  -382.13510002097360   -4.49746e-02   3.98551e-04 DIIS
   @RHF iter   4:  -382.13891980259370   -3.81978e-03   1.73303e-04 DIIS
   @RHF iter   5:  -382.13956221732406   -6.42415e-04   2.28827e-05 DIIS
   @RHF iter   6:  -382.13958270525177   -2.04879e-05   9.44263e-06 DIIS
   @RHF iter   7:  -382.13958533872807   -2.63348e-06   3.27402e-06 DIIS
   @RHF iter   8:  -382.13958587584176   -5.37114e-07   1.28951e-06 DIIS
   @RHF iter   9:  -382.13958599473398   -1.18892e-07   4.71761e-07 DIIS
   @RHF iter  10:  -382.13958600801811   -1.32841e-08   1.62933e-07 DIIS
   @RHF iter  11:  -382.13958600991032   -1.89220e-09   5.82790e-08 DIIS
   @RHF iter  12:  -382.13958601012604   -2.15721e-10   2.50544e-08 DIIS
   @RHF iter  13:  -382.13958601015986   -3.38218e-11   6.91936e-09 DIIS
   @RHF iter  14:  -382.13958601016083   -9.66338e-13   2.57595e-09 DIIS
   @RHF iter  15:  -382.13958601016475   -3.92220e-12   9.83689e-10 DIIS
   @RHF iter  16:  -382.13958601016441    3.41061e-13   3.50702e-10 DIIS
   @RHF iter  17:  -382.13958601016492   -5.11591e-13   1.15358e-10 DIIS
   @RHF iter  18:  -382.13958601016424    6.82121e-13   3.48996e-11 DIIS
  Energy and wave function converged.

  ==> Post-Iterations <==

    Orbital Energies [Eh]
    ---------------------

    Doubly Occupied:

       1A    -15.622708     2A    -15.529623     3A    -11.291220
       4A    -11.245800     5A    -11.235551     6A    -11.220808
       7A    -11.218240     8A    -11.208887     9A    -11.203454
      10A     -1.347137    11A     -1.158693    12A     -1.053175
      13A     -1.008293    14A     -0.983984    15A     -0.862553
      16A     -0.825729    17A     -0.818145    18A     -0.760691
      19A     -0.738700    20A     -0.623531    21A     -0.604519
      22A     -0.598713    23A     -0.589545    24A     -0.587762
      25A     -0.581661    26A     -0.575429    27A     -0.508762
      28A     -0.491087    29A     -0.487573    30A     -0.481158
      31A     -0.475413    32A     -0.470962    33A     -0.413214
      34A     -0.381254    35A     -0.308101

    Virtual:

      36A      0.172478    37A      0.176381    38A      0.187586
      39A      0.199057    40A      0.223794    41A      0.227416
      42A      0.236247    43A      0.250909    44A      0.252787
      45A      0.262156    46A      0.270652    47A      0.277246
      48A      0.287143    49A      0.296149    50A      0.325019
      51A      0.348982    52A      0.389705    53A      0.398747
      54A      0.404594    55A      0.409335    56A      0.446884
      57A      0.477603    58A      0.508122    59A      0.577810
      60A      0.594063    61A      0.611631    62A      0.614665
      63A      0.617713    64A      0.643257    65A      0.650725
      66A      0.666662    67A      0.687281    68A      0.693255
      69A      0.707886    70A      0.730461    71A      0.751560
      72A      0.773080    73A      0.798765    74A      0.816601
      75A      0.841743    76A      0.853595    77A      0.860772
      78A      0.870955    79A      0.874269    80A      0.898985
      81A      0.899797    82A      0.902891    83A      0.906312
      84A      0.909232    85A      0.927061    86A      0.937078
      87A      0.944632    88A      0.956457    89A      0.967834
      90A      0.972055    91A      0.989526    92A      1.002601
      93A      1.020818    94A      1.047270    95A      1.057896
      96A      1.104875    97A      1.109189    98A      1.128123
      99A      1.134534   100A      1.145821   101A      1.154884
     102A      1.186062   103A      1.248286   104A      1.257251
     105A      1.268348   106A      1.298011   107A      1.325432
     108A      1.330962   109A      1.383648   110A      1.434719
     111A      1.448797   112A      1.464961   113A      1.472935
     114A      1.490721   115A      1.506884   116A      1.552345
     117A      1.567114   118A      1.587567   119A      1.617654
     120A      1.676435   121A      1.687095   122A      1.693205
     123A      1.713250   124A      1.752942   125A      1.765212
     126A      1.782551   127A      1.814514   128A      1.849187
     129A      1.864189   130A      1.867772   131A      1.886118
     132A      1.892831   133A      1.894416   134A      1.902365
     135A      1.931287   136A      1.938891   137A      1.954605
     138A      1.958318   139A      1.965382   140A      1.973232
     141A      1.975555   142A      1.982836   143A      1.992423
     144A      2.004395   145A      2.013458   146A      2.029020
     147A      2.063879   148A      2.076098   149A      2.089174
     150A      2.097835   151A      2.114805   152A      2.148450
     153A      2.155273   154A      2.196311   155A      2.222331
     156A      2.268054   157A      2.292830   158A      2.303671
     159A      2.314705   160A      2.330021   161A      2.362176
     162A      2.390469   163A      2.431363   164A      2.454871
     165A      2.459972   166A      2.480751   167A      2.487160
     168A      2.507668   169A      2.565523   170A      2.573674
     171A      2.599251   172A      2.603293   173A      2.621141
     174A      2.683196   175A      2.769581   176A      2.774352
     177A      2.783639   178A      2.787058   179A      2.812441
     180A      2.815630   181A      2.825847   182A      2.849278
     183A      2.861942   184A      2.874644   185A      2.894124
     186A      2.911083   187A      2.930388   188A      2.946264
     189A      2.972350   190A      2.981385   191A      3.027547
     192A      3.095764   193A      3.164058   194A      3.257277
     195A      3.484879   196A      3.802613

    Final Occupation by Irrep:
              A
    DOCC [    35 ]

  @RHF Final Energy:  -382.13958601016424

   => Energetics <=

    Nuclear Repulsion Energy =            431.5921340845421241
    One-Electron Energy =               -1372.4392919733134022
    Two-Electron Energy =                 558.7075718786071548
    Total Energy =                       -382.1395860101641802

Computation Completed

Properties will be evaluated at   0.000000,   0.000000,   0.000000 [a0]

Properties computed using the SCF density matrix

  Nuclear Dipole Moment: [e a0]
     X:    11.8148      Y:     9.1879      Z:     0.1747

  Electronic Dipole Moment: [e a0]
     X:   -13.2134      Y:    -9.2660      Z:     0.1658

  Dipole Moment: [e a0]
     X:    -1.3985      Y:    -0.0781      Z:     0.3405     Total:     1.4415

  Dipole Moment: [D]
     X:    -3.5547      Y:    -0.1985      Z:     0.8656     Total:     3.6639

*** tstop() called on ds3 at Tue Apr 28 16:56:28 2020
Module time:
	user time   =      60.28 seconds =       1.00 minutes
	system time =      28.43 seconds =       0.47 minutes
	total time  =         87 seconds =       1.45 minutes
Total time:
	user time   =      60.28 seconds =       1.00 minutes
	system time =      28.43 seconds =       0.47 minutes
	total time  =         87 seconds =       1.45 minutes
                                     G D M A

                                 by Anthony Stone

                           version 2.2.06, 22 June 2011

               Distributed Multipoles from Gaussian wavefunctions

Starting at 16:56:28 on 28 Apr 2020

Using SCF density matrix from file ./SSI/SSI-012HIE-015ILE-1-dimer.test.22460.fchk

                         Distributed Multipole Analysis

Standard DMA

Positions and radii in angstrom
Multipole moments in atomic units, ea_0^k for rank k

C          x =  0.603621  y =  0.260153  z =  1.103395 angstrom
           Maximum rank =  0   Radius =  0.650 angstrom
                   Q00  =  -0.058774

C          x =  0.805621  y = -0.120847  z =  2.572395 angstrom
           Maximum rank =  0   Radius =  0.650 angstrom
                   Q00  =  -0.223085

C          x = -0.584379  y = -0.404847  z =  0.479395 angstrom
           Maximum rank =  0   Radius =  0.650 angstrom
                   Q00  =   0.233885

C          x = -1.885379  y = -0.349847  z =  0.843395 angstrom
           Maximum rank =  0   Radius =  0.650 angstrom
                   Q00  =  -0.007296

C          x = -1.724379  y = -1.643847  z = -0.904605 angstrom
           Maximum rank =  0   Radius =  0.650 angstrom
                   Q00  =   0.453104

N          x = -0.501379  y = -1.211847  z = -0.626605 angstrom
           Maximum rank =  0   Radius =  0.650 angstrom
                   Q00  =  -0.773575

N          x = -2.579379  y = -1.141847  z = -0.026605 angstrom
           Maximum rank =  0   Radius =  0.650 angstrom
                   Q00  =  -0.469952

H          x =  0.504621  y =  1.343153  z =  1.009395 angstrom
           Maximum rank =  0   Radius =  0.325 angstrom
                   Q00  =   0.066134

H          x =  1.478621  y = -0.038847  z =  0.525395 angstrom
           Maximum rank =  0   Radius =  0.325 angstrom
                   Q00  =   0.092667

H          x =  0.658621  y = -1.196847  z =  2.649395 angstrom
           Maximum rank =  0   Radius =  0.325 angstrom
                   Q00  =   0.085331

H          x = -2.285379  y =  0.191153  z =  1.680395 angstrom
           Maximum rank =  0   Radius =  0.325 angstrom
                   Q00  =   0.098579

H          x = -1.984379  y = -2.309847  z = -1.720605 angstrom
           Maximum rank =  0   Radius =  0.325 angstrom
                   Q00  =   0.121476

H          x = -3.580379  y = -1.317847  z = -0.005605 angstrom
           Maximum rank =  0   Radius =  0.325 angstrom
                   Q00  =   0.222482

H          x =  0.061873  y =  0.408257  z =  3.186306 angstrom
           Maximum rank =  0   Radius =  0.325 angstrom
                   Q00  =   0.074479

H          x =  1.844074  y =  0.065058  z =  2.883930 angstrom
           Maximum rank =  0   Radius =  0.325 angstrom
                   Q00  =   0.085051

C          x =  2.040621  y =  1.855153  z = -2.052605 angstrom
           Maximum rank =  0   Radius =  0.650 angstrom
                   Q00  =  -0.231124

C          x =  3.281621  y =  2.328153  z = -1.294605 angstrom
           Maximum rank =  0   Radius =  0.650 angstrom
                   Q00  =  -0.238121

H          x =  1.797621  y =  0.828153  z = -1.783605 angstrom
           Maximum rank =  0   Radius =  0.325 angstrom
                   Q00  =   0.091231

H          x =  1.193621  y =  2.492153  z = -1.799605 angstrom
           Maximum rank =  0   Radius =  0.325 angstrom
                   Q00  =   0.075943

H          x =  2.221621  y =  1.917153  z = -3.125605 angstrom
           Maximum rank =  0   Radius =  0.325 angstrom
                   Q00  =   0.074441

H          x =  3.072621  y =  2.290153  z = -0.224605 angstrom
           Maximum rank =  0   Radius =  0.325 angstrom
                   Q00  =   0.074563

H          x =  3.416621  y =  3.369153  z = -1.579605 angstrom
           Maximum rank =  0   Radius =  0.325 angstrom
                   Q00  =   0.070749

H          x =  4.193587  y =  1.752474  z = -1.511197 angstrom
           Maximum rank =  0   Radius =  0.325 angstrom
                   Q00  =   0.081813

Total multipoles referred to origin at
           x =   0.000000,  y =    0.000000,  z =    0.000000 angstrom
                   Q00  =  -0.000000

Finished at 16:56:28 on 28 Apr 2020

  DMA results are available in the Python driver through the
	  variable('DMA DISTRIBUTED MULTIPOLES')
  and
	  variable('DMA TOTAL MULTIPOLES')
  commands.

    Psi4 stopped on: Tuesday, 28 April 2020 04:56PM
    Psi4 wall time for execution: 0:01:27.17

*** Psi4 exiting successfully. Buy a developer a beer!
