                               Psi4 1.3.2 release

  ==> Input File <==

--------------------------------------------------------------------------
import numpy as np
set {scf_type pk
basis cc-pvdz
d_convergence 10
gdma_switch   0
gdma_limit    0
gdma_origin   [ 0.0,  0.0,  0.0 ]
}
molecule test {
    units Angstrom
    0 1
    --
    0 1
    C                1.816470162847232     1.144629068510468     1.075494146096640
    C               -0.502529837152768     0.610629068510468     0.325494146096640
    C                0.602470162847232     0.283629068510468     1.100494146096640
    C               -1.641529837152768    -0.187370931489532     0.347494146096640
    C                0.549470162847232    -0.831370931489532     1.932494146096640
    C               -1.688529837152768    -1.305370931489532     1.175494146096640
    C               -0.597529837152768    -1.625370931489532     1.972494146096640
    H               -0.488529837152768     1.499629068510468    -0.286505853903360
    H               -2.495529837152768     0.066629068510468    -0.267505853903360
    H                1.561470162847232     2.090629068510468     0.598494146096640
    H                2.573470162847232     0.646629068510468     0.469494146096640
    H                1.393470162847232    -1.117370931489532     2.538494146096641
    H               -2.568529837152768    -1.932370931489532     1.183494146096640
    H               -0.629529837152768    -2.500370931489532     2.606494146096640
    H                2.228160162847232     1.352272068510468     2.074194146096640
    C                0.511470162847232     0.928629068510468    -2.725505853903360
    C                0.549470162847232     0.591629068510468    -4.204505853903359
    H                1.362470162847232     0.480629068510468    -2.211505853903359
    H                0.544470162847232     2.010629068510467    -2.587505853903360
    H               -0.413529837152768     0.529629068510468    -2.313505853903360
    H                1.484470162847232     0.974629068510468    -4.612505853903361
    H               -0.301009837152768     1.043968068510468    -4.735606853903360
    H                0.520560162847232    -0.497467631489532    -4.356270853903360

}
e, wfn = energy('scf', return_wfn=True)
gdma(wfn)
dmavals = variable('DMA DISTRIBUTED MULTIPOLES')
charges = np.array(dmavals)
print(charges)
np.save('SSI-024PHE-089LEU-1-dimer.npy', np.array(charges))--------------------------------------------------------------------------

*** tstart() called on ds3
*** at Sun Apr 26 20:45:08 2020

   => Loading Basis Set <=

    Name: CC-PVDZ
    Role: ORBITAL
    Keyword: BASIS
    atoms 1-7, 16-17  entry C          line   138 file /theoryfs2/ds/metcalf/miniconda2/envs/tf2gpu/share/psi4/basis/cc-pvdz.gbs
    atoms 8-15, 18-23 entry H          line    22 file /theoryfs2/ds/metcalf/miniconda2/envs/tf2gpu/share/psi4/basis/cc-pvdz.gbs

         ---------------------------------------------------------
                                   SCF
               by Justin Turney, Rob Parrish, Andy Simmonett
                          and Daniel G. A. Smith
                              RHF Reference
                        1 Threads,    500 MiB Core
         ---------------------------------------------------------

  ==> Geometry <==

    Molecular point group: c1
    Full point group: C1

    Geometry (in Angstrom), charge = 0, multiplicity = 1:

       Center              X                  Y                   Z               Mass
    ------------   -----------------  -----------------  -----------------  -----------------
         C            1.816470162847     1.144629068510     1.075494146097    12.000000000000
         C           -0.502529837153     0.610629068510     0.325494146097    12.000000000000
         C            0.602470162847     0.283629068510     1.100494146097    12.000000000000
         C           -1.641529837153    -0.187370931490     0.347494146097    12.000000000000
         C            0.549470162847    -0.831370931490     1.932494146097    12.000000000000
         C           -1.688529837153    -1.305370931490     1.175494146097    12.000000000000
         C           -0.597529837153    -1.625370931490     1.972494146097    12.000000000000
         H           -0.488529837153     1.499629068510    -0.286505853903     1.007825032230
         H           -2.495529837153     0.066629068510    -0.267505853903     1.007825032230
         H            1.561470162847     2.090629068510     0.598494146097     1.007825032230
         H            2.573470162847     0.646629068510     0.469494146097     1.007825032230
         H            1.393470162847    -1.117370931490     2.538494146097     1.007825032230
         H           -2.568529837153    -1.932370931490     1.183494146097     1.007825032230
         H           -0.629529837153    -2.500370931490     2.606494146097     1.007825032230
         H            2.228160162847     1.352272068510     2.074194146097     1.007825032230
         C            0.511470162847     0.928629068510    -2.725505853903    12.000000000000
         C            0.549470162847     0.591629068510    -4.204505853903    12.000000000000
         H            1.362470162847     0.480629068510    -2.211505853903     1.007825032230
         H            0.544470162847     2.010629068510    -2.587505853903     1.007825032230
         H           -0.413529837153     0.529629068510    -2.313505853903     1.007825032230
         H            1.484470162847     0.974629068510    -4.612505853903     1.007825032230
         H           -0.301009837153     1.043968068510    -4.735606853903     1.007825032230
         H            0.520560162847    -0.497467631490    -4.356270853903     1.007825032230

  Running in c1 symmetry.

  Rotational constants: A =      0.07279  B =      0.02640  C =      0.02150 [cm^-1]
  Rotational constants: A =   2182.21086  B =    791.56340  C =    644.52733 [MHz]
  Nuclear repulsion =  411.698820655687086

  Charge       = 0
  Multiplicity = 1
  Electrons    = 68
  Nalpha       = 34
  Nbeta        = 34

  ==> Algorithm <==

  SCF Algorithm Type is PK.
  DIIS enabled.
  MOM disabled.
  Fractional occupation disabled.
  Guess Type is SAD.
  Energy threshold   = 1.00e-06
  Density threshold  = 1.00e-10
  Integral threshold = 0.00e+00

  ==> Primary Basis <==

  Basis Set: CC-PVDZ
    Blend: CC-PVDZ
    Number of shells: 96
    Number of basis function: 196
    Number of Cartesian functions: 205
    Spherical Harmonics?: true
    Max angular momentum: 2

  ==> Pre-Iterations <==

   -------------------------------------------------------
    Irrep   Nso     Nmo     Nalpha   Nbeta   Ndocc  Nsocc
   -------------------------------------------------------
     A        196     196       0       0       0       0
   -------------------------------------------------------
    Total     196     196      34      34      34       0
   -------------------------------------------------------

  ==> Integral Setup <==

  Using integral reordering PK algorithm.
  Sizing the integral batches needed.
  Building batch lookup table.
   Calculation information:
      Number of atoms:                  23
      Number of AO shells:              96
      Number of primitives:            268
      Number of atomic orbitals:       205
      Number of basis functions:       196

      Integral cutoff                 1.00e-12
      Number of threads:                 1

	Batch   1 pq = [       0,    9405] index = [             0,44231715] size =     44231715
	Batch   2 pq = [    9405,   13301] index = [      44231715,88464951] size =     44233236
	Batch   3 pq = [   13301,   16290] index = [      88464951,132690195] size =     44225244
	Batch   4 pq = [   16290,   18810] index = [     132690195,176917455] size =     44227260
	Batch   5 pq = [   18810,   19306] index = [     176917455,186370471] size =      9453016
  Task number: 17
  Buffer size: 11059200
  Buffer per thread: 2
  We computed 9790759 shell quartets total.
  Whereas there are 10841496 unique shell quartets.

  ==> DiskJK: Disk-Based J/K Matrices <==

    J tasked:                  Yes
    K tasked:                  Yes
    wK tasked:                  No
    Memory [MiB]:              375
    Schwarz Cutoff:          1E-12

    OpenMP threads:              1

  Minimum eigenvalue in the overlap matrix is 3.0604681314E-04.
  Using Symmetric Orthogonalization.

  SCF Guess: Superposition of Atomic Densities via on-the-fly atomic UHF.

  ==> Iterations <==

                        Total Energy        Delta E     RMS |[F,P]|

   @RHF iter SAD:  -347.97515118810418   -3.47975e+02   0.00000e+00
   @RHF iter   1:  -348.75961004044098   -7.84459e-01   2.91731e-03 DIIS
   @RHF iter   2:  -348.95517373248686   -1.95564e-01   1.20900e-03 DIIS
   @RHF iter   3:  -348.98578896462192   -3.06152e-02   2.62471e-04 DIIS
   @RHF iter   4:  -348.98831090520702   -2.52194e-03   5.80420e-05 DIIS
   @RHF iter   5:  -348.98839647009413   -8.55649e-05   1.95415e-05 DIIS
   @RHF iter   6:  -348.98840583184972   -9.36176e-06   5.14895e-06 DIIS
   @RHF iter   7:  -348.98840662262876   -7.90779e-07   1.33875e-06 DIIS
   @RHF iter   8:  -348.98840669627629   -7.36475e-08   4.31706e-07 DIIS
   @RHF iter   9:  -348.98840671186497   -1.55887e-08   2.14927e-07 DIIS
   @RHF iter  10:  -348.98840671630370   -4.43873e-09   9.62282e-08 DIIS
   @RHF iter  11:  -348.98840671753601   -1.23231e-09   2.94071e-08 DIIS
   @RHF iter  12:  -348.98840671761559   -7.95808e-11   1.07822e-08 DIIS
   @RHF iter  13:  -348.98840671761900   -3.41061e-12   3.99086e-09 DIIS
   @RHF iter  14:  -348.98840671761928   -2.84217e-13   1.08018e-09 DIIS
   @RHF iter  15:  -348.98840671762190   -2.61480e-12   5.40018e-10 DIIS
   @RHF iter  16:  -348.98840671762116    7.38964e-13   2.43902e-10 DIIS
   @RHF iter  17:  -348.98840671762122   -5.68434e-14   8.64103e-11 DIIS
  Energy and wave function converged.

  ==> Post-Iterations <==

    Orbital Energies [Eh]
    ---------------------

    Doubly Occupied:

       1A    -11.236735     2A    -11.233630     3A    -11.233472
       4A    -11.229260     5A    -11.228619     6A    -11.227125
       7A    -11.226626     8A    -11.216058     9A    -11.213430
      10A     -1.152851    11A     -1.046123    12A     -1.020255
      13A     -1.010257    14A     -0.930403    15A     -0.835753
      16A     -0.823039    17A     -0.793750    18A     -0.689940
      19A     -0.631953    20A     -0.629496    21A     -0.600753
      22A     -0.596577    23A     -0.581958    24A     -0.577919
      25A     -0.562624    26A     -0.533753    27A     -0.502923
      28A     -0.489691    29A     -0.486205    30A     -0.482212
      31A     -0.479607    32A     -0.474958    33A     -0.329689
      34A     -0.320246

    Virtual:

      35A      0.134822    36A      0.144570    37A      0.175667
      38A      0.195709    39A      0.198897    40A      0.214903
      41A      0.230924    42A      0.242197    43A      0.252395
      44A      0.270253    45A      0.270907    46A      0.273874
      47A      0.285254    48A      0.304437    49A      0.312502
      50A      0.326649    51A      0.363362    52A      0.382607
      53A      0.414840    54A      0.455004    55A      0.464471
      56A      0.477447    57A      0.510037    58A      0.562334
      59A      0.590726    60A      0.594540    61A      0.600710
      62A      0.614529    63A      0.648788    64A      0.676992
      65A      0.685083    66A      0.696582    67A      0.701691
      68A      0.725648    69A      0.726437    70A      0.744310
      71A      0.749244    72A      0.751981    73A      0.759498
      74A      0.772952    75A      0.785374    76A      0.808202
      77A      0.837839    78A      0.852360    79A      0.861623
      80A      0.866115    81A      0.887151    82A      0.890500
      83A      0.893213    84A      0.898251    85A      0.902704
      86A      0.905892    87A      0.912221    88A      0.922522
      89A      0.944938    90A      0.953347    91A      0.972765
      92A      0.988943    93A      1.005833    94A      1.008163
      95A      1.015479    96A      1.075144    97A      1.115544
      98A      1.133051    99A      1.139460   100A      1.154382
     101A      1.161300   102A      1.167040   103A      1.195861
     104A      1.216021   105A      1.237703   106A      1.253019
     107A      1.259196   108A      1.264620   109A      1.305446
     110A      1.311599   111A      1.336638   112A      1.388546
     113A      1.414073   114A      1.473120   115A      1.479547
     116A      1.527783   117A      1.541781   118A      1.580009
     119A      1.594432   120A      1.618696   121A      1.675576
     122A      1.681644   123A      1.693519   124A      1.704629
     125A      1.735385   126A      1.750594   127A      1.765199
     128A      1.790415   129A      1.819793   130A      1.861306
     131A      1.864321   132A      1.865381   133A      1.890794
     134A      1.899081   135A      1.907092   136A      1.922553
     137A      1.927451   138A      1.934255   139A      1.936069
     140A      1.946278   141A      1.952348   142A      1.955483
     143A      1.965836   144A      1.976273   145A      1.991569
     146A      2.006436   147A      2.018627   148A      2.045963
     149A      2.056667   150A      2.078259   151A      2.090617
     152A      2.103334   153A      2.127143   154A      2.130683
     155A      2.142928   156A      2.165736   157A      2.170385
     158A      2.178458   159A      2.200533   160A      2.262907
     161A      2.276126   162A      2.293054   163A      2.304991
     164A      2.314021   165A      2.323335   166A      2.354690
     167A      2.391965   168A      2.454225   169A      2.465681
     170A      2.474052   171A      2.488796   172A      2.507115
     173A      2.549670   174A      2.556111   175A      2.590562
     176A      2.649226   177A      2.734755   178A      2.754362
     179A      2.765678   180A      2.777381   181A      2.790719
     182A      2.795446   183A      2.831519   184A      2.847531
     185A      2.857219   186A      2.860449   187A      2.876299
     188A      2.959107   189A      2.970073   190A      2.994104
     191A      3.027305   192A      3.037181   193A      3.173828
     194A      3.212645   195A      3.308473   196A      3.979386

    Final Occupation by Irrep:
              A
    DOCC [    34 ]

  @RHF Final Energy:  -348.98840671762122

   => Energetics <=

    Nuclear Repulsion Energy =            411.6988206556870864
    One-Electron Energy =               -1286.1186706693761153
    Two-Electron Energy =                 525.4314432960678687
    Total Energy =                       -348.9884067176211602

Computation Completed

Properties will be evaluated at   0.000000,   0.000000,   0.000000 [a0]

Properties computed using the SCF density matrix

  Nuclear Dipole Moment: [e a0]
     X:     4.4735      Y:     4.3571      Z:   -11.1561

  Electronic Dipole Moment: [e a0]
     X:    -4.3617      Y:    -4.3088      Z:    11.1585

  Dipole Moment: [e a0]
     X:     0.1118      Y:     0.0483      Z:     0.0024     Total:     0.1218

  Dipole Moment: [D]
     X:     0.2841      Y:     0.1227      Z:     0.0061     Total:     0.3095

*** tstop() called on ds3 at Sun Apr 26 20:47:08 2020
Module time:
	user time   =      91.40 seconds =       1.52 minutes
	system time =      34.50 seconds =       0.57 minutes
	total time  =        120 seconds =       2.00 minutes
Total time:
	user time   =      91.40 seconds =       1.52 minutes
	system time =      34.50 seconds =       0.57 minutes
	total time  =        120 seconds =       2.00 minutes
                                     G D M A

                                 by Anthony Stone

                           version 2.2.06, 22 June 2011

               Distributed Multipoles from Gaussian wavefunctions

Starting at 20:47:9 on 26 Apr 2020

Using SCF density matrix from file ./SSI/SSI-024PHE-089LEU-1-dimer.test.10070.fchk

                         Distributed Multipole Analysis

Standard DMA

Positions and radii in angstrom
Multipole moments in atomic units, ea_0^k for rank k

C          x =  1.816470  y =  1.144629  z =  1.075494 angstrom
           Maximum rank =  0   Radius =  0.650 angstrom
                   Q00  =  -0.200828

C          x = -0.502530  y =  0.610629  z =  0.325494 angstrom
           Maximum rank =  0   Radius =  0.650 angstrom
                   Q00  =  -0.008880

C          x =  0.602470  y =  0.283629  z =  1.100494 angstrom
           Maximum rank =  0   Radius =  0.650 angstrom
                   Q00  =  -0.089185

C          x = -1.641530  y = -0.187371  z =  0.347494 angstrom
           Maximum rank =  0   Radius =  0.650 angstrom
                   Q00  =  -0.075033

C          x =  0.549470  y = -0.831371  z =  1.932494 angstrom
           Maximum rank =  0   Radius =  0.650 angstrom
                   Q00  =  -0.058903

C          x = -1.688530  y = -1.305371  z =  1.175494 angstrom
           Maximum rank =  0   Radius =  0.650 angstrom
                   Q00  =  -0.087335

C          x = -0.597530  y = -1.625371  z =  1.972494 angstrom
           Maximum rank =  0   Radius =  0.650 angstrom
                   Q00  =  -0.078714

H          x = -0.488530  y =  1.499629  z = -0.286506 angstrom
           Maximum rank =  0   Radius =  0.325 angstrom
                   Q00  =   0.063669

H          x = -2.495530  y =  0.066629  z = -0.267506 angstrom
           Maximum rank =  0   Radius =  0.325 angstrom
                   Q00  =   0.063459

H          x =  1.561470  y =  2.090629  z =  0.598494 angstrom
           Maximum rank =  0   Radius =  0.325 angstrom
                   Q00  =   0.095137

H          x =  2.573470  y =  0.646629  z =  0.469494 angstrom
           Maximum rank =  0   Radius =  0.325 angstrom
                   Q00  =   0.101019

H          x =  1.393470  y = -1.117371  z =  2.538494 angstrom
           Maximum rank =  0   Radius =  0.325 angstrom
                   Q00  =   0.054826

H          x = -2.568530  y = -1.932371  z =  1.183494 angstrom
           Maximum rank =  0   Radius =  0.325 angstrom
                   Q00  =   0.059859

H          x = -0.629530  y = -2.500371  z =  2.606494 angstrom
           Maximum rank =  0   Radius =  0.325 angstrom
                   Q00  =   0.063957

H          x =  2.228160  y =  1.352272  z =  2.074194 angstrom
           Maximum rank =  0   Radius =  0.325 angstrom
                   Q00  =   0.100005

C          x =  0.511470  y =  0.928629  z = -2.725506 angstrom
           Maximum rank =  0   Radius =  0.650 angstrom
                   Q00  =  -0.241559

C          x =  0.549470  y =  0.591629  z = -4.204506 angstrom
           Maximum rank =  0   Radius =  0.650 angstrom
                   Q00  =  -0.227053

H          x =  1.362470  y =  0.480629  z = -2.211506 angstrom
           Maximum rank =  0   Radius =  0.325 angstrom
                   Q00  =   0.082122

H          x =  0.544470  y =  2.010629  z = -2.587506 angstrom
           Maximum rank =  0   Radius =  0.325 angstrom
                   Q00  =   0.071201

H          x = -0.413530  y =  0.529629  z = -2.313506 angstrom
           Maximum rank =  0   Radius =  0.325 angstrom
                   Q00  =   0.080914

H          x =  1.484470  y =  0.974629  z = -4.612506 angstrom
           Maximum rank =  0   Radius =  0.325 angstrom
                   Q00  =   0.075128

H          x = -0.301010  y =  1.043968  z = -4.735607 angstrom
           Maximum rank =  0   Radius =  0.325 angstrom
                   Q00  =   0.077024

H          x =  0.520560  y = -0.497468  z = -4.356271 angstrom
           Maximum rank =  0   Radius =  0.325 angstrom
                   Q00  =   0.079173

Total multipoles referred to origin at
           x =   0.000000,  y =    0.000000,  z =    0.000000 angstrom
                   Q00  =  -0.000000

Finished at 20:47:9 on 26 Apr 2020

  DMA results are available in the Python driver through the
	  variable('DMA DISTRIBUTED MULTIPOLES')
  and
	  variable('DMA TOTAL MULTIPOLES')
  commands.

    Psi4 stopped on: Sunday, 26 April 2020 08:47PM
    Psi4 wall time for execution: 0:02:01.02

*** Psi4 exiting successfully. Buy a developer a beer!
