                               Psi4 1.3.2 release

  ==> Input File <==

--------------------------------------------------------------------------
import numpy as np
set {scf_type pk
basis cc-pvdz
d_convergence 10
gdma_switch   0
gdma_limit    0
gdma_origin   [ 0.0,  0.0,  0.0 ]
}
molecule test {
    units Angstrom
    0 1
    --
    0 1
    C               -0.351266137589554    -2.740482313988879     1.006898383537807
    C               -1.008266137589554     0.472517686011121    -1.721101616462193
    C               -2.080266137589554    -0.081482313988879    -1.065101616462192
    C                0.277733862410446    -0.048482313988879    -1.523101616462193
    C               -1.866266137589554    -1.132482313988879    -0.177101616462193
    C                0.487733862410446    -1.097482313988879    -0.637101616462193
    C               -0.580266137589554    -1.633482313988879     0.048898383537807
    H               -1.157266137589554     1.298517686011121    -2.401101616462193
    H               -3.077266137589554     0.304517686011121    -1.227101616462193
    H                1.115733862410446     0.390517686011121    -2.046101616462193
    H               -2.710266137589554    -1.558482313988879     0.347898383537807
    H                1.484733862410446    -1.479482313988879    -0.472101616462193
    H               -0.865266137589554    -2.493482313988879     1.934898383537808
    H                0.713733862410446    -2.827482313988879     1.224898383537807
    H               -0.741326137589554    -3.705991313988879     0.652433383537807
    C                1.040733862410446     2.211517686011121     1.027898383537807
    C                2.369733862410446     2.449517686011121     0.336898383537807
    C                1.109733862410446     1.167517686011121     2.093898383537808
    H                0.700733862410446     3.147517686011121     1.477898383537807
    H                0.298733862410446     1.919517686011121     0.285898383537807
    H                2.698733862410446     1.509517686011121    -0.115101616462193
    H                1.446733862410446     0.252517686011121     1.621898383537807
    H                1.798733862410446     1.456517686011121     2.888898383537807
    H                3.128874862410446     2.792690686011121     1.055185383537807
    H                2.208282862410446     3.156859686011121    -0.489902616462193
    H                0.108334162410446     0.989779686011121     2.512954383537807

}
e, wfn = energy('scf', return_wfn=True)
gdma(wfn)
dmavals = variable('DMA DISTRIBUTED MULTIPOLES')
charges = np.array(dmavals)
print(charges)
np.save('SSI-041PHE-094LYS-2-dimer.npy', np.array(charges))--------------------------------------------------------------------------

*** tstart() called on ds3
*** at Mon Apr 27 22:06:59 2020

   => Loading Basis Set <=

    Name: CC-PVDZ
    Role: ORBITAL
    Keyword: BASIS
    atoms 1-7, 16-18  entry C          line   138 file /theoryfs2/ds/metcalf/miniconda2/envs/tf2gpu/share/psi4/basis/cc-pvdz.gbs
    atoms 8-15, 19-26 entry H          line    22 file /theoryfs2/ds/metcalf/miniconda2/envs/tf2gpu/share/psi4/basis/cc-pvdz.gbs

         ---------------------------------------------------------
                                   SCF
               by Justin Turney, Rob Parrish, Andy Simmonett
                          and Daniel G. A. Smith
                              RHF Reference
                        1 Threads,    500 MiB Core
         ---------------------------------------------------------

  ==> Geometry <==

    Molecular point group: c1
    Full point group: C1

    Geometry (in Angstrom), charge = 0, multiplicity = 1:

       Center              X                  Y                   Z               Mass
    ------------   -----------------  -----------------  -----------------  -----------------
         C           -0.351266137590    -2.740482313989     1.006898383538    12.000000000000
         C           -1.008266137590     0.472517686011    -1.721101616462    12.000000000000
         C           -2.080266137590    -0.081482313989    -1.065101616462    12.000000000000
         C            0.277733862410    -0.048482313989    -1.523101616462    12.000000000000
         C           -1.866266137590    -1.132482313989    -0.177101616462    12.000000000000
         C            0.487733862410    -1.097482313989    -0.637101616462    12.000000000000
         C           -0.580266137590    -1.633482313989     0.048898383538    12.000000000000
         H           -1.157266137590     1.298517686011    -2.401101616462     1.007825032230
         H           -3.077266137590     0.304517686011    -1.227101616462     1.007825032230
         H            1.115733862410     0.390517686011    -2.046101616462     1.007825032230
         H           -2.710266137590    -1.558482313989     0.347898383538     1.007825032230
         H            1.484733862410    -1.479482313989    -0.472101616462     1.007825032230
         H           -0.865266137590    -2.493482313989     1.934898383538     1.007825032230
         H            0.713733862410    -2.827482313989     1.224898383538     1.007825032230
         H           -0.741326137590    -3.705991313989     0.652433383538     1.007825032230
         C            1.040733862410     2.211517686011     1.027898383538    12.000000000000
         C            2.369733862410     2.449517686011     0.336898383538    12.000000000000
         C            1.109733862410     1.167517686011     2.093898383538    12.000000000000
         H            0.700733862410     3.147517686011     1.477898383538     1.007825032230
         H            0.298733862410     1.919517686011     0.285898383538     1.007825032230
         H            2.698733862410     1.509517686011    -0.115101616462     1.007825032230
         H            1.446733862410     0.252517686011     1.621898383538     1.007825032230
         H            1.798733862410     1.456517686011     2.888898383538     1.007825032230
         H            3.128874862410     2.792690686011     1.055185383538     1.007825032230
         H            2.208282862410     3.156859686011    -0.489902616462     1.007825032230
         H            0.108334162410     0.989779686011     2.512954383538     1.007825032230

  Running in c1 symmetry.

  Rotational constants: A =      0.05511  B =      0.02722  C =      0.02260 [cm^-1]
  Rotational constants: A =   1652.08282  B =    816.11297  C =    677.52747 [MHz]
  Nuclear repulsion =  510.534266107844360

  Charge       = 0
  Multiplicity = 1
  Electrons    = 76
  Nalpha       = 38
  Nbeta        = 38

  ==> Algorithm <==

  SCF Algorithm Type is PK.
  DIIS enabled.
  MOM disabled.
  Fractional occupation disabled.
  Guess Type is SAD.
  Energy threshold   = 1.00e-06
  Density threshold  = 1.00e-10
  Integral threshold = 0.00e+00

  ==> Primary Basis <==

  Basis Set: CC-PVDZ
    Blend: CC-PVDZ
    Number of shells: 108
    Number of basis function: 220
    Number of Cartesian functions: 230
    Spherical Harmonics?: true
    Max angular momentum: 2

  ==> Pre-Iterations <==

   -------------------------------------------------------
    Irrep   Nso     Nmo     Nalpha   Nbeta   Ndocc  Nsocc
   -------------------------------------------------------
     A        220     220       0       0       0       0
   -------------------------------------------------------
    Total     220     220      38      38      38       0
   -------------------------------------------------------

  ==> Integral Setup <==

  Using integral reordering PK algorithm.
  Sizing the integral batches needed.
  Building batch lookup table.
   Calculation information:
      Number of atoms:                  26
      Number of AO shells:             108
      Number of primitives:            300
      Number of atomic orbitals:       230
      Number of basis functions:       220

      Integral cutoff                 1.00e-12
      Number of threads:                 1

	Batch   1 pq = [       0,    9405] index = [             0,44231715] size =     44231715
	Batch   2 pq = [    9405,   13301] index = [      44231715,88464951] size =     44233236
	Batch   3 pq = [   13301,   16290] index = [      88464951,132690195] size =     44225244
	Batch   4 pq = [   16290,   18810] index = [     132690195,176917455] size =     44227260
	Batch   5 pq = [   18810,   21030] index = [     176917455,221140965] size =     44223510
	Batch   6 pq = [   21030,   23037] index = [     221140965,265363203] size =     44222238
	Batch   7 pq = [   23037,   24310] index = [     265363203,295500205] size =     30137002
  Task number: 27
  Buffer size: 11059200
  Buffer per thread: 2
  We computed 18057136 shell quartets total.
  Whereas there are 17325441 unique shell quartets.
     4.22 percent of shell quartets recomputed by reordering.

  ==> DiskJK: Disk-Based J/K Matrices <==

    J tasked:                  Yes
    K tasked:                  Yes
    wK tasked:                  No
    Memory [MiB]:              375
    Schwarz Cutoff:          1E-12

    OpenMP threads:              1

  Minimum eigenvalue in the overlap matrix is 3.0163261593E-04.
  Using Symmetric Orthogonalization.

  SCF Guess: Superposition of Atomic Densities via on-the-fly atomic UHF.

  ==> Iterations <==

                        Total Energy        Delta E     RMS |[F,P]|

   @RHF iter SAD:  -387.08781584457296   -3.87088e+02   0.00000e+00
   @RHF iter   1:  -387.75874819808740   -6.70932e-01   2.81078e-03 DIIS
   @RHF iter   2:  -387.98305922232760   -2.24311e-01   1.21081e-03 DIIS
   @RHF iter   3:  -388.02124963826770   -3.81904e-02   2.57590e-04 DIIS
   @RHF iter   4:  -388.02423287600817   -2.98324e-03   5.96392e-05 DIIS
   @RHF iter   5:  -388.02434449681584   -1.11621e-04   1.86059e-05 DIIS
   @RHF iter   6:  -388.02435521506578   -1.07182e-05   5.36071e-06 DIIS
   @RHF iter   7:  -388.02435622467112   -1.00961e-06   1.10835e-06 DIIS
   @RHF iter   8:  -388.02435627504178   -5.03707e-08   2.42736e-07 DIIS
   @RHF iter   9:  -388.02435627860496   -3.56317e-09   8.51788e-08 DIIS
   @RHF iter  10:  -388.02435627896284   -3.57886e-10   3.45018e-08 DIIS
   @RHF iter  11:  -388.02435627903918   -7.63407e-11   1.19945e-08 DIIS
   @RHF iter  12:  -388.02435627904958   -1.04023e-11   5.09373e-09 DIIS
   @RHF iter  13:  -388.02435627905493   -5.34328e-12   2.47874e-09 DIIS
   @RHF iter  14:  -388.02435627905896   -4.03588e-12   8.21235e-10 DIIS
   @RHF iter  15:  -388.02435627905629    2.67164e-12   2.66509e-10 DIIS
   @RHF iter  16:  -388.02435627905589    3.97904e-13   7.77064e-11 DIIS
  Energy and wave function converged.

  ==> Post-Iterations <==

    Orbital Energies [Eh]
    ---------------------

    Doubly Occupied:

       1A    -11.238884     2A    -11.236768     3A    -11.235900
       4A    -11.231570     5A    -11.230807     6A    -11.229429
       7A    -11.227641     8A    -11.211498     9A    -11.204135
      10A    -11.203333    11A     -1.158049    12A     -1.053952
      13A     -1.051151    14A     -1.013982    15A     -0.933270
      16A     -0.919039    17A     -0.828686    18A     -0.796555
      19A     -0.784754    20A     -0.693520    21A     -0.636068
      22A     -0.631999    23A     -0.624852    24A     -0.591056
      25A     -0.585586    26A     -0.578254    27A     -0.564779
      28A     -0.544918    29A     -0.537063    30A     -0.525691
      31A     -0.490961    32A     -0.486864    33A     -0.484382
      34A     -0.465537    35A     -0.459088    36A     -0.455551
      37A     -0.335841    38A     -0.321072

    Virtual:

      39A      0.130332    40A      0.141346    41A      0.171947
      42A      0.193391    43A      0.203259    44A      0.209001
      45A      0.234846    46A      0.240513    47A      0.248276
      48A      0.256984    49A      0.263449    50A      0.269467
      51A      0.284214    52A      0.286742    53A      0.302089
      54A      0.303092    55A      0.321042    56A      0.332715
      57A      0.368891    58A      0.379937    59A      0.387106
      60A      0.441199    61A      0.451172    62A      0.462320
      63A      0.480517    64A      0.502284    65A      0.566885
      66A      0.576227    67A      0.593087    68A      0.604733
      69A      0.607412    70A      0.614014    71A      0.634258
      72A      0.662256    73A      0.685372    74A      0.698224
      75A      0.705032    76A      0.734119    77A      0.736325
      78A      0.744845    79A      0.756794    80A      0.759566
      81A      0.767980    82A      0.778952    83A      0.797551
      84A      0.818480    85A      0.843977    86A      0.855471
      87A      0.857357    88A      0.863146    89A      0.866439
      90A      0.877702    91A      0.892234    92A      0.892786
      93A      0.900945    94A      0.905648    95A      0.912635
      96A      0.920897    97A      0.927329    98A      0.936483
      99A      0.941482   100A      0.951502   101A      0.952795
     102A      0.965065   103A      0.987049   104A      1.001521
     105A      1.013005   106A      1.028994   107A      1.059638
     108A      1.068916   109A      1.130277   110A      1.130910
     111A      1.141540   112A      1.156511   113A      1.160035
     114A      1.186589   115A      1.200688   116A      1.222383
     117A      1.238290   118A      1.255175   119A      1.261184
     120A      1.294350   121A      1.302011   122A      1.313638
     123A      1.322844   124A      1.358206   125A      1.400705
     126A      1.414240   127A      1.488669   128A      1.498011
     129A      1.506883   130A      1.543657   131A      1.554015
     132A      1.561975   133A      1.607648   134A      1.649629
     135A      1.672861   136A      1.686569   137A      1.687670
     138A      1.705086   139A      1.712386   140A      1.739186
     141A      1.757920   142A      1.778984   143A      1.799200
     144A      1.822967   145A      1.854029   146A      1.867836
     147A      1.881716   148A      1.884747   149A      1.897009
     150A      1.910244   151A      1.918425   152A      1.929414
     153A      1.932434   154A      1.938202   155A      1.943731
     156A      1.945416   157A      1.959365   158A      1.970354
     159A      1.980044   160A      1.985966   161A      1.994795
     162A      2.004179   163A      2.014269   164A      2.024280
     165A      2.029164   166A      2.035159   167A      2.051853
     168A      2.072284   169A      2.086364   170A      2.095213
     171A      2.124761   172A      2.137266   173A      2.153701
     174A      2.159908   175A      2.170576   176A      2.174755
     177A      2.191190   178A      2.204513   179A      2.245407
     180A      2.276515   181A      2.292076   182A      2.295625
     183A      2.302997   184A      2.320484   185A      2.331550
     186A      2.340099   187A      2.370726   188A      2.374028
     189A      2.457343   190A      2.482147   191A      2.502632
     192A      2.526792   193A      2.546614   194A      2.566719
     195A      2.603779   196A      2.633946   197A      2.635336
     198A      2.640748   199A      2.741884   200A      2.753035
     201A      2.756541   202A      2.775721   203A      2.786797
     204A      2.801269   205A      2.813725   206A      2.825479
     207A      2.829250   208A      2.860087   209A      2.880136
     210A      2.949511   211A      2.978241   212A      2.993430
     213A      3.014752   214A      3.030966   215A      3.046463
     216A      3.111401   217A      3.170175   218A      3.215689
     219A      3.313447   220A      3.989374

    Final Occupation by Irrep:
              A
    DOCC [    38 ]

  @RHF Final Energy:  -388.02435627905589

   => Energetics <=

    Nuclear Repulsion Energy =            510.5342661078443598
    One-Electron Energy =               -1535.5122731912588279
    Two-Electron Energy =                 636.9536508043586309
    Total Energy =                       -388.0243562790558371

Computation Completed

Properties will be evaluated at   0.000000,   0.000000,   0.000000 [a0]

Properties computed using the SCF density matrix

  Nuclear Dipole Moment: [e a0]
     X:     6.7048      Y:     4.8313      Z:     6.7980

  Electronic Dipole Moment: [e a0]
     X:    -6.8180      Y:    -4.9813      Z:    -6.7688

  Dipole Moment: [e a0]
     X:    -0.1132      Y:    -0.1500      Z:     0.0292     Total:     0.1902

  Dipole Moment: [D]
     X:    -0.2878      Y:    -0.3814      Z:     0.0743     Total:     0.4835

*** tstop() called on ds3 at Mon Apr 27 22:09:44 2020
Module time:
	user time   =     126.23 seconds =       2.10 minutes
	system time =      41.36 seconds =       0.69 minutes
	total time  =        165 seconds =       2.75 minutes
Total time:
	user time   =     126.23 seconds =       2.10 minutes
	system time =      41.36 seconds =       0.69 minutes
	total time  =        165 seconds =       2.75 minutes
                                     G D M A

                                 by Anthony Stone

                           version 2.2.06, 22 June 2011

               Distributed Multipoles from Gaussian wavefunctions

Starting at 22:9:44 on 27 Apr 2020

Using SCF density matrix from file ./SSI/SSI-041PHE-094LYS-2-dimer.test.32234.fchk

                         Distributed Multipole Analysis

Standard DMA

Positions and radii in angstrom
Multipole moments in atomic units, ea_0^k for rank k

C          x = -0.351266  y = -2.740482  z =  1.006898 angstrom
           Maximum rank =  0   Radius =  0.650 angstrom
                   Q00  =  -0.199983

C          x = -1.008266  y =  0.472518  z = -1.721102 angstrom
           Maximum rank =  0   Radius =  0.650 angstrom
                   Q00  =  -0.092166

C          x = -2.080266  y = -0.081482  z = -1.065102 angstrom
           Maximum rank =  0   Radius =  0.650 angstrom
                   Q00  =  -0.067634

C          x =  0.277734  y = -0.048482  z = -1.523102 angstrom
           Maximum rank =  0   Radius =  0.650 angstrom
                   Q00  =  -0.062024

C          x = -1.866266  y = -1.132482  z = -0.177102 angstrom
           Maximum rank =  0   Radius =  0.650 angstrom
                   Q00  =  -0.003547

C          x =  0.487734  y = -1.097482  z = -0.637102 angstrom
           Maximum rank =  0   Radius =  0.650 angstrom
                   Q00  =  -0.093030

C          x = -0.580266  y = -1.633482  z =  0.048898 angstrom
           Maximum rank =  0   Radius =  0.650 angstrom
                   Q00  =  -0.084731

H          x = -1.157266  y =  1.298518  z = -2.401102 angstrom
           Maximum rank =  0   Radius =  0.325 angstrom
                   Q00  =   0.060362

H          x = -3.077266  y =  0.304518  z = -1.227102 angstrom
           Maximum rank =  0   Radius =  0.325 angstrom
                   Q00  =   0.064905

H          x =  1.115734  y =  0.390518  z = -2.046102 angstrom
           Maximum rank =  0   Radius =  0.325 angstrom
                   Q00  =   0.065728

H          x = -2.710266  y = -1.558482  z =  0.347898 angstrom
           Maximum rank =  0   Radius =  0.325 angstrom
                   Q00  =   0.055092

H          x =  1.484734  y = -1.479482  z = -0.472102 angstrom
           Maximum rank =  0   Radius =  0.325 angstrom
                   Q00  =   0.058364

H          x = -0.865266  y = -2.493482  z =  1.934898 angstrom
           Maximum rank =  0   Radius =  0.325 angstrom
                   Q00  =   0.098561

H          x =  0.713734  y = -2.827482  z =  1.224898 angstrom
           Maximum rank =  0   Radius =  0.325 angstrom
                   Q00  =   0.096390

H          x = -0.741326  y = -3.705991  z =  0.652433 angstrom
           Maximum rank =  0   Radius =  0.325 angstrom
                   Q00  =   0.103578

C          x =  1.040734  y =  2.211518  z =  1.027898 angstrom
           Maximum rank =  0   Radius =  0.650 angstrom
                   Q00  =  -0.070983

C          x =  2.369734  y =  2.449518  z =  0.336898 angstrom
           Maximum rank =  0   Radius =  0.650 angstrom
                   Q00  =  -0.245552

C          x =  1.109734  y =  1.167518  z =  2.093898 angstrom
           Maximum rank =  0   Radius =  0.650 angstrom
                   Q00  =  -0.223442

H          x =  0.700734  y =  3.147518  z =  1.477898 angstrom
           Maximum rank =  0   Radius =  0.325 angstrom
                   Q00  =   0.033967

H          x =  0.298734  y =  1.919518  z =  0.285898 angstrom
           Maximum rank =  0   Radius =  0.325 angstrom
                   Q00  =   0.065359

H          x =  2.698734  y =  1.509518  z = -0.115102 angstrom
           Maximum rank =  0   Radius =  0.325 angstrom
                   Q00  =   0.066216

H          x =  1.446734  y =  0.252518  z =  1.621898 angstrom
           Maximum rank =  0   Radius =  0.325 angstrom
                   Q00  =   0.071342

H          x =  1.798734  y =  1.456518  z =  2.888898 angstrom
           Maximum rank =  0   Radius =  0.325 angstrom
                   Q00  =   0.068033

H          x =  3.128875  y =  2.792691  z =  1.055185 angstrom
           Maximum rank =  0   Radius =  0.325 angstrom
                   Q00  =   0.076591

H          x =  2.208283  y =  3.156860  z = -0.489903 angstrom
           Maximum rank =  0   Radius =  0.325 angstrom
                   Q00  =   0.078453

H          x =  0.108334  y =  0.989780  z =  2.512954 angstrom
           Maximum rank =  0   Radius =  0.325 angstrom
                   Q00  =   0.080150

Total multipoles referred to origin at
           x =   0.000000,  y =    0.000000,  z =    0.000000 angstrom
                   Q00  =  -0.000000

Finished at 22:9:44 on 27 Apr 2020

  DMA results are available in the Python driver through the
	  variable('DMA DISTRIBUTED MULTIPOLES')
  and
	  variable('DMA TOTAL MULTIPOLES')
  commands.

    Psi4 stopped on: Monday, 27 April 2020 10:09PM
    Psi4 wall time for execution: 0:02:45.16

*** Psi4 exiting successfully. Buy a developer a beer!
