                               Psi4 1.3.2 release

  ==> Input File <==

--------------------------------------------------------------------------
import numpy as np
set {scf_type pk
basis cc-pvdz
d_convergence 10
gdma_switch   0
gdma_limit    0
gdma_origin   [ 0.0,  0.0,  0.0 ]
}
molecule test {
    units Angstrom
    0 1
    --
    0 1
    C               -1.542664837240614    -1.832747957533330     2.013033239923687
    C               -2.451664837240614    -3.026747957533330     2.465033239923688
    H               -2.052664837240614    -0.890747957533330     2.187033239923687
    H               -0.608664837240614    -1.846747957533330     2.577033239923687
    H               -1.311664837240614    -1.919747957533330     0.953033239923687
    H               -1.937664837240614    -3.949747957533330     2.207033239923687
    H               -3.432744837240614    -3.017390957533330     1.967653239923687
    H               -2.558174837240614    -3.020226957533330     3.559845239923687
    C                0.392335162759386     0.361252042466670    -0.157966760076313
    C                1.134335162759386     0.903252042466670     1.080033239923687
    C                0.798335162759386     1.032252042466670    -1.463966760076313
    O                1.956335162759386     1.005252042466670    -1.858966760076313
    N               -0.152664837240614     1.635252042466670    -2.149966760076312
    H                0.608335162759386    -0.701747957533330    -0.255966760076313
    H               -0.683664837240614     0.456252042466670    -0.003966760076313
    H                2.214335162759386     0.867252042466670     0.924033239923687
    H                0.901335162759386     0.222252042466670     1.899033239923687
    H                0.099335162759386     2.054252042466670    -3.031966760076313
    H               -1.104664837240614     1.662252042466670    -1.814966760076313
    H                0.815645162759386     1.923357042466670     1.340455239923687

}
e, wfn = energy('scf', return_wfn=True)
gdma(wfn)
dmavals = variable('DMA DISTRIBUTED MULTIPOLES')
charges = np.array(dmavals)
print(charges)
np.save('SSI-083LEU-101GLN-1-dimer.npy', np.array(charges))--------------------------------------------------------------------------

*** tstart() called on ds3
*** at Sun Apr 26 17:19:15 2020

   => Loading Basis Set <=

    Name: CC-PVDZ
    Role: ORBITAL
    Keyword: BASIS
    atoms 1-2, 9-11  entry C          line   138 file /theoryfs2/ds/metcalf/miniconda2/envs/tf2gpu/share/psi4/basis/cc-pvdz.gbs
    atoms 3-8, 14-20 entry H          line    22 file /theoryfs2/ds/metcalf/miniconda2/envs/tf2gpu/share/psi4/basis/cc-pvdz.gbs
    atoms 12         entry O          line   198 file /theoryfs2/ds/metcalf/miniconda2/envs/tf2gpu/share/psi4/basis/cc-pvdz.gbs
    atoms 13         entry N          line   168 file /theoryfs2/ds/metcalf/miniconda2/envs/tf2gpu/share/psi4/basis/cc-pvdz.gbs

         ---------------------------------------------------------
                                   SCF
               by Justin Turney, Rob Parrish, Andy Simmonett
                          and Daniel G. A. Smith
                              RHF Reference
                        1 Threads,    500 MiB Core
         ---------------------------------------------------------

  ==> Geometry <==

    Molecular point group: c1
    Full point group: C1

    Geometry (in Angstrom), charge = 0, multiplicity = 1:

       Center              X                  Y                   Z               Mass
    ------------   -----------------  -----------------  -----------------  -----------------
         C           -1.542664837241    -1.832747957533     2.013033239924    12.000000000000
         C           -2.451664837241    -3.026747957533     2.465033239924    12.000000000000
         H           -2.052664837241    -0.890747957533     2.187033239924     1.007825032230
         H           -0.608664837241    -1.846747957533     2.577033239924     1.007825032230
         H           -1.311664837241    -1.919747957533     0.953033239924     1.007825032230
         H           -1.937664837241    -3.949747957533     2.207033239924     1.007825032230
         H           -3.432744837241    -3.017390957533     1.967653239924     1.007825032230
         H           -2.558174837241    -3.020226957533     3.559845239924     1.007825032230
         C            0.392335162759     0.361252042467    -0.157966760076    12.000000000000
         C            1.134335162759     0.903252042467     1.080033239924    12.000000000000
         C            0.798335162759     1.032252042467    -1.463966760076    12.000000000000
         O            1.956335162759     1.005252042467    -1.858966760076    15.994914619570
         N           -0.152664837241     1.635252042467    -2.149966760076    14.003074004430
         H            0.608335162759    -0.701747957533    -0.255966760076     1.007825032230
         H           -0.683664837241     0.456252042467    -0.003966760076     1.007825032230
         H            2.214335162759     0.867252042467     0.924033239924     1.007825032230
         H            0.901335162759     0.222252042467     1.899033239924     1.007825032230
         H            0.099335162759     2.054252042467    -3.031966760076     1.007825032230
         H           -1.104664837241     1.662252042467    -1.814966760076     1.007825032230
         H            0.815645162759     1.923357042467     1.340455239924     1.007825032230

  Running in c1 symmetry.

  Rotational constants: A =      0.14238  B =      0.02239  C =      0.02079 [cm^-1]
  Rotational constants: A =   4268.54062  B =    671.13821  C =    623.26799 [MHz]
  Nuclear repulsion =  293.259381611093374

  Charge       = 0
  Multiplicity = 1
  Electrons    = 58
  Nalpha       = 29
  Nbeta        = 29

  ==> Algorithm <==

  SCF Algorithm Type is PK.
  DIIS enabled.
  MOM disabled.
  Fractional occupation disabled.
  Guess Type is SAD.
  Energy threshold   = 1.00e-06
  Density threshold  = 1.00e-10
  Integral threshold = 0.00e+00

  ==> Primary Basis <==

  Basis Set: CC-PVDZ
    Blend: CC-PVDZ
    Number of shells: 81
    Number of basis function: 163
    Number of Cartesian functions: 170
    Spherical Harmonics?: true
    Max angular momentum: 2

  ==> Pre-Iterations <==

   -------------------------------------------------------
    Irrep   Nso     Nmo     Nalpha   Nbeta   Ndocc  Nsocc
   -------------------------------------------------------
     A        163     163       0       0       0       0
   -------------------------------------------------------
    Total     163     163      29      29      29       0
   -------------------------------------------------------

  ==> Integral Setup <==

  Using integral reordering PK algorithm.
  Sizing the integral batches needed.
  Building batch lookup table.
   Calculation information:
      Number of atoms:                  20
      Number of AO shells:              81
      Number of primitives:            219
      Number of atomic orbitals:       170
      Number of basis functions:       163

      Integral cutoff                 1.00e-12
      Number of threads:                 1

	Batch   1 pq = [       0,    9405] index = [             0,44231715] size =     44231715
	Batch   2 pq = [    9405,   13366] index = [      44231715,89331661] size =     45099946
  Task number: 9
  Buffer size: 11059200
  Buffer per thread: 2
  We computed 4405373 shell quartets total.
  Whereas there are 5516181 unique shell quartets.

  ==> DiskJK: Disk-Based J/K Matrices <==

    J tasked:                  Yes
    K tasked:                  Yes
    wK tasked:                  No
    Memory [MiB]:              375
    Schwarz Cutoff:          1E-12

    OpenMP threads:              1

  Minimum eigenvalue in the overlap matrix is 3.5104882093E-03.
  Using Symmetric Orthogonalization.

  SCF Guess: Superposition of Atomic Densities via on-the-fly atomic UHF.

  ==> Iterations <==

                        Total Energy        Delta E     RMS |[F,P]|

   @RHF iter SAD:  -324.88136474625173   -3.24881e+02   0.00000e+00
   @RHF iter   1:  -326.01250664878393   -1.13114e+00   4.07550e-03 DIIS
   @RHF iter   2:  -326.20585387808177   -1.93347e-01   2.23129e-03 DIIS
   @RHF iter   3:  -326.25793232531430   -5.20784e-02   4.80649e-04 DIIS
   @RHF iter   4:  -326.26161186499911   -3.67954e-03   1.97387e-04 DIIS
   @RHF iter   5:  -326.26224722537120   -6.35360e-04   2.86763e-05 DIIS
   @RHF iter   6:  -326.26227781327287   -3.05879e-05   1.15568e-05 DIIS
   @RHF iter   7:  -326.26228177020130   -3.95693e-06   4.88774e-06 DIIS
   @RHF iter   8:  -326.26228264677547   -8.76574e-07   1.85277e-06 DIIS
   @RHF iter   9:  -326.26228278103883   -1.34263e-07   4.11109e-07 DIIS
   @RHF iter  10:  -326.26228278666389   -5.62505e-09   1.28479e-07 DIIS
   @RHF iter  11:  -326.26228278711676   -4.52872e-10   3.43233e-08 DIIS
   @RHF iter  12:  -326.26228278715479   -3.80282e-11   9.57639e-09 DIIS
   @RHF iter  13:  -326.26228278716002   -5.22959e-12   2.71768e-09 DIIS
   @RHF iter  14:  -326.26228278715951    5.11591e-13   1.25345e-09 DIIS
   @RHF iter  15:  -326.26228278715996   -4.54747e-13   6.28692e-10 DIIS
   @RHF iter  16:  -326.26228278716047   -5.11591e-13   1.78758e-10 DIIS
   @RHF iter  17:  -326.26228278716030    1.70530e-13   5.46485e-11 DIIS
  Energy and wave function converged.

  ==> Post-Iterations <==

    Orbital Energies [Eh]
    ---------------------

    Doubly Occupied:

       1A    -20.498358     2A    -15.586789     3A    -11.340012
       4A    -11.239787     5A    -11.229181     6A    -11.227901
       7A    -11.227220     8A     -1.367739     9A     -1.215660
      10A     -1.044556    11A     -1.016218    12A     -0.888502
      13A     -0.848258    14A     -0.787256    15A     -0.724110
      16A     -0.662680    17A     -0.617633    18A     -0.602082
      19A     -0.599383    20A     -0.584204    21A     -0.568791
      22A     -0.520113    23A     -0.505253    24A     -0.500294
      25A     -0.498300    26A     -0.494752    27A     -0.492127
      28A     -0.403429    29A     -0.400589

    Virtual:

      30A      0.158917    31A      0.181216    32A      0.191659
      33A      0.213827    34A      0.225071    35A      0.229683
      36A      0.242175    37A      0.247147    38A      0.267458
      39A      0.272002    40A      0.279160    41A      0.303501
      42A      0.309994    43A      0.329670    44A      0.364974
      45A      0.387856    46A      0.439620    47A      0.466511
      48A      0.565668    49A      0.585192    50A      0.589473
      51A      0.608783    52A      0.618181    53A      0.638018
      54A      0.664698    55A      0.674229    56A      0.690604
      57A      0.701841    58A      0.747402    59A      0.768117
      60A      0.790006    61A      0.823275    62A      0.844452
      63A      0.868771    64A      0.879136    65A      0.885937
      66A      0.887343    67A      0.892974    68A      0.900929
      69A      0.907123    70A      0.916100    71A      0.921559
      72A      0.929919    73A      0.950747    74A      0.962018
      75A      0.967650    76A      1.000546    77A      1.024532
      78A      1.028370    79A      1.057475    80A      1.110907
      81A      1.125072    82A      1.129400    83A      1.135853
      84A      1.239512    85A      1.310312    86A      1.332869
      87A      1.378642    88A      1.382739    89A      1.414123
      90A      1.438653    91A      1.451547    92A      1.461689
      93A      1.466611    94A      1.487410    95A      1.526144
      96A      1.581280    97A      1.629977    98A      1.674618
      99A      1.676895   100A      1.686528   101A      1.734464
     102A      1.768420   103A      1.837974   104A      1.851257
     105A      1.863360   106A      1.875653   107A      1.878617
     108A      1.889714   109A      1.897164   110A      1.903800
     111A      1.914873   112A      1.923854   113A      1.930591
     114A      1.938477   115A      1.947334   116A      1.950551
     117A      1.965217   118A      1.981454   119A      2.003413
     120A      2.029747   121A      2.050644   122A      2.076668
     123A      2.082808   124A      2.113964   125A      2.131650
     126A      2.196292   127A      2.225520   128A      2.283108
     129A      2.291444   130A      2.312335   131A      2.348830
     132A      2.408275   133A      2.433941   134A      2.450685
     135A      2.461305   136A      2.472771   137A      2.514575
     138A      2.544445   139A      2.560623   140A      2.564759
     141A      2.576336   142A      2.598033   143A      2.642583
     144A      2.755456   145A      2.759234   146A      2.778098
     147A      2.788681   148A      2.823855   149A      2.834803
     150A      2.848463   151A      2.881626   152A      2.913806
     153A      2.926359   154A      2.948194   155A      2.964859
     156A      2.988605   157A      3.104461   158A      3.139278
     159A      3.299847   160A      3.519086   161A      3.532087
     162A      3.882497   163A      3.920986

    Final Occupation by Irrep:
              A
    DOCC [    29 ]

  @RHF Final Energy:  -326.26228278716030

   => Energetics <=

    Nuclear Repulsion Energy =            293.2593816110933744
    One-Electron Energy =               -1023.6609773613337211
    Two-Electron Energy =                 404.1393129630801013
    Total Energy =                       -326.2622827871603022

Computation Completed

Properties will be evaluated at   0.000000,   0.000000,   0.000000 [a0]

Properties computed using the SCF density matrix

  Nuclear Dipole Moment: [e a0]
     X:    -8.4751      Y:    -7.6504      Z:    11.7234

  Electronic Dipole Moment: [e a0]
     X:     6.8762      Y:     7.7977      Z:   -11.4093

  Dipole Moment: [e a0]
     X:    -1.5989      Y:     0.1473      Z:     0.3141     Total:     1.6361

  Dipole Moment: [D]
     X:    -4.0640      Y:     0.3744      Z:     0.7984     Total:     4.1585

*** tstop() called on ds3 at Sun Apr 26 17:20:04 2020
Module time:
	user time   =      35.00 seconds =       0.58 minutes
	system time =      16.25 seconds =       0.27 minutes
	total time  =         49 seconds =       0.82 minutes
Total time:
	user time   =      35.00 seconds =       0.58 minutes
	system time =      16.25 seconds =       0.27 minutes
	total time  =         49 seconds =       0.82 minutes
                                     G D M A

                                 by Anthony Stone

                           version 2.2.06, 22 June 2011

               Distributed Multipoles from Gaussian wavefunctions

Starting at 17:20:4 on 26 Apr 2020

Using SCF density matrix from file ./SSI/SSI-083LEU-101GLN-1-dimer.test.18129.fchk

                         Distributed Multipole Analysis

Standard DMA

Positions and radii in angstrom
Multipole moments in atomic units, ea_0^k for rank k

C          x = -1.542665  y = -1.832748  z =  2.013033 angstrom
           Maximum rank =  0   Radius =  0.650 angstrom
                   Q00  =  -0.265558

C          x = -2.451665  y = -3.026748  z =  2.465033 angstrom
           Maximum rank =  0   Radius =  0.650 angstrom
                   Q00  =  -0.235241

H          x = -2.052665  y = -0.890748  z =  2.187033 angstrom
           Maximum rank =  0   Radius =  0.325 angstrom
                   Q00  =   0.080407

H          x = -0.608665  y = -1.846748  z =  2.577033 angstrom
           Maximum rank =  0   Radius =  0.325 angstrom
                   Q00  =   0.086117

H          x = -1.311665  y = -1.919748  z =  0.953033 angstrom
           Maximum rank =  0   Radius =  0.325 angstrom
                   Q00  =   0.080760

H          x = -1.937665  y = -3.949748  z =  2.207033 angstrom
           Maximum rank =  0   Radius =  0.325 angstrom
                   Q00  =   0.083513

H          x = -3.432745  y = -3.017391  z =  1.967653 angstrom
           Maximum rank =  0   Radius =  0.325 angstrom
                   Q00  =   0.085852

H          x = -2.558175  y = -3.020227  z =  3.559845 angstrom
           Maximum rank =  0   Radius =  0.325 angstrom
                   Q00  =   0.084187

C          x =  0.392335  y =  0.361252  z = -0.157967 angstrom
           Maximum rank =  0   Radius =  0.650 angstrom
                   Q00  =  -0.126360

C          x =  1.134335  y =  0.903252  z =  1.080033 angstrom
           Maximum rank =  0   Radius =  0.650 angstrom
                   Q00  =  -0.226960

C          x =  0.798335  y =  1.032252  z = -1.463967 angstrom
           Maximum rank =  0   Radius =  0.650 angstrom
                   Q00  =   0.838433

O          x =  1.956335  y =  1.005252  z = -1.858967 angstrom
           Maximum rank =  0   Radius =  0.650 angstrom
                   Q00  =  -0.812066

N          x = -0.152665  y =  1.635252  z = -2.149967 angstrom
           Maximum rank =  0   Radius =  0.650 angstrom
                   Q00  =  -0.523840

H          x =  0.608335  y = -0.701748  z = -0.255967 angstrom
           Maximum rank =  0   Radius =  0.325 angstrom
                   Q00  =   0.106468

H          x = -0.683665  y =  0.456252  z = -0.003967 angstrom
           Maximum rank =  0   Radius =  0.325 angstrom
                   Q00  =   0.041065

H          x =  2.214335  y =  0.867252  z =  0.924033 angstrom
           Maximum rank =  0   Radius =  0.325 angstrom
                   Q00  =   0.110829

H          x =  0.901335  y =  0.222252  z =  1.899033 angstrom
           Maximum rank =  0   Radius =  0.325 angstrom
                   Q00  =   0.086931

H          x =  0.099335  y =  2.054252  z = -3.031967 angstrom
           Maximum rank =  0   Radius =  0.325 angstrom
                   Q00  =   0.217144

H          x = -1.104665  y =  1.662252  z = -1.814967 angstrom
           Maximum rank =  0   Radius =  0.325 angstrom
                   Q00  =   0.207367

H          x =  0.815645  y =  1.923357  z =  1.340455 angstrom
           Maximum rank =  0   Radius =  0.325 angstrom
                   Q00  =   0.080951

Total multipoles referred to origin at
           x =   0.000000,  y =    0.000000,  z =    0.000000 angstrom
                   Q00  =  -0.000000

Finished at 17:20:5 on 26 Apr 2020

  DMA results are available in the Python driver through the
	  variable('DMA DISTRIBUTED MULTIPOLES')
  and
	  variable('DMA TOTAL MULTIPOLES')
  commands.

    Psi4 stopped on: Sunday, 26 April 2020 05:20PM
    Psi4 wall time for execution: 0:00:49.52

*** Psi4 exiting successfully. Buy a developer a beer!
