                               Psi4 1.3.2 release

  ==> Input File <==

--------------------------------------------------------------------------
import numpy as np
set {scf_type pk
basis cc-pvdz
d_convergence 10
gdma_switch   0
gdma_limit    0
gdma_origin   [ 0.0,  0.0,  0.0 ]
}
molecule test {
    units Angstrom
    0 1
    --
    0 1
    C               -4.645156857835889     3.225273191650069    -1.010170380860772
    C               -1.418156857835890     1.009273191650069     0.777829619139228
    C               -1.424156857835889     2.422273191650069     0.845829619139228
    C               -2.442156857835889     0.369273191650069     0.061829619139228
    C               -2.496156857835890     3.145273191650069     0.307829619139228
    C               -3.463156857835890     1.105273191650069    -0.504170380860772
    C               -3.489156857835890     2.487273191650069    -0.404170380860772
    H               -0.614156857835890     0.437273191650069     1.220829619139228
    H               -0.620156857835890     2.931273191650069     1.353829619139228
    H               -2.437156857835889    -0.707726808349931    -0.038170380860772
    H               -2.521156857835890     4.222273191650069     0.396829619139228
    H               -4.249156857835889     0.589273191650069    -1.035170380860772
    H               -4.857156857835890     4.097273191650069    -0.392170380860772
    H               -5.524156857835889     2.585273191650069    -0.965170380860772
    H               -4.472549857835889     3.564663191650069    -2.042170380860772
    C                4.770843142164111    -1.448726808349931     1.707829619139228
    C                1.763843142164110    -0.534726808349931    -0.454170380860772
    C                1.248843142164111    -1.782726808349931    -0.759170380860772
    C                2.869843142164111    -0.402726808349931     0.388829619139228
    C                3.581843142164110    -1.557726808349930     0.798829619139228
    C                1.947843142164110    -2.912726808349931    -0.342170380860772
    C                3.108843142164111    -2.793726808349931     0.416829619139228
    O                0.100843142164110    -1.993726808349930    -1.546170380860772
    H                1.236843142164111     0.339273191650069    -0.802170380860772
    H                3.213843142164110     0.581273191650069     0.681829619139228
    H                1.586843142164110    -3.897726808349931    -0.605170380860772
    H               -0.094156857835890    -2.928726808349931    -1.661170380860772
    H                4.460843142164111    -1.776726808349931     2.698829619139228
    H                5.068843142164111    -0.402726808349931     1.786829619139228
    H                3.610843142164111    -3.693726808349931     0.733829619139228
    H                5.637613142164111    -2.051326808349931     1.398679619139228

}
e, wfn = energy('scf', return_wfn=True)
gdma(wfn)
dmavals = variable('DMA DISTRIBUTED MULTIPOLES')
charges = np.array(dmavals)
print(charges)
np.save('SSI-155PHE-197TYR-1-dimer.npy', np.array(charges))--------------------------------------------------------------------------

*** tstart() called on ds3
*** at Tue Apr 28 14:26:38 2020

   => Loading Basis Set <=

    Name: CC-PVDZ
    Role: ORBITAL
    Keyword: BASIS
    atoms 1-7, 16-22  entry C          line   138 file /theoryfs2/ds/metcalf/miniconda2/envs/tf2gpu/share/psi4/basis/cc-pvdz.gbs
    atoms 8-15, 24-31 entry H          line    22 file /theoryfs2/ds/metcalf/miniconda2/envs/tf2gpu/share/psi4/basis/cc-pvdz.gbs
    atoms 23          entry O          line   198 file /theoryfs2/ds/metcalf/miniconda2/envs/tf2gpu/share/psi4/basis/cc-pvdz.gbs

         ---------------------------------------------------------
                                   SCF
               by Justin Turney, Rob Parrish, Andy Simmonett
                          and Daniel G. A. Smith
                              RHF Reference
                        1 Threads,    500 MiB Core
         ---------------------------------------------------------

  ==> Geometry <==

    Molecular point group: c1
    Full point group: C1

    Geometry (in Angstrom), charge = 0, multiplicity = 1:

       Center              X                  Y                   Z               Mass
    ------------   -----------------  -----------------  -----------------  -----------------
         C           -4.645156857836     3.225273191650    -1.010170380861    12.000000000000
         C           -1.418156857836     1.009273191650     0.777829619139    12.000000000000
         C           -1.424156857836     2.422273191650     0.845829619139    12.000000000000
         C           -2.442156857836     0.369273191650     0.061829619139    12.000000000000
         C           -2.496156857836     3.145273191650     0.307829619139    12.000000000000
         C           -3.463156857836     1.105273191650    -0.504170380861    12.000000000000
         C           -3.489156857836     2.487273191650    -0.404170380861    12.000000000000
         H           -0.614156857836     0.437273191650     1.220829619139     1.007825032230
         H           -0.620156857836     2.931273191650     1.353829619139     1.007825032230
         H           -2.437156857836    -0.707726808350    -0.038170380861     1.007825032230
         H           -2.521156857836     4.222273191650     0.396829619139     1.007825032230
         H           -4.249156857836     0.589273191650    -1.035170380861     1.007825032230
         H           -4.857156857836     4.097273191650    -0.392170380861     1.007825032230
         H           -5.524156857836     2.585273191650    -0.965170380861     1.007825032230
         H           -4.472549857836     3.564663191650    -2.042170380861     1.007825032230
         C            4.770843142164    -1.448726808350     1.707829619139    12.000000000000
         C            1.763843142164    -0.534726808350    -0.454170380861    12.000000000000
         C            1.248843142164    -1.782726808350    -0.759170380861    12.000000000000
         C            2.869843142164    -0.402726808350     0.388829619139    12.000000000000
         C            3.581843142164    -1.557726808350     0.798829619139    12.000000000000
         C            1.947843142164    -2.912726808350    -0.342170380861    12.000000000000
         C            3.108843142164    -2.793726808350     0.416829619139    12.000000000000
         O            0.100843142164    -1.993726808350    -1.546170380861    15.994914619570
         H            1.236843142164     0.339273191650    -0.802170380861     1.007825032230
         H            3.213843142164     0.581273191650     0.681829619139     1.007825032230
         H            1.586843142164    -3.897726808350    -0.605170380861     1.007825032230
         H           -0.094156857836    -2.928726808350    -1.661170380861     1.007825032230
         H            4.460843142164    -1.776726808350     2.698829619139     1.007825032230
         H            5.068843142164    -0.402726808350     1.786829619139     1.007825032230
         H            3.610843142164    -3.693726808350     0.733829619139     1.007825032230
         H            5.637613142164    -2.051326808350     1.398679619139     1.007825032230

  Running in c1 symmetry.

  Rotational constants: A =      0.04495  B =      0.00698  C =      0.00627 [cm^-1]
  Rotational constants: A =   1347.55616  B =    209.29135  C =    187.90918 [MHz]
  Nuclear repulsion =  855.905904343089105

  Charge       = 0
  Multiplicity = 1
  Electrons    = 108
  Nalpha       = 54
  Nbeta        = 54

  ==> Algorithm <==

  SCF Algorithm Type is PK.
  DIIS enabled.
  MOM disabled.
  Fractional occupation disabled.
  Guess Type is SAD.
  Energy threshold   = 1.00e-06
  Density threshold  = 1.00e-10
  Integral threshold = 0.00e+00

  ==> Primary Basis <==

  Basis Set: CC-PVDZ
    Blend: CC-PVDZ
    Number of shells: 138
    Number of basis function: 290
    Number of Cartesian functions: 305
    Spherical Harmonics?: true
    Max angular momentum: 2

  ==> Pre-Iterations <==

   -------------------------------------------------------
    Irrep   Nso     Nmo     Nalpha   Nbeta   Ndocc  Nsocc
   -------------------------------------------------------
     A        290     290       0       0       0       0
   -------------------------------------------------------
    Total     290     290      54      54      54       0
   -------------------------------------------------------

  ==> Integral Setup <==

  Using integral reordering PK algorithm.
  Sizing the integral batches needed.
  Building batch lookup table.
   Calculation information:
      Number of atoms:                  31
      Number of AO shells:             138
      Number of primitives:            410
      Number of atomic orbitals:       305
      Number of basis functions:       290

      Integral cutoff                 1.00e-12
      Number of threads:                 1

	Batch   1 pq = [       0,    9405] index = [             0,44231715] size =     44231715
	Batch   2 pq = [    9405,   13301] index = [      44231715,88464951] size =     44233236
	Batch   3 pq = [   13301,   16290] index = [      88464951,132690195] size =     44225244
	Batch   4 pq = [   16290,   18810] index = [     132690195,176917455] size =     44227260
	Batch   5 pq = [   18810,   21030] index = [     176917455,221140965] size =     44223510
	Batch   6 pq = [   21030,   23037] index = [     221140965,265363203] size =     44222238
	Batch   7 pq = [   23037,   24883] index = [     265363203,309594286] size =     44231083
	Batch   8 pq = [   24883,   26601] index = [     309594286,353819901] size =     44225615
	Batch   9 pq = [   26601,   28214] index = [     353819901,398029005] size =     44209104
	Batch  10 pq = [   28214,   29740] index = [     398029005,442248670] size =     44219665
	Batch  11 pq = [   29740,   31191] index = [     442248670,486454836] size =     44206166
	Batch  12 pq = [   31191,   32578] index = [     486454836,530679331] size =     44224495
	Batch  13 pq = [   32578,   33908] index = [     530679331,574893186] size =     44213855
	Batch  14 pq = [   33908,   35188] index = [     574893186,619115266] size =     44222080
	Batch  15 pq = [   35188,   36423] index = [     619115266,663335676] size =     44220410
	Batch  16 pq = [   36423,   37617] index = [     663335676,707538153] size =     44202477
	Batch  17 pq = [   37617,   38775] index = [     707538153,751769700] size =     44231547
	Batch  18 pq = [   38775,   39899] index = [     751769700,795985050] size =     44215350
	Batch  19 pq = [   39899,   40992] index = [     795985050,840192528] size =     44207478
	Batch  20 pq = [   40992,   42057] index = [     840192528,884416653] size =     44224125
	Batch  21 pq = [   42057,   42195] index = [     884416653,890230110] size =      5813457
  Task number: 81
  Buffer size: 11059200
  Buffer per thread: 2
  We computed 35453117 shell quartets total.
  Whereas there are 45998436 unique shell quartets.

  ==> DiskJK: Disk-Based J/K Matrices <==

    J tasked:                  Yes
    K tasked:                  Yes
    wK tasked:                  No
    Memory [MiB]:              375
    Schwarz Cutoff:          1E-12

    OpenMP threads:              1

  Minimum eigenvalue in the overlap matrix is 3.3625668453E-04.
  Using Symmetric Orthogonalization.

  SCF Guess: Superposition of Atomic Densities via on-the-fly atomic UHF.

  ==> Iterations <==

                        Total Energy        Delta E     RMS |[F,P]|

   @RHF iter SAD:  -613.10127559787304   -6.13101e+02   0.00000e+00
   @RHF iter   1:  -614.05468536610397   -9.53410e-01   2.37477e-03 DIIS
   @RHF iter   2:  -614.32936471342259   -2.74679e-01   9.93258e-04 DIIS
   @RHF iter   3:  -614.37119014169559   -4.18254e-02   2.37145e-04 DIIS
   @RHF iter   4:  -614.37480062446195   -3.61048e-03   9.32782e-05 DIIS
   @RHF iter   5:  -614.37522375087121   -4.23126e-04   1.75378e-05 DIIS
   @RHF iter   6:  -614.37524507341845   -2.13225e-05   5.76567e-06 DIIS
   @RHF iter   7:  -614.37524748659825   -2.41318e-06   1.73320e-06 DIIS
   @RHF iter   8:  -614.37524778522140   -2.98623e-07   6.79097e-07 DIIS
   @RHF iter   9:  -614.37524782810044   -4.28790e-08   2.32159e-07 DIIS
   @RHF iter  10:  -614.37524783512504   -7.02460e-09   8.86179e-08 DIIS
   @RHF iter  11:  -614.37524783675735   -1.63232e-09   4.50778e-08 DIIS
   @RHF iter  12:  -614.37524783716594   -4.08590e-10   2.06316e-08 DIIS
   @RHF iter  13:  -614.37524783726019   -9.42464e-11   7.07245e-09 DIIS
   @RHF iter  14:  -614.37524783727133   -1.11413e-11   2.31465e-09 DIIS
   @RHF iter  15:  -614.37524783726974    1.59162e-12   6.48136e-10 DIIS
   @RHF iter  16:  -614.37524783726542    4.32010e-12   2.89002e-10 DIIS
   @RHF iter  17:  -614.37524783727099   -5.57066e-12   1.41016e-10 DIIS
   @RHF iter  18:  -614.37524783726985    1.13687e-12   6.04419e-11 DIIS
  Energy and wave function converged.

  ==> Post-Iterations <==

    Orbital Energies [Eh]
    ---------------------

    Doubly Occupied:

       1A    -20.579892     2A    -11.300634     3A    -11.243661
       4A    -11.238091     5A    -11.236134     6A    -11.234856
       7A    -11.234619     8A    -11.233707     9A    -11.232535
      10A    -11.229587    11A    -11.228272    12A    -11.227119
      13A    -11.225851    14A    -11.223532    15A    -11.220431
      16A     -1.379562    17A     -1.153422    18A     -1.145896
      19A     -1.042079    20A     -1.037010    21A     -1.017869
      22A     -1.005536    23A     -0.928630    24A     -0.924766
      25A     -0.842953    26A     -0.817557    27A     -0.799628
      28A     -0.790011    29A     -0.725880    30A     -0.683580
      31A     -0.666266    32A     -0.641801    33A     -0.624937
      34A     -0.623769    35A     -0.611698    36A     -0.586467
      37A     -0.581514    38A     -0.576428    39A     -0.573807
      40A     -0.566259    41A     -0.561902    42A     -0.555990
      43A     -0.530709    44A     -0.527810    45A     -0.501331
      46A     -0.483372    47A     -0.479806    48A     -0.477393
      49A     -0.475559    50A     -0.467743    51A     -0.339477
      52A     -0.326244    53A     -0.313851    54A     -0.306123

    Virtual:

      55A      0.127646    56A      0.142589    57A      0.145276
      58A      0.151826    59A      0.176456    60A      0.183826
      61A      0.192095    62A      0.205471    63A      0.215646
      64A      0.227262    65A      0.229578    66A      0.252628
      67A      0.261207    68A      0.266063    69A      0.269032
      70A      0.272862    71A      0.277990    72A      0.292029
      73A      0.293263    74A      0.301258    75A      0.365946
      76A      0.367930    77A      0.373317    78A      0.382278
      79A      0.412527    80A      0.445341    81A      0.464313
      82A      0.466757    83A      0.480698    84A      0.487890
      85A      0.492848    86A      0.499511    87A      0.505371
      88A      0.569403    89A      0.597341    90A      0.609313
      91A      0.623104    92A      0.642066    93A      0.643366
      94A      0.654774    95A      0.680381    96A      0.686741
      97A      0.694284    98A      0.696916    99A      0.704340
     100A      0.712366   101A      0.720415   102A      0.731310
     103A      0.731972   104A      0.736976   105A      0.743365
     106A      0.748624   107A      0.751017   108A      0.757641
     109A      0.768503   110A      0.772744   111A      0.775983
     112A      0.778666   113A      0.784105   114A      0.791950
     115A      0.807070   116A      0.829429   117A      0.840160
     118A      0.846228   119A      0.859289   120A      0.868539
     121A      0.876084   122A      0.879206   123A      0.881182
     124A      0.885749   125A      0.894095   126A      0.906884
     127A      0.909231   128A      0.910481   129A      0.915543
     130A      0.927193   131A      0.934515   132A      0.935872
     133A      0.940187   134A      0.945150   135A      0.946287
     136A      0.968678   137A      0.992303   138A      1.012858
     139A      1.019953   140A      1.030682   141A      1.049213
     142A      1.056335   143A      1.100573   144A      1.113427
     145A      1.138284   146A      1.151235   147A      1.158979
     148A      1.162681   149A      1.169582   150A      1.179716
     151A      1.192200   152A      1.204492   153A      1.225315
     154A      1.239258   155A      1.242780   156A      1.247441
     157A      1.255498   158A      1.261908   159A      1.278080
     160A      1.290569   161A      1.294818   162A      1.302805
     163A      1.310617   164A      1.316730   165A      1.320532
     166A      1.330580   167A      1.340839   168A      1.357024
     169A      1.381457   170A      1.401717   171A      1.418442
     172A      1.480401   173A      1.506583   174A      1.512495
     175A      1.528596   176A      1.535355   177A      1.556053
     178A      1.566593   179A      1.606051   180A      1.621450
     181A      1.635985   182A      1.667963   183A      1.687242
     184A      1.693938   185A      1.703938   186A      1.728719
     187A      1.732984   188A      1.745530   189A      1.757209
     190A      1.764400   191A      1.782460   192A      1.793209
     193A      1.799666   194A      1.816007   195A      1.819118
     196A      1.852447   197A      1.861609   198A      1.881505
     199A      1.889125   200A      1.897270   201A      1.902647
     202A      1.903928   203A      1.910263   204A      1.913163
     205A      1.923418   206A      1.926275   207A      1.942926
     208A      1.946451   209A      1.949317   210A      1.950042
     211A      1.953747   212A      1.960104   213A      1.972274
     214A      1.980368   215A      1.994961   216A      2.005565
     217A      2.033042   218A      2.038143   219A      2.043540
     220A      2.053453   221A      2.067263   222A      2.071551
     223A      2.078954   224A      2.083882   225A      2.105966
     226A      2.110174   227A      2.145093   228A      2.151179
     229A      2.158178   230A      2.169462   231A      2.184116
     232A      2.186254   233A      2.190914   234A      2.210615
     235A      2.217743   236A      2.254164   237A      2.260845
     238A      2.273420   239A      2.286003   240A      2.297666
     241A      2.300962   242A      2.311122   243A      2.313733
     244A      2.336872   245A      2.349629   246A      2.382441
     247A      2.392096   248A      2.456012   249A      2.466581
     250A      2.476157   251A      2.483798   252A      2.493341
     253A      2.503227   254A      2.532439   255A      2.535375
     256A      2.549841   257A      2.607791   258A      2.627948
     259A      2.647785   260A      2.736229   261A      2.746872
     262A      2.760319   263A      2.766265   264A      2.777234
     265A      2.790158   266A      2.793187   267A      2.810598
     268A      2.815724   269A      2.842744   270A      2.857928
     271A      2.865931   272A      2.885440   273A      2.959527
     274A      2.983525   275A      2.991099   276A      3.002649
     277A      3.007799   278A      3.062116   279A      3.124225
     280A      3.159038   281A      3.204916   282A      3.237362
     283A      3.286434   284A      3.300146   285A      3.331480
     286A      3.547407   287A      3.612051   288A      3.955408
     289A      3.979290   290A      4.166258

    Final Occupation by Irrep:
              A
    DOCC [    54 ]

  @RHF Final Energy:  -614.37524783726985

   => Energetics <=

    Nuclear Repulsion Energy =            855.9059043430891052
    One-Electron Energy =               -2531.3951888818792213
    Two-Electron Energy =                1061.1140367015202628
    Total Energy =                       -614.3752478372698533

Computation Completed

Properties will be evaluated at   0.000000,   0.000000,   0.000000 [a0]

Properties computed using the SCF density matrix

  Nuclear Dipole Moment: [e a0]
     X:    -0.5377      Y:     3.6364      Z:     2.5520

  Electronic Dipole Moment: [e a0]
     X:     0.7792      Y:    -4.1540      Z:    -2.3706

  Dipole Moment: [e a0]
     X:     0.2415      Y:    -0.5176      Z:     0.1814     Total:     0.5993

  Dipole Moment: [D]
     X:     0.6138      Y:    -1.3157      Z:     0.4611     Total:     1.5233

*** tstop() called on ds3 at Tue Apr 28 14:36:45 2020
Module time:
	user time   =     326.72 seconds =       5.45 minutes
	system time =     139.84 seconds =       2.33 minutes
	total time  =        607 seconds =      10.12 minutes
Total time:
	user time   =     326.72 seconds =       5.45 minutes
	system time =     139.84 seconds =       2.33 minutes
	total time  =        607 seconds =      10.12 minutes
                                     G D M A

                                 by Anthony Stone

                           version 2.2.06, 22 June 2011

               Distributed Multipoles from Gaussian wavefunctions

Starting at 14:36:45 on 28 Apr 2020

Using SCF density matrix from file ./SSI/SSI-155PHE-197TYR-1-dimer.test.24577.fchk

                         Distributed Multipole Analysis

Standard DMA

Positions and radii in angstrom
Multipole moments in atomic units, ea_0^k for rank k

C          x = -4.645157  y =  3.225273  z = -1.010170 angstrom
           Maximum rank =  0   Radius =  0.650 angstrom
                   Q00  =  -0.201255

C          x = -1.418157  y =  1.009273  z =  0.777830 angstrom
           Maximum rank =  0   Radius =  0.650 angstrom
                   Q00  =  -0.094620

C          x = -1.424157  y =  2.422273  z =  0.845830 angstrom
           Maximum rank =  0   Radius =  0.650 angstrom
                   Q00  =  -0.067183

C          x = -2.442157  y =  0.369273  z =  0.061830 angstrom
           Maximum rank =  0   Radius =  0.650 angstrom
                   Q00  =  -0.069645

C          x = -2.496157  y =  3.145273  z =  0.307830 angstrom
           Maximum rank =  0   Radius =  0.650 angstrom
                   Q00  =  -0.090767

C          x = -3.463157  y =  1.105273  z = -0.504170 angstrom
           Maximum rank =  0   Radius =  0.650 angstrom
                   Q00  =   0.017386

C          x = -3.489157  y =  2.487273  z = -0.404170 angstrom
           Maximum rank =  0   Radius =  0.650 angstrom
                   Q00  =  -0.102107

H          x = -0.614157  y =  0.437273  z =  1.220830 angstrom
           Maximum rank =  0   Radius =  0.325 angstrom
                   Q00  =   0.073737

H          x = -0.620157  y =  2.931273  z =  1.353830 angstrom
           Maximum rank =  0   Radius =  0.325 angstrom
                   Q00  =   0.065006

H          x = -2.437157  y = -0.707727  z = -0.038170 angstrom
           Maximum rank =  0   Radius =  0.325 angstrom
                   Q00  =   0.064796

H          x = -2.521157  y =  4.222273  z =  0.396830 angstrom
           Maximum rank =  0   Radius =  0.325 angstrom
                   Q00  =   0.056836

H          x = -4.249157  y =  0.589273  z = -1.035170 angstrom
           Maximum rank =  0   Radius =  0.325 angstrom
                   Q00  =   0.051541

H          x = -4.857157  y =  4.097273  z = -0.392170 angstrom
           Maximum rank =  0   Radius =  0.325 angstrom
                   Q00  =   0.094405

H          x = -5.524157  y =  2.585273  z = -0.965170 angstrom
           Maximum rank =  0   Radius =  0.325 angstrom
                   Q00  =   0.095775

H          x = -4.472550  y =  3.564663  z = -2.042170 angstrom
           Maximum rank =  0   Radius =  0.325 angstrom
                   Q00  =   0.104154

C          x =  4.770843  y = -1.448727  z =  1.707830 angstrom
           Maximum rank =  0   Radius =  0.650 angstrom
                   Q00  =  -0.202750

C          x =  1.763843  y = -0.534727  z = -0.454170 angstrom
           Maximum rank =  0   Radius =  0.650 angstrom
                   Q00  =  -0.065922

C          x =  1.248843  y = -1.782727  z = -0.759170 angstrom
           Maximum rank =  0   Radius =  0.650 angstrom
                   Q00  =   0.251069

C          x =  2.869843  y = -0.402727  z =  0.388830 angstrom
           Maximum rank =  0   Radius =  0.650 angstrom
                   Q00  =  -0.065083

C          x =  3.581843  y = -1.557727  z =  0.798830 angstrom
           Maximum rank =  0   Radius =  0.650 angstrom
                   Q00  =  -0.126199

C          x =  1.947843  y = -2.912727  z = -0.342170 angstrom
           Maximum rank =  0   Radius =  0.650 angstrom
                   Q00  =  -0.057832

C          x =  3.108843  y = -2.793727  z =  0.416830 angstrom
           Maximum rank =  0   Radius =  0.650 angstrom
                   Q00  =  -0.058616

O          x =  0.100843  y = -1.993727  z = -1.546170 angstrom
           Maximum rank =  0   Radius =  0.650 angstrom
                   Q00  =  -0.670012

H          x =  1.236843  y =  0.339273  z = -0.802170 angstrom
           Maximum rank =  0   Radius =  0.325 angstrom
                   Q00  =   0.090926

H          x =  3.213843  y =  0.581273  z =  0.681830 angstrom
           Maximum rank =  0   Radius =  0.325 angstrom
                   Q00  =   0.071028

H          x =  1.586843  y = -3.897727  z = -0.605170 angstrom
           Maximum rank =  0   Radius =  0.325 angstrom
                   Q00  =   0.067397

H          x = -0.094157  y = -2.928727  z = -1.661170 angstrom
           Maximum rank =  0   Radius =  0.325 angstrom
                   Q00  =   0.408227

H          x =  4.460843  y = -1.776727  z =  2.698830 angstrom
           Maximum rank =  0   Radius =  0.325 angstrom
                   Q00  =   0.098593

H          x =  5.068843  y = -0.402727  z =  1.786830 angstrom
           Maximum rank =  0   Radius =  0.325 angstrom
                   Q00  =   0.096526

H          x =  3.610843  y = -3.693727  z =  0.733830 angstrom
           Maximum rank =  0   Radius =  0.325 angstrom
                   Q00  =   0.064319

H          x =  5.637613  y = -2.051327  z =  1.398680 angstrom
           Maximum rank =  0   Radius =  0.325 angstrom
                   Q00  =   0.100271

Total multipoles referred to origin at
           x =   0.000000,  y =    0.000000,  z =    0.000000 angstrom
                   Q00  =  -0.000000

Finished at 14:36:45 on 28 Apr 2020

  DMA results are available in the Python driver through the
	  variable('DMA DISTRIBUTED MULTIPOLES')
  and
	  variable('DMA TOTAL MULTIPOLES')
  commands.

    Psi4 stopped on: Tuesday, 28 April 2020 02:36PM
    Psi4 wall time for execution: 0:10:07.54

*** Psi4 exiting successfully. Buy a developer a beer!
