                               Psi4 1.3.2 release

  ==> Input File <==

--------------------------------------------------------------------------
import numpy as np
set {scf_type pk
basis cc-pvdz
d_convergence 10
gdma_switch   0
gdma_limit    0
gdma_origin   [ 0.0,  0.0,  0.0 ]
}
molecule test {
    units Angstrom
    0 1
    --
    0 1
    C               -1.279618510545269     2.007237348771508    -1.578132892071991
    C               -0.060618510545269     1.618237348771507    -2.465132892071991
    C               -0.688618510545269     2.827237348771507    -0.465132892071991
    H               -1.790618510545269     1.132237348771508    -1.181132892071991
    H               -1.967618510545269     2.624237348771508    -2.159132892071991
    H                0.302381489454731     0.629237348771507    -2.183132892071991
    H               -0.338618510545269     1.641237348771508    -3.518132892071991
    H               -0.348618510545269     2.153237348771508     0.322867107928009
    H               -1.410618510545269     3.540237348771508    -0.063132892071991
    H                0.710593489454731     2.370077348771508    -2.241592892071991
    H                0.168306489454731     3.335947348771507    -0.930852892071991
    C                2.612381489454731    -0.516762651228493     1.581867107928009
    C               -1.400618510545269    -1.417762651228493     0.007867107928009
    C               -1.284618510545269    -0.785762651228492     1.248867107928009
    C               -0.242618510545269    -1.773762651228493    -0.647132892071991
    C                0.012381489454731    -0.482762651228493     1.781867107928009
    C                1.029381489454731    -1.472762651228492    -0.126132892071991
    C                1.190381489454731    -0.833762651228493     1.088867107928009
    H               -2.370618510545269    -1.645762651228493    -0.413132892071991
    H               -2.175618510545269    -0.510762651228493     1.797867107928009
    H               -0.323618510545269    -2.270762651228492    -1.602132892071991
    H                0.043381489454731    -0.004762651228493     2.743867107928009
    H                1.908381489454731    -1.750762651228493    -0.690132892071991
    H                3.077381489454731     0.151237348771507     0.854867107928009
    H                3.181381489454731    -1.446762651228493     1.590867107928009
    H                2.669909489454731    -0.057982651228493     2.579967107928009

}
e, wfn = energy('scf', return_wfn=True)
gdma(wfn)
dmavals = variable('DMA DISTRIBUTED MULTIPOLES')
charges = np.array(dmavals)
print(charges)
np.save('SSI-195PRO-198PHE-1-dimer.npy', np.array(charges))--------------------------------------------------------------------------

*** tstart() called on ds3
*** at Sun Apr 26 18:36:00 2020

   => Loading Basis Set <=

    Name: CC-PVDZ
    Role: ORBITAL
    Keyword: BASIS
    atoms 1-3, 12-18  entry C          line   138 file /theoryfs2/ds/metcalf/miniconda2/envs/tf2gpu/share/psi4/basis/cc-pvdz.gbs
    atoms 4-11, 19-26 entry H          line    22 file /theoryfs2/ds/metcalf/miniconda2/envs/tf2gpu/share/psi4/basis/cc-pvdz.gbs

         ---------------------------------------------------------
                                   SCF
               by Justin Turney, Rob Parrish, Andy Simmonett
                          and Daniel G. A. Smith
                              RHF Reference
                        1 Threads,    500 MiB Core
         ---------------------------------------------------------

  ==> Geometry <==

    Molecular point group: c1
    Full point group: C1

    Geometry (in Angstrom), charge = 0, multiplicity = 1:

       Center              X                  Y                   Z               Mass
    ------------   -----------------  -----------------  -----------------  -----------------
         C           -1.279618510545     2.007237348772    -1.578132892072    12.000000000000
         C           -0.060618510545     1.618237348772    -2.465132892072    12.000000000000
         C           -0.688618510545     2.827237348772    -0.465132892072    12.000000000000
         H           -1.790618510545     1.132237348772    -1.181132892072     1.007825032230
         H           -1.967618510545     2.624237348772    -2.159132892072     1.007825032230
         H            0.302381489455     0.629237348772    -2.183132892072     1.007825032230
         H           -0.338618510545     1.641237348772    -3.518132892072     1.007825032230
         H           -0.348618510545     2.153237348772     0.322867107928     1.007825032230
         H           -1.410618510545     3.540237348772    -0.063132892072     1.007825032230
         H            0.710593489455     2.370077348772    -2.241592892072     1.007825032230
         H            0.168306489455     3.335947348772    -0.930852892072     1.007825032230
         C            2.612381489455    -0.516762651228     1.581867107928    12.000000000000
         C           -1.400618510545    -1.417762651228     0.007867107928    12.000000000000
         C           -1.284618510545    -0.785762651228     1.248867107928    12.000000000000
         C           -0.242618510545    -1.773762651228    -0.647132892072    12.000000000000
         C            0.012381489455    -0.482762651228     1.781867107928    12.000000000000
         C            1.029381489455    -1.472762651228    -0.126132892072    12.000000000000
         C            1.190381489455    -0.833762651228     1.088867107928    12.000000000000
         H           -2.370618510545    -1.645762651228    -0.413132892072     1.007825032230
         H           -2.175618510545    -0.510762651228     1.797867107928     1.007825032230
         H           -0.323618510545    -2.270762651228    -1.602132892072     1.007825032230
         H            0.043381489455    -0.004762651228     2.743867107928     1.007825032230
         H            1.908381489455    -1.750762651228    -0.690132892072     1.007825032230
         H            3.077381489455     0.151237348772     0.854867107928     1.007825032230
         H            3.181381489455    -1.446762651228     1.590867107928     1.007825032230
         H            2.669909489455    -0.057982651228     2.579967107928     1.007825032230

  Running in c1 symmetry.

  Rotational constants: A =      0.05034  B =      0.02621  C =      0.02390 [cm^-1]
  Rotational constants: A =   1509.24117  B =    785.75974  C =    716.49745 [MHz]
  Nuclear repulsion =  504.934697908672604

  Charge       = 0
  Multiplicity = 1
  Electrons    = 76
  Nalpha       = 38
  Nbeta        = 38

  ==> Algorithm <==

  SCF Algorithm Type is PK.
  DIIS enabled.
  MOM disabled.
  Fractional occupation disabled.
  Guess Type is SAD.
  Energy threshold   = 1.00e-06
  Density threshold  = 1.00e-10
  Integral threshold = 0.00e+00

  ==> Primary Basis <==

  Basis Set: CC-PVDZ
    Blend: CC-PVDZ
    Number of shells: 108
    Number of basis function: 220
    Number of Cartesian functions: 230
    Spherical Harmonics?: true
    Max angular momentum: 2

  ==> Pre-Iterations <==

   -------------------------------------------------------
    Irrep   Nso     Nmo     Nalpha   Nbeta   Ndocc  Nsocc
   -------------------------------------------------------
     A        220     220       0       0       0       0
   -------------------------------------------------------
    Total     220     220      38      38      38       0
   -------------------------------------------------------

  ==> Integral Setup <==

  Using integral reordering PK algorithm.
  Sizing the integral batches needed.
  Building batch lookup table.
   Calculation information:
      Number of atoms:                  26
      Number of AO shells:             108
      Number of primitives:            300
      Number of atomic orbitals:       230
      Number of basis functions:       220

      Integral cutoff                 1.00e-12
      Number of threads:                 1

	Batch   1 pq = [       0,    9405] index = [             0,44231715] size =     44231715
	Batch   2 pq = [    9405,   13301] index = [      44231715,88464951] size =     44233236
	Batch   3 pq = [   13301,   16290] index = [      88464951,132690195] size =     44225244
	Batch   4 pq = [   16290,   18810] index = [     132690195,176917455] size =     44227260
	Batch   5 pq = [   18810,   21030] index = [     176917455,221140965] size =     44223510
	Batch   6 pq = [   21030,   23037] index = [     221140965,265363203] size =     44222238
	Batch   7 pq = [   23037,   24310] index = [     265363203,295500205] size =     30137002
  Task number: 27
  Buffer size: 11059200
  Buffer per thread: 2
  We computed 17934448 shell quartets total.
  Whereas there are 17325441 unique shell quartets.
     3.52 percent of shell quartets recomputed by reordering.

  ==> DiskJK: Disk-Based J/K Matrices <==

    J tasked:                  Yes
    K tasked:                  Yes
    wK tasked:                  No
    Memory [MiB]:              375
    Schwarz Cutoff:          1E-12

    OpenMP threads:              1

  Minimum eigenvalue in the overlap matrix is 3.2414382002E-04.
  Using Symmetric Orthogonalization.

  SCF Guess: Superposition of Atomic Densities via on-the-fly atomic UHF.

  ==> Iterations <==

                        Total Energy        Delta E     RMS |[F,P]|

   @RHF iter SAD:  -386.83234035818668   -3.86832e+02   0.00000e+00
   @RHF iter   1:  -387.75427030566573   -9.21930e-01   2.73901e-03 DIIS
   @RHF iter   2:  -387.96837508762894   -2.14105e-01   1.16808e-03 DIIS
   @RHF iter   3:  -388.00395978818472   -3.55847e-02   2.52053e-04 DIIS
   @RHF iter   4:  -388.00682877213217   -2.86898e-03   4.99808e-05 DIIS
   @RHF iter   5:  -388.00691436295460   -8.55908e-05   1.46393e-05 DIIS
   @RHF iter   6:  -388.00692158780623   -7.22485e-06   4.51080e-06 DIIS
   @RHF iter   7:  -388.00692228913476   -7.01329e-07   1.21127e-06 DIIS
   @RHF iter   8:  -388.00692234675233   -5.76176e-08   2.73770e-07 DIIS
   @RHF iter   9:  -388.00692235196169   -5.20936e-09   1.14817e-07 DIIS
   @RHF iter  10:  -388.00692235271060   -7.48912e-10   5.03352e-08 DIIS
   @RHF iter  11:  -388.00692235295367   -2.43062e-10   2.28427e-08 DIIS
   @RHF iter  12:  -388.00692235302716   -7.34985e-11   1.10860e-08 DIIS
   @RHF iter  13:  -388.00692235304251   -1.53477e-11   4.08576e-09 DIIS
   @RHF iter  14:  -388.00692235303990    2.61480e-12   9.91008e-10 DIIS
   @RHF iter  15:  -388.00692235303927    6.25278e-13   3.15812e-10 DIIS
   @RHF iter  16:  -388.00692235304149   -2.21689e-12   1.12833e-10 DIIS
   @RHF iter  17:  -388.00692235304206   -5.68434e-13   3.93775e-11 DIIS
  Energy and wave function converged.

  ==> Post-Iterations <==

    Orbital Energies [Eh]
    ---------------------

    Doubly Occupied:

       1A    -11.249073     2A    -11.243452     3A    -11.239956
       4A    -11.237668     5A    -11.236838     6A    -11.234203
       7A    -11.233130     8A    -11.205138     9A    -11.204081
      10A    -11.200673    11A     -1.149781    12A     -1.050605
      13A     -1.045627    14A     -1.003967    15A     -0.935665
      16A     -0.903777    17A     -0.827422    18A     -0.795737
      19A     -0.787728    20A     -0.692464    21A     -0.633020
      22A     -0.628547    23A     -0.623322    24A     -0.601217
      25A     -0.576874    26A     -0.575462    27A     -0.569168
      28A     -0.541727    29A     -0.531324    30A     -0.505140
      31A     -0.487632    32A     -0.486700    33A     -0.481989
      34A     -0.471816    35A     -0.456983    36A     -0.444858
      37A     -0.328812    38A     -0.326304

    Virtual:

      39A      0.128137    40A      0.138603    41A      0.174602
      42A      0.197125    43A      0.206498    44A      0.211526
      45A      0.236183    46A      0.240463    47A      0.246313
      48A      0.254117    49A      0.257845    50A      0.270948
      51A      0.273219    52A      0.280745    53A      0.288336
      54A      0.316964    55A      0.336136    56A      0.343071
      57A      0.361011    58A      0.367211    59A      0.394947
      60A      0.440362    61A      0.447139    62A      0.462012
      63A      0.464638    64A      0.496057    65A      0.554971
      66A      0.567082    67A      0.594958    68A      0.599086
      69A      0.621351    70A      0.639706    71A      0.651187
      72A      0.655793    73A      0.675101    74A      0.695055
      75A      0.707177    76A      0.730212    77A      0.739365
      78A      0.741836    79A      0.746506    80A      0.767615
      81A      0.786021    82A      0.799934    83A      0.803279
      84A      0.826134    85A      0.836472    86A      0.837395
      87A      0.852307    88A      0.858535    89A      0.871381
      90A      0.873869    91A      0.884538    92A      0.889978
      93A      0.892735    94A      0.898512    95A      0.903733
      96A      0.911793    97A      0.916410    98A      0.920823
      99A      0.935425   100A      0.943492   101A      0.948433
     102A      0.966291   103A      0.982580   104A      0.989982
     105A      1.018562   106A      1.028948   107A      1.036359
     108A      1.044962   109A      1.082801   110A      1.113053
     111A      1.131258   112A      1.145956   113A      1.158629
     114A      1.172336   115A      1.198927   116A      1.222051
     117A      1.238806   118A      1.245804   119A      1.267811
     120A      1.277942   121A      1.281693   122A      1.301138
     123A      1.319188   124A      1.325036   125A      1.411727
     126A      1.423112   127A      1.486609   128A      1.503363
     129A      1.517173   130A      1.541525   131A      1.550542
     132A      1.592116   133A      1.621035   134A      1.631041
     135A      1.643282   136A      1.660277   137A      1.677620
     138A      1.710497   139A      1.728054   140A      1.734963
     141A      1.751518   142A      1.773883   143A      1.791516
     144A      1.796751   145A      1.812169   146A      1.837543
     147A      1.861839   148A      1.871076   149A      1.881978
     150A      1.893887   151A      1.908045   152A      1.912862
     153A      1.923162   154A      1.929989   155A      1.933940
     156A      1.947011   157A      1.948752   158A      1.957399
     159A      1.962534   160A      1.965155   161A      1.980022
     162A      1.999567   163A      2.007069   164A      2.013459
     165A      2.020328   166A      2.030220   167A      2.047785
     168A      2.052812   169A      2.075986   170A      2.090930
     171A      2.096187   172A      2.126174   173A      2.150573
     174A      2.163006   175A      2.173280   176A      2.185692
     177A      2.189617   178A      2.234640   179A      2.238993
     180A      2.254293   181A      2.258858   182A      2.266253
     183A      2.293559   184A      2.318441   185A      2.331293
     186A      2.360376   187A      2.373602   188A      2.436297
     189A      2.441991   190A      2.455840   191A      2.464372
     192A      2.496727   193A      2.509124   194A      2.519869
     195A      2.566552   196A      2.627575   197A      2.658272
     198A      2.708471   199A      2.717036   200A      2.731129
     201A      2.759653   202A      2.770140   203A      2.774787
     204A      2.809108   205A      2.812227   206A      2.822680
     207A      2.830638   208A      2.842982   209A      2.858955
     210A      2.862797   211A      2.918523   212A      2.949798
     213A      2.974533   214A      3.004679   215A      3.040060
     216A      3.064223   217A      3.144579   218A      3.175719
     219A      3.276477   220A      3.914053

    Final Occupation by Irrep:
              A
    DOCC [    38 ]

  @RHF Final Energy:  -388.00692235304206

   => Energetics <=

    Nuclear Repulsion Energy =            504.9346979086726037
    One-Electron Energy =               -1524.3874782067375691
    Two-Electron Energy =                 631.4458579450227944
    Total Energy =                       -388.0069223530421141

Computation Completed

Properties will be evaluated at   0.000000,   0.000000,   0.000000 [a0]

Properties computed using the SCF density matrix

  Nuclear Dipole Moment: [e a0]
     X:     1.2522      Y:     9.2717      Z:    -4.7738

  Electronic Dipole Moment: [e a0]
     X:    -1.1210      Y:    -9.4008      Z:     4.8930

  Dipole Moment: [e a0]
     X:     0.1313      Y:    -0.1291      Z:     0.1192     Total:     0.2194

  Dipole Moment: [D]
     X:     0.3337      Y:    -0.3283      Z:     0.3030     Total:     0.5576

*** tstop() called on ds3 at Sun Apr 26 18:38:44 2020
Module time:
	user time   =     125.23 seconds =       2.09 minutes
	system time =      44.50 seconds =       0.74 minutes
	total time  =        164 seconds =       2.73 minutes
Total time:
	user time   =     125.23 seconds =       2.09 minutes
	system time =      44.50 seconds =       0.74 minutes
	total time  =        164 seconds =       2.73 minutes
                                     G D M A

                                 by Anthony Stone

                           version 2.2.06, 22 June 2011

               Distributed Multipoles from Gaussian wavefunctions

Starting at 18:38:44 on 26 Apr 2020

Using SCF density matrix from file ./SSI/SSI-195PRO-198PHE-1-dimer.test.12616.fchk

                         Distributed Multipole Analysis

Standard DMA

Positions and radii in angstrom
Multipole moments in atomic units, ea_0^k for rank k

C          x = -1.279619  y =  2.007237  z = -1.578133 angstrom
           Maximum rank =  0   Radius =  0.650 angstrom
                   Q00  =  -0.108396

C          x = -0.060619  y =  1.618237  z = -2.465133 angstrom
           Maximum rank =  0   Radius =  0.650 angstrom
                   Q00  =  -0.243389

C          x = -0.688619  y =  2.827237  z = -0.465133 angstrom
           Maximum rank =  0   Radius =  0.650 angstrom
                   Q00  =  -0.204698

H          x = -1.790619  y =  1.132237  z = -1.181133 angstrom
           Maximum rank =  0   Radius =  0.325 angstrom
                   Q00  =   0.064028

H          x = -1.967619  y =  2.624237  z = -2.159133 angstrom
           Maximum rank =  0   Radius =  0.325 angstrom
                   Q00  =   0.045259

H          x =  0.302381  y =  0.629237  z = -2.183133 angstrom
           Maximum rank =  0   Radius =  0.325 angstrom
                   Q00  =   0.092149

H          x = -0.338619  y =  1.641237  z = -3.518133 angstrom
           Maximum rank =  0   Radius =  0.325 angstrom
                   Q00  =   0.082399

H          x = -0.348619  y =  2.153237  z =  0.322867 angstrom
           Maximum rank =  0   Radius =  0.325 angstrom
                   Q00  =   0.092515

H          x = -1.410619  y =  3.540237  z = -0.063133 angstrom
           Maximum rank =  0   Radius =  0.325 angstrom
                   Q00  =   0.071899

H          x =  0.710593  y =  2.370077  z = -2.241593 angstrom
           Maximum rank =  0   Radius =  0.325 angstrom
                   Q00  =   0.060990

H          x =  0.168306  y =  3.335947  z = -0.930853 angstrom
           Maximum rank =  0   Radius =  0.325 angstrom
                   Q00  =   0.045144

C          x =  2.612381  y = -0.516763  z =  1.581867 angstrom
           Maximum rank =  0   Radius =  0.650 angstrom
                   Q00  =  -0.213280

C          x = -1.400619  y = -1.417763  z =  0.007867 angstrom
           Maximum rank =  0   Radius =  0.650 angstrom
                   Q00  =  -0.084779

C          x = -1.284619  y = -0.785763  z =  1.248867 angstrom
           Maximum rank =  0   Radius =  0.650 angstrom
                   Q00  =  -0.089609

C          x = -0.242619  y = -1.773763  z = -0.647133 angstrom
           Maximum rank =  0   Radius =  0.650 angstrom
                   Q00  =  -0.014474

C          x =  0.012381  y = -0.482763  z =  1.781867 angstrom
           Maximum rank =  0   Radius =  0.650 angstrom
                   Q00  =  -0.081497

C          x =  1.029381  y = -1.472763  z = -0.126133 angstrom
           Maximum rank =  0   Radius =  0.650 angstrom
                   Q00  =  -0.055018

C          x =  1.190381  y = -0.833763  z =  1.088867 angstrom
           Maximum rank =  0   Radius =  0.650 angstrom
                   Q00  =  -0.093578

H          x = -2.370619  y = -1.645763  z = -0.413133 angstrom
           Maximum rank =  0   Radius =  0.325 angstrom
                   Q00  =   0.065886

H          x = -2.175619  y = -0.510763  z =  1.797867 angstrom
           Maximum rank =  0   Radius =  0.325 angstrom
                   Q00  =   0.070699

H          x = -0.323619  y = -2.270763  z = -1.602133 angstrom
           Maximum rank =  0   Radius =  0.325 angstrom
                   Q00  =   0.063032

H          x =  0.043381  y = -0.004763  z =  2.743867 angstrom
           Maximum rank =  0   Radius =  0.325 angstrom
                   Q00  =   0.063127

H          x =  1.908381  y = -1.750763  z = -0.690133 angstrom
           Maximum rank =  0   Radius =  0.325 angstrom
                   Q00  =   0.054870

H          x =  3.077381  y =  0.151237  z =  0.854867 angstrom
           Maximum rank =  0   Radius =  0.325 angstrom
                   Q00  =   0.106358

H          x =  3.181381  y = -1.446763  z =  1.590867 angstrom
           Maximum rank =  0   Radius =  0.325 angstrom
                   Q00  =   0.104131

H          x =  2.669909  y = -0.057983  z =  2.579967 angstrom
           Maximum rank =  0   Radius =  0.325 angstrom
                   Q00  =   0.106234

Total multipoles referred to origin at
           x =   0.000000,  y =    0.000000,  z =    0.000000 angstrom
                   Q00  =  -0.000000

Finished at 18:38:45 on 26 Apr 2020

  DMA results are available in the Python driver through the
	  variable('DMA DISTRIBUTED MULTIPOLES')
  and
	  variable('DMA TOTAL MULTIPOLES')
  commands.

    Psi4 stopped on: Sunday, 26 April 2020 06:38PM
    Psi4 wall time for execution: 0:02:44.23

*** Psi4 exiting successfully. Buy a developer a beer!
