                               Psi4 1.3.2 release

  ==> Input File <==

--------------------------------------------------------------------------
import numpy as np
set {scf_type pk
basis cc-pvdz
d_convergence 10
gdma_switch   0
gdma_limit    0
gdma_origin   [ 0.0,  0.0,  0.0 ]
}
molecule test {
    units Angstrom
    0 1
    --
    0 1
    C                2.788275656052894     1.126627635388552     2.819013722664303
    C                2.424275656052894     0.645627635388552     1.414013722664303
    O                1.442275656052894     1.174627635388552     0.830013722664303
    O                3.126275656052893    -0.258372364611448     0.912013722664303
    H                2.329275656052894     0.455627635388552     3.549013722664303
    H                2.376275656052894     2.123627635388552     2.984013722664303
    H                3.872265656052894     1.153171635388552     3.004103722664303
    C               -3.521724343947106    -1.465372364611448    -1.991986277335697
    C               -1.577724343947106    -0.311372364611448    -0.976986277335697
    N               -1.049724343947106     0.807627635388552    -0.517986277335697
    N               -2.841724343947106    -0.324372364611448    -1.382986277335697
    N               -0.808724343947106    -1.382372364611448    -1.072986277335697
    H               -1.588724343947106     1.656627635388552    -0.495986277335697
    H               -0.098724343947106     0.826627635388552    -0.136986277335697
    H               -3.356724343947106     0.542627635388552    -1.325986277335697
    H               -1.115724343947106    -2.186372364611448    -1.616986277335697
    H                0.163275656052894    -1.308372364611448    -0.825986277335697
    H               -2.830724343947106    -2.055372364611448    -2.592986277335696
    H               -4.290724343947105    -1.090372364611448    -2.671986277335697
    H               -4.006814343947106    -2.113353364611448    -1.247126277335697

}
e, wfn = energy('scf', return_wfn=True)
gdma(wfn)
dmavals = variable('DMA DISTRIBUTED MULTIPOLES')
charges = np.array(dmavals)
print(charges)
np.save('SSI-044GLU-084ARG-1-dimer.npy', np.array(charges))--------------------------------------------------------------------------

*** tstart() called on ds3
*** at Tue Apr 28 09:08:25 2020

   => Loading Basis Set <=

    Name: CC-PVDZ
    Role: ORBITAL
    Keyword: BASIS
    atoms 1-2, 8-9   entry C          line   138 file /theoryfs2/ds/metcalf/miniconda2/envs/tf2gpu/share/psi4/basis/cc-pvdz.gbs
    atoms 3-4        entry O          line   198 file /theoryfs2/ds/metcalf/miniconda2/envs/tf2gpu/share/psi4/basis/cc-pvdz.gbs
    atoms 5-7, 13-20 entry H          line    22 file /theoryfs2/ds/metcalf/miniconda2/envs/tf2gpu/share/psi4/basis/cc-pvdz.gbs
    atoms 10-12      entry N          line   168 file /theoryfs2/ds/metcalf/miniconda2/envs/tf2gpu/share/psi4/basis/cc-pvdz.gbs

         ---------------------------------------------------------
                                   SCF
               by Justin Turney, Rob Parrish, Andy Simmonett
                          and Daniel G. A. Smith
                              RHF Reference
                        1 Threads,    500 MiB Core
         ---------------------------------------------------------

  ==> Geometry <==

    Molecular point group: c1
    Full point group: C1

    Geometry (in Angstrom), charge = 0, multiplicity = 1:

       Center              X                  Y                   Z               Mass
    ------------   -----------------  -----------------  -----------------  -----------------
         C            2.788275656053     1.126627635389     2.819013722664    12.000000000000
         C            2.424275656053     0.645627635389     1.414013722664    12.000000000000
         O            1.442275656053     1.174627635389     0.830013722664    15.994914619570
         O            3.126275656053    -0.258372364611     0.912013722664    15.994914619570
         H            2.329275656053     0.455627635389     3.549013722664     1.007825032230
         H            2.376275656053     2.123627635389     2.984013722664     1.007825032230
         H            3.872265656053     1.153171635389     3.004103722664     1.007825032230
         C           -3.521724343947    -1.465372364611    -1.991986277336    12.000000000000
         C           -1.577724343947    -0.311372364611    -0.976986277336    12.000000000000
         N           -1.049724343947     0.807627635389    -0.517986277336    14.003074004430
         N           -2.841724343947    -0.324372364611    -1.382986277336    14.003074004430
         N           -0.808724343947    -1.382372364611    -1.072986277336    14.003074004430
         H           -1.588724343947     1.656627635389    -0.495986277336     1.007825032230
         H           -0.098724343947     0.826627635389    -0.136986277336     1.007825032230
         H           -3.356724343947     0.542627635389    -1.325986277336     1.007825032230
         H           -1.115724343947    -2.186372364611    -1.616986277336     1.007825032230
         H            0.163275656053    -1.308372364611    -0.825986277336     1.007825032230
         H           -2.830724343947    -2.055372364611    -2.592986277336     1.007825032230
         H           -4.290724343947    -1.090372364611    -2.671986277336     1.007825032230
         H           -4.006814343947    -2.113353364611    -1.247126277336     1.007825032230

  Running in c1 symmetry.

  Rotational constants: A =      0.14891  B =      0.01537  C =      0.01443 [cm^-1]
  Rotational constants: A =   4464.30054  B =    460.73133  C =    432.61813 [MHz]
  Nuclear repulsion =  437.719679491087732

  Charge       = 0
  Multiplicity = 1
  Electrons    = 72
  Nalpha       = 36
  Nbeta        = 36

  ==> Algorithm <==

  SCF Algorithm Type is PK.
  DIIS enabled.
  MOM disabled.
  Fractional occupation disabled.
  Guess Type is SAD.
  Energy threshold   = 1.00e-06
  Density threshold  = 1.00e-10
  Integral threshold = 0.00e+00

  ==> Primary Basis <==

  Basis Set: CC-PVDZ
    Blend: CC-PVDZ
    Number of shells: 87
    Number of basis function: 181
    Number of Cartesian functions: 190
    Spherical Harmonics?: true
    Max angular momentum: 2

  ==> Pre-Iterations <==

   -------------------------------------------------------
    Irrep   Nso     Nmo     Nalpha   Nbeta   Ndocc  Nsocc
   -------------------------------------------------------
     A        181     181       0       0       0       0
   -------------------------------------------------------
    Total     181     181      36      36      36       0
   -------------------------------------------------------

  ==> Integral Setup <==

  Using integral reordering PK algorithm.
  Sizing the integral batches needed.
  Building batch lookup table.
   Calculation information:
      Number of atoms:                  20
      Number of AO shells:              87
      Number of primitives:            253
      Number of atomic orbitals:       190
      Number of basis functions:       181

      Integral cutoff                 1.00e-12
      Number of threads:                 1

	Batch   1 pq = [       0,    9405] index = [             0,44231715] size =     44231715
	Batch   2 pq = [    9405,   13301] index = [      44231715,88464951] size =     44233236
	Batch   3 pq = [   13301,   16471] index = [      88464951,135655156] size =     47190205
  Task number: 13
  Buffer size: 11059200
  Buffer per thread: 2
  We computed 4836697 shell quartets total.
  Whereas there are 7328706 unique shell quartets.

  ==> DiskJK: Disk-Based J/K Matrices <==

    J tasked:                  Yes
    K tasked:                  Yes
    wK tasked:                  No
    Memory [MiB]:              375
    Schwarz Cutoff:          1E-12

    OpenMP threads:              1

  Minimum eigenvalue in the overlap matrix is 3.9041777409E-03.
  Using Symmetric Orthogonalization.

  SCF Guess: Superposition of Atomic Densities via on-the-fly atomic UHF.

  ==> Iterations <==

                        Total Energy        Delta E     RMS |[F,P]|

   @RHF iter SAD:  -469.62052951838052   -4.69621e+02   0.00000e+00
   @RHF iter   1:  -470.68326257714426   -1.06273e+00   4.26785e-03 DIIS
   @RHF iter   2:  -470.90958425009183   -2.26322e-01   2.25268e-03 DIIS
   @RHF iter   3:  -470.96974453474405   -6.01603e-02   3.95381e-04 DIIS
   @RHF iter   4:  -470.97303130812770   -3.28677e-03   1.41811e-04 DIIS
   @RHF iter   5:  -470.97343831339583   -4.07005e-04   2.74770e-05 DIIS
   @RHF iter   6:  -470.97346095589307   -2.26425e-05   1.42366e-05 DIIS
   @RHF iter   7:  -470.97346507684534   -4.12095e-06   3.72541e-06 DIIS
   @RHF iter   8:  -470.97346576597442   -6.89129e-07   1.75638e-06 DIIS
   @RHF iter   9:  -470.97346587842742   -1.12453e-07   6.07626e-07 DIIS
   @RHF iter  10:  -470.97346589940162   -2.09742e-08   2.01106e-07 DIIS
   @RHF iter  11:  -470.97346590137579   -1.97417e-09   4.98173e-08 DIIS
   @RHF iter  12:  -470.97346590147248   -9.66907e-11   1.82989e-08 DIIS
   @RHF iter  13:  -470.97346590148169   -9.20863e-12   5.79574e-09 DIIS
   @RHF iter  14:  -470.97346590148362   -1.93268e-12   1.84163e-09 DIIS
   @RHF iter  15:  -470.97346590148220    1.42109e-12   7.76857e-10 DIIS
   @RHF iter  16:  -470.97346590148595   -3.75167e-12   2.63183e-10 DIIS
   @RHF iter  17:  -470.97346590148470    1.25056e-12   9.06509e-11 DIIS
  Energy and wave function converged.

  ==> Post-Iterations <==

    Orbital Energies [Eh]
    ---------------------

    Doubly Occupied:

       1A    -20.402089     2A    -20.383120     3A    -15.671405
       4A    -15.656270     5A    -15.628249     6A    -11.456948
       7A    -11.346783     8A    -11.244771     9A    -11.153072
      10A     -1.413216    11A     -1.280857    12A     -1.277717
      13A     -1.245429    14A     -1.166851    15A     -1.033677
      16A     -0.911814    17A     -0.899837    18A     -0.846522
      19A     -0.797632    20A     -0.731666    21A     -0.712618
      22A     -0.705371    23A     -0.680799    24A     -0.629326
      25A     -0.626360    26A     -0.618786    27A     -0.529609
      28A     -0.520650    29A     -0.516518    30A     -0.482548
      31A     -0.459421    32A     -0.458294    33A     -0.426971
      34A     -0.318202    35A     -0.297869    36A     -0.295585

    Virtual:

      37A      0.106906    38A      0.129022    39A      0.152524
      40A      0.164423    41A      0.197168    42A      0.213195
      43A      0.220948    44A      0.249836    45A      0.262677
      46A      0.278988    47A      0.296133    48A      0.325805
      49A      0.362748    50A      0.378208    51A      0.403275
      52A      0.453871    53A      0.464713    54A      0.476098
      55A      0.540327    56A      0.565633    57A      0.584560
      58A      0.616259    59A      0.628337    60A      0.656368
      61A      0.666326    62A      0.682996    63A      0.687807
      64A      0.709941    65A      0.720927    66A      0.775528
      67A      0.779733    68A      0.791404    69A      0.801122
      70A      0.824883    71A      0.828975    72A      0.844894
      73A      0.859000    74A      0.870229    75A      0.890801
      76A      0.931124    77A      0.932222    78A      0.938191
      79A      0.947233    80A      0.958129    81A      0.975118
      82A      1.015876    83A      1.022040    84A      1.033304
      85A      1.049387    86A      1.094690    87A      1.105361
      88A      1.111805    89A      1.167906    90A      1.221426
      91A      1.232620    92A      1.236239    93A      1.237466
      94A      1.270211    95A      1.304525    96A      1.337516
      97A      1.357318    98A      1.360155    99A      1.429518
     100A      1.448710   101A      1.466774   102A      1.481723
     103A      1.486093   104A      1.500804   105A      1.539161
     106A      1.572507   107A      1.607082   108A      1.607715
     109A      1.633171   110A      1.637081   111A      1.652770
     112A      1.688861   113A      1.723702   114A      1.746253
     115A      1.766635   116A      1.804730   117A      1.838439
     118A      1.844448   119A      1.857501   120A      1.868416
     121A      1.897274   122A      1.900685   123A      1.915935
     124A      1.941469   125A      1.958702   126A      1.965202
     127A      1.968109   128A      1.981632   129A      2.026653
     130A      2.069337   131A      2.101650   132A      2.118698
     133A      2.138343   134A      2.150156   135A      2.186716
     136A      2.233364   137A      2.244293   138A      2.253048
     139A      2.284710   140A      2.326682   141A      2.330832
     142A      2.357930   143A      2.399145   144A      2.430240
     145A      2.436364   146A      2.456889   147A      2.476725
     148A      2.525756   149A      2.567951   150A      2.573101
     151A      2.594004   152A      2.612127   153A      2.647592
     154A      2.678691   155A      2.688272   156A      2.703927
     157A      2.763128   158A      2.812268   159A      2.842557
     160A      2.857181   161A      2.867564   162A      2.884958
     163A      2.912718   164A      2.951751   165A      2.980304
     166A      3.017546   167A      3.108165   168A      3.135413
     169A      3.151528   170A      3.192688   171A      3.225668
     172A      3.236467   173A      3.269910   174A      3.494278
     175A      3.650219   176A      3.693497   177A      3.713879
     178A      3.778187   179A      3.936415   180A      3.958912
     181A      4.068343

    Final Occupation by Irrep:
              A
    DOCC [    36 ]

  @RHF Final Energy:  -470.97346590148470

   => Energetics <=

    Nuclear Repulsion Energy =            437.7196794910877315
    One-Electron Energy =               -1511.7325850670983982
    Two-Electron Energy =                 603.0394396745260792
    Total Energy =                       -470.9734659014847011

Computation Completed

Properties will be evaluated at   0.000000,   0.000000,   0.000000 [a0]

Properties computed using the SCF density matrix

  Nuclear Dipole Moment: [e a0]
     X:    -7.9770      Y:    -1.8637      Z:    -1.2738

  Electronic Dipole Moment: [e a0]
     X:     1.7291      Y:     0.6665      Z:    -1.6218

  Dipole Moment: [e a0]
     X:    -6.2479      Y:    -1.1972      Z:    -2.8956     Total:     6.9895

  Dipole Moment: [D]
     X:   -15.8805      Y:    -3.0430      Z:    -7.3599     Total:    17.7657

*** tstop() called on ds3 at Tue Apr 28 09:09:58 2020
Module time:
	user time   =      37.07 seconds =       0.62 minutes
	system time =      18.92 seconds =       0.32 minutes
	total time  =         93 seconds =       1.55 minutes
Total time:
	user time   =      37.07 seconds =       0.62 minutes
	system time =      18.92 seconds =       0.32 minutes
	total time  =         93 seconds =       1.55 minutes
                                     G D M A

                                 by Anthony Stone

                           version 2.2.06, 22 June 2011

               Distributed Multipoles from Gaussian wavefunctions

Starting at 9:9:58 on 28 Apr 2020

Using SCF density matrix from file ./SSI/SSI-044GLU-084ARG-1-dimer.test.9635.fchk

                         Distributed Multipole Analysis

Standard DMA

Positions and radii in angstrom
Multipole moments in atomic units, ea_0^k for rank k

C          x =  2.788276  y =  1.126628  z =  2.819014 angstrom
           Maximum rank =  0   Radius =  0.650 angstrom
                   Q00  =  -0.283708

C          x =  2.424276  y =  0.645628  z =  1.414014 angstrom
           Maximum rank =  0   Radius =  0.650 angstrom
                   Q00  =   0.942425

O          x =  1.442276  y =  1.174628  z =  0.830014 angstrom
           Maximum rank =  0   Radius =  0.650 angstrom
                   Q00  =  -0.996068

O          x =  3.126276  y = -0.258372  z =  0.912014 angstrom
           Maximum rank =  0   Radius =  0.650 angstrom
                   Q00  =  -0.891447

H          x =  2.329276  y =  0.455628  z =  3.549014 angstrom
           Maximum rank =  0   Radius =  0.325 angstrom
                   Q00  =   0.091560

H          x =  2.376276  y =  2.123628  z =  2.984014 angstrom
           Maximum rank =  0   Radius =  0.325 angstrom
                   Q00  =   0.065102

H          x =  3.872266  y =  1.153172  z =  3.004104 angstrom
           Maximum rank =  0   Radius =  0.325 angstrom
                   Q00  =   0.088871

C          x = -3.521724  y = -1.465372  z = -1.991986 angstrom
           Maximum rank =  0   Radius =  0.650 angstrom
                   Q00  =  -0.114587

C          x = -1.577724  y = -0.311372  z = -0.976986 angstrom
           Maximum rank =  0   Radius =  0.650 angstrom
                   Q00  =   1.069602

N          x = -1.049724  y =  0.807628  z = -0.517986 angstrom
           Maximum rank =  0   Radius =  0.650 angstrom
                   Q00  =  -0.602493

N          x = -2.841724  y = -0.324372  z = -1.382986 angstrom
           Maximum rank =  0   Radius =  0.650 angstrom
                   Q00  =  -0.499159

N          x = -0.808724  y = -1.382372  z = -1.072986 angstrom
           Maximum rank =  0   Radius =  0.650 angstrom
                   Q00  =  -0.569244

H          x = -1.588724  y =  1.656628  z = -0.495986 angstrom
           Maximum rank =  0   Radius =  0.325 angstrom
                   Q00  =   0.234225

H          x = -0.098724  y =  0.826628  z = -0.136986 angstrom
           Maximum rank =  0   Radius =  0.325 angstrom
                   Q00  =   0.359772

H          x = -3.356724  y =  0.542628  z = -1.325986 angstrom
           Maximum rank =  0   Radius =  0.325 angstrom
                   Q00  =   0.218858

H          x = -1.115724  y = -2.186372  z = -1.616986 angstrom
           Maximum rank =  0   Radius =  0.325 angstrom
                   Q00  =   0.244090

H          x =  0.163276  y = -1.308372  z = -0.825986 angstrom
           Maximum rank =  0   Radius =  0.325 angstrom
                   Q00  =   0.283634

H          x = -2.830724  y = -2.055372  z = -2.592986 angstrom
           Maximum rank =  0   Radius =  0.325 angstrom
                   Q00  =   0.101866

H          x = -4.290724  y = -1.090372  z = -2.671986 angstrom
           Maximum rank =  0   Radius =  0.325 angstrom
                   Q00  =   0.139569

H          x = -4.006814  y = -2.113353  z = -1.247126 angstrom
           Maximum rank =  0   Radius =  0.325 angstrom
                   Q00  =   0.117132

Total multipoles referred to origin at
           x =   0.000000,  y =    0.000000,  z =    0.000000 angstrom
                   Q00  =  -0.000000

Finished at 9:9:58 on 28 Apr 2020

  DMA results are available in the Python driver through the
	  variable('DMA DISTRIBUTED MULTIPOLES')
  and
	  variable('DMA TOTAL MULTIPOLES')
  commands.

    Psi4 stopped on: Tuesday, 28 April 2020 09:09AM
    Psi4 wall time for execution: 0:01:33.40

*** Psi4 exiting successfully. Buy a developer a beer!
