                               Psi4 1.3.2 release

  ==> Input File <==

--------------------------------------------------------------------------
import numpy as np
set {scf_type pk
basis cc-pvdz
d_convergence 10
gdma_switch   0
gdma_limit    0
gdma_origin   [ 0.0,  0.0,  0.0 ]
}
molecule test {
    units Angstrom
    0 1
    --
    0 1
    C               -2.326853141379615     1.840139732650184    -3.042057262109501
    C               -1.138853141379615     0.467139732650184    -1.333057262109501
    N               -1.192853141379616    -0.198860267349816    -0.213057262109501
    N               -2.240853141379616     1.033139732650184    -1.820057262109501
    N                0.007146858620384     0.567139732650184    -1.971057262109501
    H               -2.060853141379616    -0.630860267349816     0.015942737890499
    H               -0.328853141379616    -0.608860267349816     0.164942737890499
    H               -3.085853141379616     0.922139732650184    -1.269057262109501
    H                0.113146858620384     1.125139732650184    -2.789057262109501
    H                0.855146858620384     0.148139732650184    -1.559057262109501
    H               -1.382853141379616     1.837139732650184    -3.587057262109501
    H               -2.531853141379615     2.881139732650184    -2.776057262109501
    H               -3.102223141379616     1.461819732650184    -3.724467262109501
    C                1.982146858620385     0.496139732650184     2.194942737890499
    C                1.718146858620385    -0.996860267349816     2.090942737890499
    O                0.608146858620384    -1.369860267349816     1.622942737890499
    O                2.558146858620384    -1.825860267349816     2.507942737890499
    H                1.485146858620385     0.888139732650184     3.085942737890499
    H                1.549146858620384     0.982139732650184     1.317942737890499
    H                3.055146858620384     0.730129732650184     2.257632737890499

}
e, wfn = energy('scf', return_wfn=True)
gdma(wfn)
dmavals = variable('DMA DISTRIBUTED MULTIPOLES')
charges = np.array(dmavals)
print(charges)
np.save('SSI-099ARG-216GLU-1-dimer.npy', np.array(charges))--------------------------------------------------------------------------

*** tstart() called on ds3
*** at Mon Apr 27 19:59:45 2020

   => Loading Basis Set <=

    Name: CC-PVDZ
    Role: ORBITAL
    Keyword: BASIS
    atoms 1-2, 14-15  entry C          line   138 file /theoryfs2/ds/metcalf/miniconda2/envs/tf2gpu/share/psi4/basis/cc-pvdz.gbs
    atoms 3-5         entry N          line   168 file /theoryfs2/ds/metcalf/miniconda2/envs/tf2gpu/share/psi4/basis/cc-pvdz.gbs
    atoms 6-13, 18-20 entry H          line    22 file /theoryfs2/ds/metcalf/miniconda2/envs/tf2gpu/share/psi4/basis/cc-pvdz.gbs
    atoms 16-17       entry O          line   198 file /theoryfs2/ds/metcalf/miniconda2/envs/tf2gpu/share/psi4/basis/cc-pvdz.gbs

         ---------------------------------------------------------
                                   SCF
               by Justin Turney, Rob Parrish, Andy Simmonett
                          and Daniel G. A. Smith
                              RHF Reference
                        1 Threads,    500 MiB Core
         ---------------------------------------------------------

  ==> Geometry <==

    Molecular point group: c1
    Full point group: C1

    Geometry (in Angstrom), charge = 0, multiplicity = 1:

       Center              X                  Y                   Z               Mass
    ------------   -----------------  -----------------  -----------------  -----------------
         C           -2.326853141380     1.840139732650    -3.042057262110    12.000000000000
         C           -1.138853141380     0.467139732650    -1.333057262110    12.000000000000
         N           -1.192853141380    -0.198860267350    -0.213057262110    14.003074004430
         N           -2.240853141380     1.033139732650    -1.820057262110    14.003074004430
         N            0.007146858620     0.567139732650    -1.971057262110    14.003074004430
         H           -2.060853141380    -0.630860267350     0.015942737890     1.007825032230
         H           -0.328853141380    -0.608860267350     0.164942737890     1.007825032230
         H           -3.085853141380     0.922139732650    -1.269057262110     1.007825032230
         H            0.113146858620     1.125139732650    -2.789057262110     1.007825032230
         H            0.855146858620     0.148139732650    -1.559057262110     1.007825032230
         H           -1.382853141380     1.837139732650    -3.587057262110     1.007825032230
         H           -2.531853141380     2.881139732650    -2.776057262110     1.007825032230
         H           -3.102223141380     1.461819732650    -3.724467262110     1.007825032230
         C            1.982146858620     0.496139732650     2.194942737890    12.000000000000
         C            1.718146858620    -0.996860267350     2.090942737890    12.000000000000
         O            0.608146858620    -1.369860267350     1.622942737890    15.994914619570
         O            2.558146858620    -1.825860267350     2.507942737890    15.994914619570
         H            1.485146858620     0.888139732650     3.085942737890     1.007825032230
         H            1.549146858620     0.982139732650     1.317942737890     1.007825032230
         H            3.055146858620     0.730129732650     2.257632737890     1.007825032230

  Running in c1 symmetry.

  Rotational constants: A =      0.14475  B =      0.01580  C =      0.01533 [cm^-1]
  Rotational constants: A =   4339.60034  B =    473.66506  C =    459.70320 [MHz]
  Nuclear repulsion =  442.129012849463095

  Charge       = 0
  Multiplicity = 1
  Electrons    = 72
  Nalpha       = 36
  Nbeta        = 36

  ==> Algorithm <==

  SCF Algorithm Type is PK.
  DIIS enabled.
  MOM disabled.
  Fractional occupation disabled.
  Guess Type is SAD.
  Energy threshold   = 1.00e-06
  Density threshold  = 1.00e-10
  Integral threshold = 0.00e+00

  ==> Primary Basis <==

  Basis Set: CC-PVDZ
    Blend: CC-PVDZ
    Number of shells: 87
    Number of basis function: 181
    Number of Cartesian functions: 190
    Spherical Harmonics?: true
    Max angular momentum: 2

  ==> Pre-Iterations <==

   -------------------------------------------------------
    Irrep   Nso     Nmo     Nalpha   Nbeta   Ndocc  Nsocc
   -------------------------------------------------------
     A        181     181       0       0       0       0
   -------------------------------------------------------
    Total     181     181      36      36      36       0
   -------------------------------------------------------

  ==> Integral Setup <==

  Using integral reordering PK algorithm.
  Sizing the integral batches needed.
  Building batch lookup table.
   Calculation information:
      Number of atoms:                  20
      Number of AO shells:              87
      Number of primitives:            253
      Number of atomic orbitals:       190
      Number of basis functions:       181

      Integral cutoff                 1.00e-12
      Number of threads:                 1

	Batch   1 pq = [       0,    9405] index = [             0,44231715] size =     44231715
	Batch   2 pq = [    9405,   13301] index = [      44231715,88464951] size =     44233236
	Batch   3 pq = [   13301,   16471] index = [      88464951,135655156] size =     47190205
  Task number: 13
  Buffer size: 11059200
  Buffer per thread: 2
  We computed 5499811 shell quartets total.
  Whereas there are 7328706 unique shell quartets.

  ==> DiskJK: Disk-Based J/K Matrices <==

    J tasked:                  Yes
    K tasked:                  Yes
    wK tasked:                  No
    Memory [MiB]:              375
    Schwarz Cutoff:          1E-12

    OpenMP threads:              1

  Minimum eigenvalue in the overlap matrix is 3.7499971121E-03.
  Using Symmetric Orthogonalization.

  SCF Guess: Superposition of Atomic Densities via on-the-fly atomic UHF.

  ==> Iterations <==

                        Total Energy        Delta E     RMS |[F,P]|

   @RHF iter SAD:  -469.67351967096653   -4.69674e+02   0.00000e+00
   @RHF iter   1:  -470.65258920644578   -9.79070e-01   4.31966e-03 DIIS
   @RHF iter   2:  -470.88477897240489   -2.32190e-01   2.33449e-03 DIIS
   @RHF iter   3:  -470.94893377995811   -6.41548e-02   4.11087e-04 DIIS
   @RHF iter   4:  -470.95244655684888   -3.51278e-03   1.49846e-04 DIIS
   @RHF iter   5:  -470.95290317264869   -4.56616e-04   2.96525e-05 DIIS
   @RHF iter   6:  -470.95292911685715   -2.59442e-05   1.55934e-05 DIIS
   @RHF iter   7:  -470.95293412793649   -5.01108e-06   4.09954e-06 DIIS
   @RHF iter   8:  -470.95293497379373   -8.45857e-07   1.96559e-06 DIIS
   @RHF iter   9:  -470.95293511882045   -1.45027e-07   6.96022e-07 DIIS
   @RHF iter  10:  -470.95293514631373   -2.74933e-08   2.19972e-07 DIIS
   @RHF iter  11:  -470.95293514859492   -2.28118e-09   5.93422e-08 DIIS
   @RHF iter  12:  -470.95293514869905   -1.04137e-10   2.10573e-08 DIIS
   @RHF iter  13:  -470.95293514871742   -1.83604e-11   6.22759e-09 DIIS
   @RHF iter  14:  -470.95293514871861   -1.19371e-12   2.01714e-09 DIIS
   @RHF iter  15:  -470.95293514871776    8.52651e-13   7.00465e-10 DIIS
   @RHF iter  16:  -470.95293514871724    5.11591e-13   2.12568e-10 DIIS
   @RHF iter  17:  -470.95293514871724    0.00000e+00   7.32359e-11 DIIS
  Energy and wave function converged.

  ==> Post-Iterations <==

    Orbital Energies [Eh]
    ---------------------

    Doubly Occupied:

       1A    -20.396402     2A    -20.379144     3A    -15.676654
       4A    -15.670985     5A    -15.631402     6A    -11.462521
       7A    -11.353136     8A    -11.241737     9A    -11.169444
      10A     -1.425043    11A     -1.287291    12A     -1.274849
      13A     -1.260507    14A     -1.158579    15A     -1.038636
      16A     -0.920490    17A     -0.916401    18A     -0.857247
      19A     -0.805930    20A     -0.734955    21A     -0.733972
      22A     -0.705074    23A     -0.685174    24A     -0.638864
      25A     -0.630172    26A     -0.622529    27A     -0.531942
      28A     -0.529570    29A     -0.524373    30A     -0.492509
      31A     -0.467757    32A     -0.463010    33A     -0.426831
      34A     -0.315638    35A     -0.292827    36A     -0.287297

    Virtual:

      37A      0.102009    38A      0.124955    39A      0.144295
      40A      0.151758    41A      0.178478    42A      0.199602
      43A      0.211566    44A      0.247389    45A      0.257096
      46A      0.272647    47A      0.285364    48A      0.310263
      49A      0.353664    50A      0.369294    51A      0.398043
      52A      0.447924    53A      0.461992    54A      0.483574
      55A      0.521047    56A      0.536903    57A      0.580137
      58A      0.608943    59A      0.619300    60A      0.655333
      61A      0.668893    62A      0.676365    63A      0.687896
      64A      0.708976    65A      0.728771    66A      0.752514
      67A      0.754045    68A      0.780357    69A      0.788276
      70A      0.812162    71A      0.820636    72A      0.843793
      73A      0.849076    74A      0.868009    75A      0.890867
      76A      0.910217    77A      0.924565    78A      0.928763
      79A      0.939525    80A      0.960565    81A      0.969012
      82A      0.972956    83A      0.999974    84A      1.024829
      85A      1.053893    86A      1.070976    87A      1.104896
      88A      1.127396    89A      1.146533    90A      1.219013
      91A      1.233733    92A      1.237971    93A      1.252931
      94A      1.265382    95A      1.287517    96A      1.323128
      97A      1.339337    98A      1.360254    99A      1.430585
     100A      1.451208   101A      1.462427   102A      1.470534
     103A      1.476774   104A      1.522504   105A      1.560390
     106A      1.567287   107A      1.596269   108A      1.610769
     109A      1.613644   110A      1.625680   111A      1.649199
     112A      1.673168   113A      1.724745   114A      1.726968
     115A      1.776206   116A      1.798645   117A      1.812678
     118A      1.830484   119A      1.839910   120A      1.856027
     121A      1.875477   122A      1.899200   123A      1.920790
     124A      1.934592   125A      1.949806   126A      1.957164
     127A      1.983774   128A      1.988197   129A      2.026156
     130A      2.044397   131A      2.090366   132A      2.102677
     133A      2.119010   134A      2.136682   135A      2.156601
     136A      2.194602   137A      2.221688   138A      2.264313
     139A      2.298456   140A      2.300531   141A      2.311812
     142A      2.347270   143A      2.392410   144A      2.403623
     145A      2.426203   146A      2.451016   147A      2.457791
     148A      2.501633   149A      2.552501   150A      2.564353
     151A      2.581298   152A      2.598391   153A      2.662087
     154A      2.667637   155A      2.704990   156A      2.731022
     157A      2.753189   158A      2.800737   159A      2.813717
     160A      2.854711   161A      2.863388   162A      2.876990
     163A      2.898001   164A      2.954612   165A      2.993654
     166A      3.046264   167A      3.113563   168A      3.151264
     169A      3.164840   170A      3.187893   171A      3.215556
     172A      3.233085   173A      3.286836   174A      3.516051
     175A      3.621756   176A      3.690137   177A      3.698208
     178A      3.758295   179A      3.934830   180A      3.965401
     181A      4.064370

    Final Occupation by Irrep:
              A
    DOCC [    36 ]

  @RHF Final Energy:  -470.95293514871724

   => Energetics <=

    Nuclear Repulsion Energy =            442.1290128494630949
    One-Electron Energy =               -1520.1461101958648214
    Two-Electron Energy =                 607.0641621976843680
    Total Energy =                       -470.9529351487173017

Computation Completed

Properties will be evaluated at   0.000000,   0.000000,   0.000000 [a0]

Properties computed using the SCF density matrix

  Nuclear Dipole Moment: [e a0]
     X:    -5.0698      Y:     9.1080      Z:    -8.2767

  Electronic Dipole Moment: [e a0]
     X:     0.7468      Y:    -5.3304      Z:     2.5523

  Dipole Moment: [e a0]
     X:    -4.3229      Y:     3.7775      Z:    -5.7244     Total:     8.1072

  Dipole Moment: [D]
     X:   -10.9878      Y:     9.6016      Z:   -14.5500     Total:    20.6064

*** tstop() called on ds3 at Mon Apr 27 20:00:43 2020
Module time:
	user time   =      40.52 seconds =       0.68 minutes
	system time =      19.76 seconds =       0.33 minutes
	total time  =         58 seconds =       0.97 minutes
Total time:
	user time   =      40.52 seconds =       0.68 minutes
	system time =      19.76 seconds =       0.33 minutes
	total time  =         58 seconds =       0.97 minutes
                                     G D M A

                                 by Anthony Stone

                           version 2.2.06, 22 June 2011

               Distributed Multipoles from Gaussian wavefunctions

Starting at 20:0:43 on 27 Apr 2020

Using SCF density matrix from file ./SSI/SSI-099ARG-216GLU-1-dimer.test.11335.fchk

                         Distributed Multipole Analysis

Standard DMA

Positions and radii in angstrom
Multipole moments in atomic units, ea_0^k for rank k

C          x = -2.326853  y =  1.840140  z = -3.042057 angstrom
           Maximum rank =  0   Radius =  0.650 angstrom
                   Q00  =  -0.109636

C          x = -1.138853  y =  0.467140  z = -1.333057 angstrom
           Maximum rank =  0   Radius =  0.650 angstrom
                   Q00  =   1.068645

N          x = -1.192853  y = -0.198860  z = -0.213057 angstrom
           Maximum rank =  0   Radius =  0.650 angstrom
                   Q00  =  -0.559730

N          x = -2.240853  y =  1.033140  z = -1.820057 angstrom
           Maximum rank =  0   Radius =  0.650 angstrom
                   Q00  =  -0.506264

N          x =  0.007147  y =  0.567140  z = -1.971057 angstrom
           Maximum rank =  0   Radius =  0.650 angstrom
                   Q00  =  -0.584016

H          x = -2.060853  y = -0.630860  z =  0.015943 angstrom
           Maximum rank =  0   Radius =  0.325 angstrom
                   Q00  =   0.237188

H          x = -0.328853  y = -0.608860  z =  0.164943 angstrom
           Maximum rank =  0   Radius =  0.325 angstrom
                   Q00  =   0.299542

H          x = -3.085853  y =  0.922140  z = -1.269057 angstrom
           Maximum rank =  0   Radius =  0.325 angstrom
                   Q00  =   0.223231

H          x =  0.113147  y =  1.125140  z = -2.789057 angstrom
           Maximum rank =  0   Radius =  0.325 angstrom
                   Q00  =   0.237030

H          x =  0.855147  y =  0.148140  z = -1.559057 angstrom
           Maximum rank =  0   Radius =  0.325 angstrom
                   Q00  =   0.283090

H          x = -1.382853  y =  1.837140  z = -3.587057 angstrom
           Maximum rank =  0   Radius =  0.325 angstrom
                   Q00  =   0.105256

H          x = -2.531853  y =  2.881140  z = -2.776057 angstrom
           Maximum rank =  0   Radius =  0.325 angstrom
                   Q00  =   0.123662

H          x = -3.102223  y =  1.461820  z = -3.724467 angstrom
           Maximum rank =  0   Radius =  0.325 angstrom
                   Q00  =   0.130684

C          x =  1.982147  y =  0.496140  z =  2.194943 angstrom
           Maximum rank =  0   Radius =  0.650 angstrom
                   Q00  =  -0.268110

C          x =  1.718147  y = -0.996860  z =  2.090943 angstrom
           Maximum rank =  0   Radius =  0.650 angstrom
                   Q00  =   0.922463

O          x =  0.608147  y = -1.369860  z =  1.622943 angstrom
           Maximum rank =  0   Radius =  0.650 angstrom
                   Q00  =  -0.947143

O          x =  2.558147  y = -1.825860  z =  2.507943 angstrom
           Maximum rank =  0   Radius =  0.650 angstrom
                   Q00  =  -0.868654

H          x =  1.485147  y =  0.888140  z =  3.085943 angstrom
           Maximum rank =  0   Radius =  0.325 angstrom
                   Q00  =   0.107054

H          x =  1.549147  y =  0.982140  z =  1.317943 angstrom
           Maximum rank =  0   Radius =  0.325 angstrom
                   Q00  =   0.022345

H          x =  3.055147  y =  0.730130  z =  2.257633 angstrom
           Maximum rank =  0   Radius =  0.325 angstrom
                   Q00  =   0.083363

Total multipoles referred to origin at
           x =   0.000000,  y =    0.000000,  z =    0.000000 angstrom
                   Q00  =  -0.000000

Finished at 20:0:43 on 27 Apr 2020

  DMA results are available in the Python driver through the
	  variable('DMA DISTRIBUTED MULTIPOLES')
  and
	  variable('DMA TOTAL MULTIPOLES')
  commands.

    Psi4 stopped on: Monday, 27 April 2020 08:00PM
    Psi4 wall time for execution: 0:00:58.51

*** Psi4 exiting successfully. Buy a developer a beer!
