                               Psi4 1.3.2 release

  ==> Input File <==

--------------------------------------------------------------------------
import numpy as np
set {scf_type pk
basis cc-pvdz
d_convergence 10
gdma_switch   0
gdma_limit    0
gdma_origin   [ 0.0,  0.0,  0.0 ]
}
molecule test {
    units Angstrom
    0 1
    --
    0 1
    C               -1.059748957431343     2.318048387988010     1.906604731123992
    C               -0.891748957431343     2.487048387988010     0.405604731123992
    O               -1.863748957431343     2.645048387988010    -0.330395268876008
    N                0.347251042568657     2.460048387988011    -0.061395268876008
    H               -1.201748957431343     3.301048387988010     2.356604731123992
    H               -0.141748957431343     1.895048387988010     2.304604731123991
    H                0.494251042568657     2.523048387988010    -1.056395268876008
    H                1.119251042568657     2.412048387988011     0.581604731123992
    H               -1.902598957431343     1.658738387988010     2.161402731123992
    C                0.723251042568657    -3.182951612011990     2.019604731123992
    C               -0.785748957431343    -0.885951612011990    -0.622395268876008
    C               -0.665748957431343    -1.766951612011990     0.459604731123992
    C                0.354251042568657    -0.492951612011990    -1.323395268876008
    C                0.587251042568657    -2.254951612011990     0.841604731123992
    C                1.606251042568657    -0.970951612011990    -0.946395268876008
    C                1.718251042568657    -1.847951612011990     0.129604731123992
    O                0.254251042568657     0.361048387988010    -2.383395268876008
    H               -1.754748957431343    -0.507951612011990    -0.910395268876008
    H               -1.550748957431343    -2.065951612011990     1.006604731123992
    H               -0.660748957431343     0.612048387988010    -2.552395268876008
    H                2.484251042568657    -0.645951612011990    -1.477395268876008
    H                1.610251042568657    -3.801951612011989     1.895604731123992
    H               -0.143748957431343    -3.845951612011989     2.037604731123992
    H                2.693251042568657    -2.213951612011989     0.415604731123992
    H                0.786591042568657    -2.653911612011989     2.981949731123992

}
e, wfn = energy('scf', return_wfn=True)
gdma(wfn)
dmavals = variable('DMA DISTRIBUTED MULTIPOLES')
charges = np.array(dmavals)
print(charges)
np.save('SSI-050GLN-055TYR-1-dimer.npy', np.array(charges))--------------------------------------------------------------------------

*** tstart() called on ds3
*** at Mon Apr 27 14:05:29 2020

   => Loading Basis Set <=

    Name: CC-PVDZ
    Role: ORBITAL
    Keyword: BASIS
    atoms 1-2, 10-16 entry C          line   138 file /theoryfs2/ds/metcalf/miniconda2/envs/tf2gpu/share/psi4/basis/cc-pvdz.gbs
    atoms 3, 17      entry O          line   198 file /theoryfs2/ds/metcalf/miniconda2/envs/tf2gpu/share/psi4/basis/cc-pvdz.gbs
    atoms 4          entry N          line   168 file /theoryfs2/ds/metcalf/miniconda2/envs/tf2gpu/share/psi4/basis/cc-pvdz.gbs
    atoms 5-9, 18-25 entry H          line    22 file /theoryfs2/ds/metcalf/miniconda2/envs/tf2gpu/share/psi4/basis/cc-pvdz.gbs

         ---------------------------------------------------------
                                   SCF
               by Justin Turney, Rob Parrish, Andy Simmonett
                          and Daniel G. A. Smith
                              RHF Reference
                        1 Threads,    500 MiB Core
         ---------------------------------------------------------

  ==> Geometry <==

    Molecular point group: c1
    Full point group: C1

    Geometry (in Angstrom), charge = 0, multiplicity = 1:

       Center              X                  Y                   Z               Mass
    ------------   -----------------  -----------------  -----------------  -----------------
         C           -1.059748957431     2.318048387988     1.906604731124    12.000000000000
         C           -0.891748957431     2.487048387988     0.405604731124    12.000000000000
         O           -1.863748957431     2.645048387988    -0.330395268876    15.994914619570
         N            0.347251042569     2.460048387988    -0.061395268876    14.003074004430
         H           -1.201748957431     3.301048387988     2.356604731124     1.007825032230
         H           -0.141748957431     1.895048387988     2.304604731124     1.007825032230
         H            0.494251042569     2.523048387988    -1.056395268876     1.007825032230
         H            1.119251042569     2.412048387988     0.581604731124     1.007825032230
         H           -1.902598957431     1.658738387988     2.161402731124     1.007825032230
         C            0.723251042569    -3.182951612012     2.019604731124    12.000000000000
         C           -0.785748957431    -0.885951612012    -0.622395268876    12.000000000000
         C           -0.665748957431    -1.766951612012     0.459604731124    12.000000000000
         C            0.354251042569    -0.492951612012    -1.323395268876    12.000000000000
         C            0.587251042569    -2.254951612012     0.841604731124    12.000000000000
         C            1.606251042569    -0.970951612012    -0.946395268876    12.000000000000
         C            1.718251042569    -1.847951612012     0.129604731124    12.000000000000
         O            0.254251042569     0.361048387988    -2.383395268876    15.994914619570
         H           -1.754748957431    -0.507951612012    -0.910395268876     1.007825032230
         H           -1.550748957431    -2.065951612012     1.006604731124     1.007825032230
         H           -0.660748957431     0.612048387988    -2.552395268876     1.007825032230
         H            2.484251042569    -0.645951612012    -1.477395268876     1.007825032230
         H            1.610251042569    -3.801951612012     1.895604731124     1.007825032230
         H           -0.143748957431    -3.845951612012     2.037604731124     1.007825032230
         H            2.693251042569    -2.213951612012     0.415604731124     1.007825032230
         H            0.786591042569    -2.653911612012     2.981949731124     1.007825032230

  Running in c1 symmetry.

  Rotational constants: A =      0.04266  B =      0.01890  C =      0.01571 [cm^-1]
  Rotational constants: A =   1278.93032  B =    566.65910  C =    471.07889 [MHz]
  Nuclear repulsion =  683.183898450057654

  Charge       = 0
  Multiplicity = 1
  Electrons    = 90
  Nalpha       = 45
  Nbeta        = 45

  ==> Algorithm <==

  SCF Algorithm Type is PK.
  DIIS enabled.
  MOM disabled.
  Fractional occupation disabled.
  Guess Type is SAD.
  Energy threshold   = 1.00e-06
  Density threshold  = 1.00e-10
  Integral threshold = 0.00e+00

  ==> Primary Basis <==

  Basis Set: CC-PVDZ
    Blend: CC-PVDZ
    Number of shells: 111
    Number of basis function: 233
    Number of Cartesian functions: 245
    Spherical Harmonics?: true
    Max angular momentum: 2

  ==> Pre-Iterations <==

   -------------------------------------------------------
    Irrep   Nso     Nmo     Nalpha   Nbeta   Ndocc  Nsocc
   -------------------------------------------------------
     A        233     233       0       0       0       0
   -------------------------------------------------------
    Total     233     233      45      45      45       0
   -------------------------------------------------------

  ==> Integral Setup <==

  Using integral reordering PK algorithm.
  Sizing the integral batches needed.
  Building batch lookup table.
   Calculation information:
      Number of atoms:                  25
      Number of AO shells:             111
      Number of primitives:            329
      Number of atomic orbitals:       245
      Number of basis functions:       233

      Integral cutoff                 1.00e-12
      Number of threads:                 1

	Batch   1 pq = [       0,    9405] index = [             0,44231715] size =     44231715
	Batch   2 pq = [    9405,   13301] index = [      44231715,88464951] size =     44233236
	Batch   3 pq = [   13301,   16290] index = [      88464951,132690195] size =     44225244
	Batch   4 pq = [   16290,   18810] index = [     132690195,176917455] size =     44227260
	Batch   5 pq = [   18810,   21030] index = [     176917455,221140965] size =     44223510
	Batch   6 pq = [   21030,   23037] index = [     221140965,265363203] size =     44222238
	Batch   7 pq = [   23037,   24883] index = [     265363203,309594286] size =     44231083
	Batch   8 pq = [   24883,   26601] index = [     309594286,353819901] size =     44225615
	Batch   9 pq = [   26601,   27261] index = [     353819901,371594691] size =     17774790
  Task number: 34
  Buffer size: 11059200
  Buffer per thread: 2
  We computed 19740155 shell quartets total.
  Whereas there are 19322436 unique shell quartets.
     2.16 percent of shell quartets recomputed by reordering.

  ==> DiskJK: Disk-Based J/K Matrices <==

    J tasked:                  Yes
    K tasked:                  Yes
    wK tasked:                  No
    Memory [MiB]:              375
    Schwarz Cutoff:          1E-12

    OpenMP threads:              1

  Minimum eigenvalue in the overlap matrix is 3.2374226226E-04.
  Using Symmetric Orthogonalization.

  SCF Guess: Superposition of Atomic Densities via on-the-fly atomic UHF.

  ==> Iterations <==

                        Total Energy        Delta E     RMS |[F,P]|

   @RHF iter SAD:  -551.25480375290044   -5.51255e+02   0.00000e+00
   @RHF iter   1:  -552.30435465670678   -1.04955e+00   3.19922e-03 DIIS
   @RHF iter   2:  -552.55932442884875   -2.54970e-01   1.64264e-03 DIIS
   @RHF iter   3:  -552.61662847948151   -5.73041e-02   3.80374e-04 DIIS
   @RHF iter   4:  -552.62117322830875   -4.54475e-03   1.54112e-04 DIIS
   @RHF iter   5:  -552.62192975275161   -7.56524e-04   2.33663e-05 DIIS
   @RHF iter   6:  -552.62196599701224   -3.62443e-05   1.06553e-05 DIIS
   @RHF iter   7:  -552.62197199649802   -5.99949e-06   3.84746e-06 DIIS
   @RHF iter   8:  -552.62197318999654   -1.19350e-06   1.44597e-06 DIIS
   @RHF iter   9:  -552.62197334231837   -1.52322e-07   5.37498e-07 DIIS
   @RHF iter  10:  -552.62197336007512   -1.77567e-08   1.89019e-07 DIIS
   @RHF iter  11:  -552.62197336281304   -2.73792e-09   5.84225e-08 DIIS
   @RHF iter  12:  -552.62197336309112   -2.78078e-10   2.74274e-08 DIIS
   @RHF iter  13:  -552.62197336315739   -6.62794e-11   1.15538e-08 DIIS
   @RHF iter  14:  -552.62197336317217   -1.47793e-11   5.74851e-09 DIIS
   @RHF iter  15:  -552.62197336317752   -5.34328e-12   2.30996e-09 DIIS
   @RHF iter  16:  -552.62197336318241   -4.88853e-12   7.73383e-10 DIIS
   @RHF iter  17:  -552.62197336318320   -7.95808e-13   2.88673e-10 DIIS
   @RHF iter  18:  -552.62197336318320    0.00000e+00   7.96823e-11 DIIS
  Energy and wave function converged.

  ==> Post-Iterations <==

    Orbital Energies [Eh]
    ---------------------

    Doubly Occupied:

       1A    -20.586080     2A    -20.499798     3A    -15.581138
       4A    -11.344154     5A    -11.300625     6A    -11.241800
       7A    -11.240668     8A    -11.239324     9A    -11.236183
      10A    -11.233852    11A    -11.232664    12A    -11.230512
      13A     -1.401273    14A     -1.364235    15A     -1.212319
      16A     -1.151058    17A     -1.039106    18A     -1.018498
      19A     -0.995961    20A     -0.927943    21A     -0.845811
      22A     -0.803375    23A     -0.793602    24A     -0.732524
      25A     -0.724434    26A     -0.669127    27A     -0.650877
      28A     -0.643009    29A     -0.611335    30A     -0.608467
      31A     -0.588718    32A     -0.587126    33A     -0.574526
      34A     -0.570194    35A     -0.564873    36A     -0.555514
      37A     -0.528658    38A     -0.517793    39A     -0.499475
      40A     -0.487058    41A     -0.468653    42A     -0.406651
      43A     -0.398884    44A     -0.339985    45A     -0.303115

    Virtual:

      46A      0.126403    47A      0.150379    48A      0.168625
      49A      0.185398    50A      0.194392    51A      0.208354
      52A      0.209949    53A      0.213982    54A      0.235823
      55A      0.245071    56A      0.254597    57A      0.271981
      58A      0.278288    59A      0.289454    60A      0.291294
      61A      0.297867    62A      0.367450    63A      0.370884
      64A      0.383331    65A      0.424664    66A      0.452393
      67A      0.471997    68A      0.480399    69A      0.493797
      70A      0.501824    71A      0.545247    72A      0.604545
      73A      0.628290    74A      0.630530    75A      0.641928
      76A      0.653610    77A      0.664822    78A      0.672142
      79A      0.684369    80A      0.704736    81A      0.705634
      82A      0.712294    83A      0.732062    84A      0.736980
      85A      0.739332    86A      0.758506    87A      0.768209
      88A      0.771747    89A      0.782399    90A      0.789455
      91A      0.824045    92A      0.837625    93A      0.848701
      94A      0.856884    95A      0.865418    96A      0.873049
      97A      0.875165    98A      0.886033    99A      0.891233
     100A      0.904166   101A      0.917727   102A      0.922929
     103A      0.930915   104A      0.935190   105A      0.940995
     106A      0.947013   107A      0.973205   108A      1.003123
     109A      1.013318   110A      1.023335   111A      1.046285
     112A      1.073370   113A      1.093528   114A      1.110784
     115A      1.127756   116A      1.139683   117A      1.154151
     118A      1.166612   119A      1.184837   120A      1.212355
     121A      1.240957   122A      1.248517   123A      1.262238
     124A      1.279517   125A      1.289470   126A      1.300770
     127A      1.306560   128A      1.349940   129A      1.357134
     130A      1.367786   131A      1.376864   132A      1.404304
     133A      1.406590   134A      1.419582   135A      1.439662
     136A      1.470164   137A      1.489344   138A      1.504117
     139A      1.515030   140A      1.534614   141A      1.558591
     142A      1.612395   143A      1.630388   144A      1.648775
     145A      1.663269   146A      1.681546   147A      1.699700
     148A      1.720277   149A      1.740606   150A      1.747822
     151A      1.781159   152A      1.803496   153A      1.822461
     154A      1.833597   155A      1.869826   156A      1.871995
     157A      1.875942   158A      1.889426   159A      1.896712
     160A      1.902295   161A      1.913987   162A      1.921135
     163A      1.925509   164A      1.928875   165A      1.943885
     166A      1.951016   167A      1.972357   168A      1.982458
     169A      2.001819   170A      2.010777   171A      2.040864
     172A      2.044378   173A      2.053204   174A      2.062898
     175A      2.066960   176A      2.085151   177A      2.112421
     178A      2.142127   179A      2.143583   180A      2.158398
     181A      2.177501   182A      2.200695   183A      2.223906
     184A      2.233856   185A      2.258686   186A      2.273557
     187A      2.285153   188A      2.294125   189A      2.324749
     190A      2.408055   191A      2.423876   192A      2.442775
     193A      2.458028   194A      2.463621   195A      2.468825
     196A      2.485391   197A      2.504301   198A      2.533714
     199A      2.552257   200A      2.570533   201A      2.595142
     202A      2.611814   203A      2.642437   204A      2.653260
     205A      2.740079   206A      2.753412   207A      2.766614
     208A      2.775874   209A      2.787801   210A      2.805285
     211A      2.813788   212A      2.838788   213A      2.858337
     214A      2.900101   215A      2.968405   216A      2.978155
     217A      3.017101   218A      3.084930   219A      3.097838
     220A      3.107081   221A      3.133535   222A      3.252231
     223A      3.278867   224A      3.315031   225A      3.344213
     226A      3.502071   227A      3.540565   228A      3.581382
     229A      3.677048   230A      3.872123   231A      3.908962
     232A      3.965910   233A      4.193650

    Final Occupation by Irrep:
              A
    DOCC [    45 ]

  @RHF Final Energy:  -552.62197336318320

   => Energetics <=

    Nuclear Repulsion Energy =            683.1838984500576544
    One-Electron Energy =               -2108.5097964724059239
    Two-Electron Energy =                 872.7039246591649544
    Total Energy =                       -552.6219733631832014

Computation Completed

Properties will be evaluated at   0.000000,   0.000000,   0.000000 [a0]

Properties computed using the SCF density matrix

  Nuclear Dipole Moment: [e a0]
     X:     1.7085      Y:    -3.1179      Z:     9.1228

  Electronic Dipole Moment: [e a0]
     X:    -0.7670      Y:     2.8506      Z:    -8.1712

  Dipole Moment: [e a0]
     X:     0.9415      Y:    -0.2673      Z:     0.9516     Total:     1.3651

  Dipole Moment: [D]
     X:     2.3931      Y:    -0.6794      Z:     2.4188     Total:     3.4697

*** tstop() called on ds3 at Mon Apr 27 14:11:25 2020
Module time:
	user time   =     158.25 seconds =       2.64 minutes
	system time =      58.31 seconds =       0.97 minutes
	total time  =        356 seconds =       5.93 minutes
Total time:
	user time   =     158.25 seconds =       2.64 minutes
	system time =      58.31 seconds =       0.97 minutes
	total time  =        356 seconds =       5.93 minutes
                                     G D M A

                                 by Anthony Stone

                           version 2.2.06, 22 June 2011

               Distributed Multipoles from Gaussian wavefunctions

Starting at 14:11:25 on 27 Apr 2020

Using SCF density matrix from file ./SSI/SSI-050GLN-055TYR-1-dimer.test.8726.fchk

                         Distributed Multipole Analysis

Standard DMA

Positions and radii in angstrom
Multipole moments in atomic units, ea_0^k for rank k

C          x = -1.059749  y =  2.318048  z =  1.906605 angstrom
           Maximum rank =  0   Radius =  0.650 angstrom
                   Q00  =  -0.259643

C          x = -0.891749  y =  2.487048  z =  0.405605 angstrom
           Maximum rank =  0   Radius =  0.650 angstrom
                   Q00  =   0.810571

O          x = -1.863749  y =  2.645048  z = -0.330395 angstrom
           Maximum rank =  0   Radius =  0.650 angstrom
                   Q00  =  -0.806045

N          x =  0.347251  y =  2.460048  z = -0.061395 angstrom
           Maximum rank =  0   Radius =  0.650 angstrom
                   Q00  =  -0.517792

H          x = -1.201749  y =  3.301048  z =  2.356605 angstrom
           Maximum rank =  0   Radius =  0.325 angstrom
                   Q00  =   0.127925

H          x = -0.141749  y =  1.895048  z =  2.304605 angstrom
           Maximum rank =  0   Radius =  0.325 angstrom
                   Q00  =   0.077659

H          x =  0.494251  y =  2.523048  z = -1.056395 angstrom
           Maximum rank =  0   Radius =  0.325 angstrom
                   Q00  =   0.230336

H          x =  1.119251  y =  2.412048  z =  0.581605 angstrom
           Maximum rank =  0   Radius =  0.325 angstrom
                   Q00  =   0.205306

H          x = -1.902599  y =  1.658738  z =  2.161403 angstrom
           Maximum rank =  0   Radius =  0.325 angstrom
                   Q00  =   0.131439

C          x =  0.723251  y = -3.182952  z =  2.019605 angstrom
           Maximum rank =  0   Radius =  0.650 angstrom
                   Q00  =  -0.190875

C          x = -0.785749  y = -0.885952  z = -0.622395 angstrom
           Maximum rank =  0   Radius =  0.650 angstrom
                   Q00  =  -0.190766

C          x = -0.665749  y = -1.766952  z =  0.459605 angstrom
           Maximum rank =  0   Radius =  0.650 angstrom
                   Q00  =  -0.070517

C          x =  0.354251  y = -0.492952  z = -1.323395 angstrom
           Maximum rank =  0   Radius =  0.650 angstrom
                   Q00  =   0.351141

C          x =  0.587251  y = -2.254952  z =  0.841605 angstrom
           Maximum rank =  0   Radius =  0.650 angstrom
                   Q00  =  -0.136843

C          x =  1.606251  y = -0.970952  z = -0.946395 angstrom
           Maximum rank =  0   Radius =  0.650 angstrom
                   Q00  =  -0.116955

C          x =  1.718251  y = -1.847952  z =  0.129605 angstrom
           Maximum rank =  0   Radius =  0.650 angstrom
                   Q00  =   0.027009

O          x =  0.254251  y =  0.361048  z = -2.383395 angstrom
           Maximum rank =  0   Radius =  0.650 angstrom
                   Q00  =  -0.679314

H          x = -1.754749  y = -0.507952  z = -0.910395 angstrom
           Maximum rank =  0   Radius =  0.325 angstrom
                   Q00  =   0.088325

H          x = -1.550749  y = -2.065952  z =  1.006605 angstrom
           Maximum rank =  0   Radius =  0.325 angstrom
                   Q00  =   0.069520

H          x = -0.660749  y =  0.612048  z = -2.552395 angstrom
           Maximum rank =  0   Radius =  0.325 angstrom
                   Q00  =   0.420761

H          x =  2.484251  y = -0.645952  z = -1.477395 angstrom
           Maximum rank =  0   Radius =  0.325 angstrom
                   Q00  =   0.076110

H          x =  1.610251  y = -3.801952  z =  1.895605 angstrom
           Maximum rank =  0   Radius =  0.325 angstrom
                   Q00  =   0.097164

H          x = -0.143749  y = -3.845952  z =  2.037605 angstrom
           Maximum rank =  0   Radius =  0.325 angstrom
                   Q00  =   0.096424

H          x =  2.693251  y = -2.213952  z =  0.415605 angstrom
           Maximum rank =  0   Radius =  0.325 angstrom
                   Q00  =   0.062309

H          x =  0.786591  y = -2.653912  z =  2.981950 angstrom
           Maximum rank =  0   Radius =  0.325 angstrom
                   Q00  =   0.096750

Total multipoles referred to origin at
           x =   0.000000,  y =    0.000000,  z =    0.000000 angstrom
                   Q00  =  -0.000000

Finished at 14:11:25 on 27 Apr 2020

  DMA results are available in the Python driver through the
	  variable('DMA DISTRIBUTED MULTIPOLES')
  and
	  variable('DMA TOTAL MULTIPOLES')
  commands.

    Psi4 stopped on: Monday, 27 April 2020 02:11PM
    Psi4 wall time for execution: 0:05:56.71

*** Psi4 exiting successfully. Buy a developer a beer!
