                               Psi4 1.3.2 release

  ==> Input File <==

--------------------------------------------------------------------------
import numpy as np
set {scf_type pk
basis cc-pvdz
d_convergence 10
gdma_switch   0
gdma_limit    0
gdma_origin   [ 0.0,  0.0,  0.0 ]
}
molecule test {
    units Angstrom
    0 1
    --
    0 1
    C                1.963124025985552     2.632461397155367    -1.787260538386195
    C               -0.406875974014448     0.023461397155367    -0.349260538386195
    C               -1.611875974014448     0.398461397155367    -0.929260538386195
    C                0.747124025985552     0.747461397155367    -0.622260538386195
    C                0.709124025985552     1.849461397155367    -1.476260538386195
    C               -1.663875974014448     1.488461397155367    -1.784260538386195
    C               -0.508875974014448     2.205461397155367    -2.044260538386195
    O               -2.738875974014448    -0.310538602844633    -0.668260538386195
    H               -0.388875974014448    -0.836538602844633     0.284739461613805
    H                1.679124025985552     0.449461397155367    -0.163260538386195
    H               -2.609875974014448     1.813461397155367    -2.179260538386195
    H               -3.429875974014448    -0.159538602844633    -1.349260538386195
    H                2.587124025985551     2.703461397155367    -0.895260538386195
    H                1.670124025985552     3.646461397155367    -2.064260538386195
    H               -0.592875974014448     3.099461397155367    -2.566260538386195
    H                2.545435025985552     2.196811397155368    -2.612560538386195
    C               -0.417875974014448    -1.712538602844633     2.894739461613805
    C                1.251124025985552    -2.878538602844633     0.995739461613805
    S                1.257124025985552    -1.574538602844633     2.259739461613805
    H               -0.612875974014448    -2.734538602844633     3.216739461613805
    H               -0.539875974014448    -1.036538602844633     3.739739461613805
    H               -1.148875974014448    -1.455538602844633     2.129739461613805
    H                1.886124025985552    -2.575538602844633     0.162739461613805
    H                0.236124025985552    -2.974538602844633     0.609739461613805
    H                1.578535025985552    -3.864358602844633     1.357619461613805

}
e, wfn = energy('scf', return_wfn=True)
gdma(wfn)
dmavals = variable('DMA DISTRIBUTED MULTIPOLES')
charges = np.array(dmavals)
print(charges)
np.save('SSI-009TYR-301MET-1-dimer.npy', np.array(charges))--------------------------------------------------------------------------

*** tstart() called on ds3
*** at Mon Apr 27 12:43:10 2020

   => Loading Basis Set <=

    Name: CC-PVDZ
    Role: ORBITAL
    Keyword: BASIS
    atoms 1-7, 17-18  entry C          line   138 file /theoryfs2/ds/metcalf/miniconda2/envs/tf2gpu/share/psi4/basis/cc-pvdz.gbs
    atoms 8           entry O          line   198 file /theoryfs2/ds/metcalf/miniconda2/envs/tf2gpu/share/psi4/basis/cc-pvdz.gbs
    atoms 9-16, 20-25 entry H          line    22 file /theoryfs2/ds/metcalf/miniconda2/envs/tf2gpu/share/psi4/basis/cc-pvdz.gbs
    atoms 19          entry S          line   598 file /theoryfs2/ds/metcalf/miniconda2/envs/tf2gpu/share/psi4/basis/cc-pvdz.gbs

         ---------------------------------------------------------
                                   SCF
               by Justin Turney, Rob Parrish, Andy Simmonett
                          and Daniel G. A. Smith
                              RHF Reference
                        1 Threads,    500 MiB Core
         ---------------------------------------------------------

  ==> Geometry <==

    Molecular point group: c1
    Full point group: C1

    Geometry (in Angstrom), charge = 0, multiplicity = 1:

       Center              X                  Y                   Z               Mass
    ------------   -----------------  -----------------  -----------------  -----------------
         C            1.963124025986     2.632461397155    -1.787260538386    12.000000000000
         C           -0.406875974014     0.023461397155    -0.349260538386    12.000000000000
         C           -1.611875974014     0.398461397155    -0.929260538386    12.000000000000
         C            0.747124025986     0.747461397155    -0.622260538386    12.000000000000
         C            0.709124025986     1.849461397155    -1.476260538386    12.000000000000
         C           -1.663875974014     1.488461397155    -1.784260538386    12.000000000000
         C           -0.508875974014     2.205461397155    -2.044260538386    12.000000000000
         O           -2.738875974014    -0.310538602845    -0.668260538386    15.994914619570
         H           -0.388875974014    -0.836538602845     0.284739461614     1.007825032230
         H            1.679124025986     0.449461397155    -0.163260538386     1.007825032230
         H           -2.609875974014     1.813461397155    -2.179260538386     1.007825032230
         H           -3.429875974014    -0.159538602845    -1.349260538386     1.007825032230
         H            2.587124025986     2.703461397155    -0.895260538386     1.007825032230
         H            1.670124025986     3.646461397155    -2.064260538386     1.007825032230
         H           -0.592875974014     3.099461397155    -2.566260538386     1.007825032230
         H            2.545435025986     2.196811397155    -2.612560538386     1.007825032230
         C           -0.417875974014    -1.712538602845     2.894739461614    12.000000000000
         C            1.251124025986    -2.878538602845     0.995739461614    12.000000000000
         S            1.257124025986    -1.574538602845     2.259739461614    31.972071174400
         H           -0.612875974014    -2.734538602845     3.216739461614     1.007825032230
         H           -0.539875974014    -1.036538602845     3.739739461614     1.007825032230
         H           -1.148875974014    -1.455538602845     2.129739461614     1.007825032230
         H            1.886124025986    -2.575538602845     0.162739461614     1.007825032230
         H            0.236124025986    -2.974538602845     0.609739461614     1.007825032230
         H            1.578535025986    -3.864358602845     1.357619461614     1.007825032230

  Running in c1 symmetry.

  Rotational constants: A =      0.04077  B =      0.01628  C =      0.01268 [cm^-1]
  Rotational constants: A =   1222.28139  B =    488.02157  C =    380.15689 [MHz]
  Nuclear repulsion =  666.235805266606121

  Charge       = 0
  Multiplicity = 1
  Electrons    = 92
  Nalpha       = 46
  Nbeta        = 46

  ==> Algorithm <==

  SCF Algorithm Type is PK.
  DIIS enabled.
  MOM disabled.
  Fractional occupation disabled.
  Guess Type is SAD.
  Energy threshold   = 1.00e-06
  Density threshold  = 1.00e-10
  Integral threshold = 0.00e+00

  ==> Primary Basis <==

  Basis Set: CC-PVDZ
    Blend: CC-PVDZ
    Number of shells: 110
    Number of basis function: 228
    Number of Cartesian functions: 239
    Spherical Harmonics?: true
    Max angular momentum: 2

  ==> Pre-Iterations <==

   -------------------------------------------------------
    Irrep   Nso     Nmo     Nalpha   Nbeta   Ndocc  Nsocc
   -------------------------------------------------------
     A        228     228       0       0       0       0
   -------------------------------------------------------
    Total     228     228      46      46      46       0
   -------------------------------------------------------

  ==> Integral Setup <==

  Using integral reordering PK algorithm.
  Sizing the integral batches needed.
  Building batch lookup table.
   Calculation information:
      Number of atoms:                  25
      Number of AO shells:             110
      Number of primitives:            340
      Number of atomic orbitals:       239
      Number of basis functions:       228

      Integral cutoff                 1.00e-12
      Number of threads:                 1

	Batch   1 pq = [       0,    9405] index = [             0,44231715] size =     44231715
	Batch   2 pq = [    9405,   13301] index = [      44231715,88464951] size =     44233236
	Batch   3 pq = [   13301,   16290] index = [      88464951,132690195] size =     44225244
	Batch   4 pq = [   16290,   18810] index = [     132690195,176917455] size =     44227260
	Batch   5 pq = [   18810,   21030] index = [     176917455,221140965] size =     44223510
	Batch   6 pq = [   21030,   23037] index = [     221140965,265363203] size =     44222238
	Batch   7 pq = [   23037,   24883] index = [     265363203,309594286] size =     44231083
	Batch   8 pq = [   24883,   26106] index = [     309594286,340774671] size =     31180385
  Task number: 31
  Buffer size: 11059200
  Buffer per thread: 2
  We computed 16931357 shell quartets total.
  Whereas there are 18638565 unique shell quartets.

  ==> DiskJK: Disk-Based J/K Matrices <==

    J tasked:                  Yes
    K tasked:                  Yes
    wK tasked:                  No
    Memory [MiB]:              375
    Schwarz Cutoff:          1E-12

    OpenMP threads:              1

  Minimum eigenvalue in the overlap matrix is 3.1428188179E-04.
  Using Symmetric Orthogonalization.

  SCF Guess: Superposition of Atomic Densities via on-the-fly atomic UHF.

  ==> Iterations <==

                        Total Energy        Delta E     RMS |[F,P]|

   @RHF iter SAD:  -820.35268445209920   -8.20353e+02   0.00000e+00
   @RHF iter   1:  -821.12983323360982   -7.77149e-01   2.62784e-03 DIIS
   @RHF iter   2:  -821.33922178421778   -2.09389e-01   1.05807e-03 DIIS
   @RHF iter   3:  -821.36868685586649   -2.94651e-02   2.71512e-04 DIIS
   @RHF iter   4:  -821.37170450058420   -3.01764e-03   1.05501e-04 DIIS
   @RHF iter   5:  -821.37204711635468   -3.42616e-04   2.03531e-05 DIIS
   @RHF iter   6:  -821.37206617245397   -1.90561e-05   6.30461e-06 DIIS
   @RHF iter   7:  -821.37206811702185   -1.94457e-06   2.06438e-06 DIIS
   @RHF iter   8:  -821.37206838791508   -2.70893e-07   7.62440e-07 DIIS
   @RHF iter   9:  -821.37206843330932   -4.53942e-08   3.18284e-07 DIIS
   @RHF iter  10:  -821.37206844179184   -8.48252e-09   1.39939e-07 DIIS
   @RHF iter  11:  -821.37206844466368   -2.87184e-09   6.09837e-08 DIIS
   @RHF iter  12:  -821.37206844521347   -5.49790e-10   2.70269e-08 DIIS
   @RHF iter  13:  -821.37206844528328   -6.98037e-11   8.58000e-09 DIIS
   @RHF iter  14:  -821.37206844529351   -1.02318e-11   2.08087e-09 DIIS
   @RHF iter  15:  -821.37206844529442   -9.09495e-13   7.23605e-10 DIIS
   @RHF iter  16:  -821.37206844529112    3.29692e-12   2.54302e-10 DIIS
   @RHF iter  17:  -821.37206844529169   -5.68434e-13   1.05907e-10 DIIS
   @RHF iter  18:  -821.37206844529419   -2.50111e-12   5.42584e-11 DIIS
  Energy and wave function converged.

  ==> Post-Iterations <==

    Orbital Energies [Eh]
    ---------------------

    Doubly Occupied:

       1A    -91.936411     2A    -20.582372     3A    -11.291966
       4A    -11.257050     5A    -11.252736     6A    -11.230631
       7A    -11.228462     8A    -11.227338     9A    -11.225645
      10A    -11.224679    11A    -11.221301    12A     -8.940074
      13A     -6.622165    14A     -6.620592    15A     -6.618412
      16A     -1.396725    17A     -1.148005    18A     -1.061419
      19A     -1.032641    20A     -1.015915    21A     -0.950503
      22A     -0.922102    23A     -0.842608    24A     -0.806943
      25A     -0.799647    26A     -0.728816    27A     -0.666550
      28A     -0.643514    29A     -0.610273    30A     -0.603339
      31A     -0.600293    32A     -0.586795    33A     -0.574795
      34A     -0.571910    35A     -0.566737    36A     -0.561671
      37A     -0.559307    38A     -0.520019    39A     -0.498635
      40A     -0.494473    41A     -0.479063    42A     -0.464204
      43A     -0.426565    44A     -0.337810    45A     -0.328617
      46A     -0.298419

    Virtual:

      47A      0.133524    48A      0.157521    49A      0.178461
      50A      0.181134    51A      0.190826    52A      0.197264
      53A      0.222754    54A      0.231269    55A      0.236426
      56A      0.251975    57A      0.257122    58A      0.262641
      59A      0.266136    60A      0.275248    61A      0.293599
      62A      0.302337    63A      0.323144    64A      0.360580
      65A      0.379712    66A      0.384009    67A      0.441344
      68A      0.460920    69A      0.484576    70A      0.507761
      71A      0.512898    72A      0.525737    73A      0.571147
      74A      0.584202    75A      0.616060    76A      0.625672
      77A      0.636796    78A      0.643904    79A      0.667906
      80A      0.681606    81A      0.692251    82A      0.702762
      83A      0.704594    84A      0.724053    85A      0.731596
      86A      0.739655    87A      0.753223    88A      0.756722
      89A      0.768498    90A      0.775915    91A      0.784701
      92A      0.794045    93A      0.803411    94A      0.809825
      95A      0.836038    96A      0.841114    97A      0.848968
      98A      0.855570    99A      0.864252   100A      0.875968
     101A      0.883833   102A      0.887529   103A      0.889640
     104A      0.891733   105A      0.904358   106A      0.907986
     107A      0.919904   108A      0.932965   109A      0.943898
     110A      0.945533   111A      0.963547   112A      0.974596
     113A      0.984065   114A      0.985265   115A      1.001183
     116A      1.040218   117A      1.063338   118A      1.128397
     119A      1.133223   120A      1.150371   121A      1.157599
     122A      1.189856   123A      1.197054   124A      1.232043
     125A      1.238614   126A      1.256587   127A      1.262066
     128A      1.278142   129A      1.281988   130A      1.301782
     131A      1.303708   132A      1.315865   133A      1.337571
     134A      1.346142   135A      1.353807   136A      1.377738
     137A      1.398409   138A      1.402886   139A      1.439141
     140A      1.483442   141A      1.503878   142A      1.519733
     143A      1.541897   144A      1.548704   145A      1.562675
     146A      1.623863   147A      1.632139   148A      1.678934
     149A      1.685580   150A      1.700233   151A      1.711093
     152A      1.742404   153A      1.759763   154A      1.784952
     155A      1.804310   156A      1.818952   157A      1.864990
     158A      1.878839   159A      1.887799   160A      1.895265
     161A      1.901292   162A      1.908596   163A      1.913403
     164A      1.922085   165A      1.926598   166A      1.936329
     167A      1.943623   168A      1.966264   169A      1.969603
     170A      1.971927   171A      1.986911   172A      1.995874
     173A      2.000430   174A      2.010642   175A      2.038813
     176A      2.049839   177A      2.065263   178A      2.067905
     179A      2.072752   180A      2.085566   181A      2.105742
     182A      2.153751   183A      2.173419   184A      2.182154
     185A      2.228421   186A      2.239344   187A      2.245874
     188A      2.265112   189A      2.281970   190A      2.305833
     191A      2.306866   192A      2.340433   193A      2.379227
     194A      2.411417   195A      2.413550   196A      2.434049
     197A      2.446680   198A      2.454681   199A      2.480421
     200A      2.504499   201A      2.512271   202A      2.540447
     203A      2.564652   204A      2.612996   205A      2.644797
     206A      2.744763   207A      2.766560   208A      2.768254
     209A      2.774684   210A      2.789080   211A      2.796286
     212A      2.813800   213A      2.818642   214A      2.833866
     215A      2.849091   216A      2.887239   217A      2.913932
     218A      2.993508   219A      3.033859   220A      3.107310
     221A      3.143631   222A      3.263173   223A      3.337851
     224A      3.354673   225A      3.586788   226A      3.680738
     227A      3.993187   228A      4.159364

    Final Occupation by Irrep:
              A
    DOCC [    46 ]

  @RHF Final Energy:  -821.37206844529419

   => Energetics <=

    Nuclear Repulsion Energy =            666.2358052666061212
    One-Electron Energy =               -2448.0594461765776941
    Two-Electron Energy =                 960.4515724646773833
    Total Energy =                       -821.3720684452941896

Computation Completed

Properties will be evaluated at   0.000000,   0.000000,   0.000000 [a0]

Properties computed using the SCF density matrix

  Nuclear Dipole Moment: [e a0]
     X:     2.7007      Y:    -1.6630      Z:    -0.2521

  Electronic Dipole Moment: [e a0]
     X:    -3.2644      Y:     1.5290      Z:    -0.3206

  Dipole Moment: [e a0]
     X:    -0.5637      Y:    -0.1340      Z:    -0.5727     Total:     0.8147

  Dipole Moment: [D]
     X:    -1.4328      Y:    -0.3407      Z:    -1.4556     Total:     2.0707

*** tstop() called on ds3 at Mon Apr 27 12:47:14 2020
Module time:
	user time   =     160.67 seconds =       2.68 minutes
	system time =      63.74 seconds =       1.06 minutes
	total time  =        244 seconds =       4.07 minutes
Total time:
	user time   =     160.67 seconds =       2.68 minutes
	system time =      63.74 seconds =       1.06 minutes
	total time  =        244 seconds =       4.07 minutes
                                     G D M A

                                 by Anthony Stone

                           version 2.2.06, 22 June 2011

               Distributed Multipoles from Gaussian wavefunctions

Starting at 12:47:15 on 27 Apr 2020

Using SCF density matrix from file ./SSI/SSI-009TYR-301MET-1-dimer.test.3859.fchk

                         Distributed Multipole Analysis

Standard DMA

Positions and radii in angstrom
Multipole moments in atomic units, ea_0^k for rank k

C          x =  1.963124  y =  2.632461  z = -1.787261 angstrom
           Maximum rank =  0   Radius =  0.650 angstrom
                   Q00  =  -0.202101

C          x = -0.406876  y =  0.023461  z = -0.349261 angstrom
           Maximum rank =  0   Radius =  0.650 angstrom
                   Q00  =  -0.068157

C          x = -1.611876  y =  0.398461  z = -0.929261 angstrom
           Maximum rank =  0   Radius =  0.650 angstrom
                   Q00  =   0.290263

C          x =  0.747124  y =  0.747461  z = -0.622261 angstrom
           Maximum rank =  0   Radius =  0.650 angstrom
                   Q00  =  -0.037615

C          x =  0.709124  y =  1.849461  z = -1.476261 angstrom
           Maximum rank =  0   Radius =  0.650 angstrom
                   Q00  =  -0.148061

C          x = -1.663876  y =  1.488461  z = -1.784261 angstrom
           Maximum rank =  0   Radius =  0.650 angstrom
                   Q00  =  -0.177110

C          x = -0.508876  y =  2.205461  z = -2.044261 angstrom
           Maximum rank =  0   Radius =  0.650 angstrom
                   Q00  =   0.074376

O          x = -2.738876  y = -0.310539  z = -0.668261 angstrom
           Maximum rank =  0   Radius =  0.650 angstrom
                   Q00  =  -0.686303

H          x = -0.388876  y = -0.836539  z =  0.284739 angstrom
           Maximum rank =  0   Radius =  0.325 angstrom
                   Q00  =   0.056687

H          x =  1.679124  y =  0.449461  z = -0.163261 angstrom
           Maximum rank =  0   Radius =  0.325 angstrom
                   Q00  =   0.063960

H          x = -2.609876  y =  1.813461  z = -2.179261 angstrom
           Maximum rank =  0   Radius =  0.325 angstrom
                   Q00  =   0.068756

H          x = -3.429876  y = -0.159539  z = -1.349261 angstrom
           Maximum rank =  0   Radius =  0.325 angstrom
                   Q00  =   0.412629

H          x =  2.587124  y =  2.703461  z = -0.895261 angstrom
           Maximum rank =  0   Radius =  0.325 angstrom
                   Q00  =   0.098962

H          x =  1.670124  y =  3.646461  z = -2.064261 angstrom
           Maximum rank =  0   Radius =  0.325 angstrom
                   Q00  =   0.092125

H          x = -0.592876  y =  3.099461  z = -2.566261 angstrom
           Maximum rank =  0   Radius =  0.325 angstrom
                   Q00  =   0.067417

H          x =  2.545435  y =  2.196811  z = -2.612561 angstrom
           Maximum rank =  0   Radius =  0.325 angstrom
                   Q00  =   0.099436

C          x = -0.417876  y = -1.712539  z =  2.894739 angstrom
           Maximum rank =  0   Radius =  0.650 angstrom
                   Q00  =  -0.354365

C          x =  1.251124  y = -2.878539  z =  0.995739 angstrom
           Maximum rank =  0   Radius =  0.650 angstrom
                   Q00  =  -0.364686

S          x =  1.257124  y = -1.574539  z =  2.259739 angstrom
           Maximum rank =  0   Radius =  0.650 angstrom
                   Q00  =   0.105423

H          x = -0.612876  y = -2.734539  z =  3.216739 angstrom
           Maximum rank =  0   Radius =  0.325 angstrom
                   Q00  =   0.087907

H          x = -0.539876  y = -1.036539  z =  3.739739 angstrom
           Maximum rank =  0   Radius =  0.325 angstrom
                   Q00  =   0.123630

H          x = -1.148876  y = -1.455539  z =  2.129739 angstrom
           Maximum rank =  0   Radius =  0.325 angstrom
                   Q00  =   0.088237

H          x =  1.886124  y = -2.575539  z =  0.162739 angstrom
           Maximum rank =  0   Radius =  0.325 angstrom
                   Q00  =   0.114181

H          x =  0.236124  y = -2.974539  z =  0.609739 angstrom
           Maximum rank =  0   Radius =  0.325 angstrom
                   Q00  =   0.094016

H          x =  1.578535  y = -3.864359  z =  1.357619 angstrom
           Maximum rank =  0   Radius =  0.325 angstrom
                   Q00  =   0.100394

Total multipoles referred to origin at
           x =   0.000000,  y =    0.000000,  z =    0.000000 angstrom
                   Q00  =  -0.000000

Finished at 12:47:15 on 27 Apr 2020

  DMA results are available in the Python driver through the
	  variable('DMA DISTRIBUTED MULTIPOLES')
  and
	  variable('DMA TOTAL MULTIPOLES')
  commands.

    Psi4 stopped on: Monday, 27 April 2020 12:47PM
    Psi4 wall time for execution: 0:04:04.30

*** Psi4 exiting successfully. Buy a developer a beer!
