                               Psi4 1.3.2 release

  ==> Input File <==

--------------------------------------------------------------------------
import numpy as np
set {scf_type pk
basis cc-pvdz
d_convergence 10
gdma_switch   0
gdma_limit    0
gdma_origin   [ 0.0,  0.0,  0.0 ]
}
molecule test {
    units Angstrom
    0 1
    --
    0 1
    C                2.004238596489674     0.931937449021724    -1.924460243111646
    C               -1.008761403510326    -0.994062550978276    -0.560460243111646
    C               -0.209761403510326    -0.091062550978276    -1.275460243111646
    C               -0.417761403510326    -1.906062550978276     0.320539756888354
    C                1.201238596489674    -0.071062550978276    -1.151460243111647
    C                0.995238596489674    -1.902062550978276     0.482539756888354
    C                1.815238596489674    -0.979062550978276    -0.270460243111646
    H               -2.078761403510326    -0.977062550978276    -0.684460243111646
    H               -0.698761403510326     0.623937449021724    -1.922460243111646
    H               -1.030761403510326    -2.602062550978276     0.877539756888354
    H                1.461238596489674    -2.603062550978275     1.163539756888354
    H                2.981238596489674     1.032937449021724    -1.451460243111647
    H                1.504238596489674     1.896937449021724    -1.852460243111646
    H                2.890238596489674    -0.983062550978276    -0.148460243111646
    H                2.140021596489674     0.668187449021724    -2.983710243111646
    C               -2.529761403510326     1.582937449021724     1.830539756888354
    C               -1.446761403510326     2.617937449021725     2.137539756888354
    H               -3.204761403510326     1.452937449021724     2.673539756888353
    H               -3.112761403510326     1.911937449021724     0.971539756888354
    H               -2.072761403510326     0.622937449021724     1.597539756888354
    H               -1.925761403510326     3.575937449021724     2.328539756888354
    H               -0.898841403510326     2.294527449021725     3.034861756888354
    H               -0.754011403510326     2.736207449021725     1.291310756888354

}
e, wfn = energy('scf', return_wfn=True)
gdma(wfn)
dmavals = variable('DMA DISTRIBUTED MULTIPOLES')
charges = np.array(dmavals)
print(charges)
np.save('SSI-022PHE-069VAL-1-dimer.npy', np.array(charges))--------------------------------------------------------------------------

*** tstart() called on ds3
*** at Tue Apr 28 12:38:04 2020

   => Loading Basis Set <=

    Name: CC-PVDZ
    Role: ORBITAL
    Keyword: BASIS
    atoms 1-7, 16-17  entry C          line   138 file /theoryfs2/ds/metcalf/miniconda2/envs/tf2gpu/share/psi4/basis/cc-pvdz.gbs
    atoms 8-15, 18-23 entry H          line    22 file /theoryfs2/ds/metcalf/miniconda2/envs/tf2gpu/share/psi4/basis/cc-pvdz.gbs

         ---------------------------------------------------------
                                   SCF
               by Justin Turney, Rob Parrish, Andy Simmonett
                          and Daniel G. A. Smith
                              RHF Reference
                        1 Threads,    500 MiB Core
         ---------------------------------------------------------

  ==> Geometry <==

    Molecular point group: c1
    Full point group: C1

    Geometry (in Angstrom), charge = 0, multiplicity = 1:

       Center              X                  Y                   Z               Mass
    ------------   -----------------  -----------------  -----------------  -----------------
         C            2.004238596490     0.931937449022    -1.924460243112    12.000000000000
         C           -1.008761403510    -0.994062550978    -0.560460243112    12.000000000000
         C           -0.209761403510    -0.091062550978    -1.275460243112    12.000000000000
         C           -0.417761403510    -1.906062550978     0.320539756888    12.000000000000
         C            1.201238596490    -0.071062550978    -1.151460243112    12.000000000000
         C            0.995238596490    -1.902062550978     0.482539756888    12.000000000000
         C            1.815238596490    -0.979062550978    -0.270460243112    12.000000000000
         H           -2.078761403510    -0.977062550978    -0.684460243112     1.007825032230
         H           -0.698761403510     0.623937449022    -1.922460243112     1.007825032230
         H           -1.030761403510    -2.602062550978     0.877539756888     1.007825032230
         H            1.461238596490    -2.603062550978     1.163539756888     1.007825032230
         H            2.981238596490     1.032937449022    -1.451460243112     1.007825032230
         H            1.504238596490     1.896937449022    -1.852460243112     1.007825032230
         H            2.890238596490    -0.983062550978    -0.148460243112     1.007825032230
         H            2.140021596490     0.668187449022    -2.983710243112     1.007825032230
         C           -2.529761403510     1.582937449022     1.830539756888    12.000000000000
         C           -1.446761403510     2.617937449022     2.137539756888    12.000000000000
         H           -3.204761403510     1.452937449022     2.673539756888     1.007825032230
         H           -3.112761403510     1.911937449022     0.971539756888     1.007825032230
         H           -2.072761403510     0.622937449022     1.597539756888     1.007825032230
         H           -1.925761403510     3.575937449022     2.328539756888     1.007825032230
         H           -0.898841403510     2.294527449022     3.034861756888     1.007825032230
         H           -0.754011403510     2.736207449022     1.291310756888     1.007825032230

  Running in c1 symmetry.

  Rotational constants: A =      0.05951  B =      0.02764  C =      0.02297 [cm^-1]
  Rotational constants: A =   1784.09496  B =    828.55730  C =    688.54091 [MHz]
  Nuclear repulsion =  405.250132821666568

  Charge       = 0
  Multiplicity = 1
  Electrons    = 68
  Nalpha       = 34
  Nbeta        = 34

  ==> Algorithm <==

  SCF Algorithm Type is PK.
  DIIS enabled.
  MOM disabled.
  Fractional occupation disabled.
  Guess Type is SAD.
  Energy threshold   = 1.00e-06
  Density threshold  = 1.00e-10
  Integral threshold = 0.00e+00

  ==> Primary Basis <==

  Basis Set: CC-PVDZ
    Blend: CC-PVDZ
    Number of shells: 96
    Number of basis function: 196
    Number of Cartesian functions: 205
    Spherical Harmonics?: true
    Max angular momentum: 2

  ==> Pre-Iterations <==

   -------------------------------------------------------
    Irrep   Nso     Nmo     Nalpha   Nbeta   Ndocc  Nsocc
   -------------------------------------------------------
     A        196     196       0       0       0       0
   -------------------------------------------------------
    Total     196     196      34      34      34       0
   -------------------------------------------------------

  ==> Integral Setup <==

  Using integral reordering PK algorithm.
  Sizing the integral batches needed.
  Building batch lookup table.
   Calculation information:
      Number of atoms:                  23
      Number of AO shells:              96
      Number of primitives:            268
      Number of atomic orbitals:       205
      Number of basis functions:       196

      Integral cutoff                 1.00e-12
      Number of threads:                 1

	Batch   1 pq = [       0,    9405] index = [             0,44231715] size =     44231715
	Batch   2 pq = [    9405,   13301] index = [      44231715,88464951] size =     44233236
	Batch   3 pq = [   13301,   16290] index = [      88464951,132690195] size =     44225244
	Batch   4 pq = [   16290,   18810] index = [     132690195,176917455] size =     44227260
	Batch   5 pq = [   18810,   19306] index = [     176917455,186370471] size =      9453016
  Task number: 17
  Buffer size: 11059200
  Buffer per thread: 2
  We computed 9676948 shell quartets total.
  Whereas there are 10841496 unique shell quartets.

  ==> DiskJK: Disk-Based J/K Matrices <==

    J tasked:                  Yes
    K tasked:                  Yes
    wK tasked:                  No
    Memory [MiB]:              375
    Schwarz Cutoff:          1E-12

    OpenMP threads:              1

  Minimum eigenvalue in the overlap matrix is 3.5701585334E-04.
  Using Symmetric Orthogonalization.

  SCF Guess: Superposition of Atomic Densities via on-the-fly atomic UHF.

  ==> Iterations <==

                        Total Energy        Delta E     RMS |[F,P]|

   @RHF iter SAD:  -347.62589033690926   -3.47626e+02   0.00000e+00
   @RHF iter   1:  -348.76973656542401   -1.14385e+00   2.84123e-03 DIIS
   @RHF iter   2:  -348.95712357701575   -1.87387e-01   1.17149e-03 DIIS
   @RHF iter   3:  -348.98602111418967   -2.88975e-02   2.58274e-04 DIIS
   @RHF iter   4:  -348.98847716239908   -2.45605e-03   6.08855e-05 DIIS
   @RHF iter   5:  -348.98856865939376   -9.14970e-05   2.03269e-05 DIIS
   @RHF iter   6:  -348.98857925381179   -1.05944e-05   4.96997e-06 DIIS
   @RHF iter   7:  -348.98858008634005   -8.32528e-07   1.38577e-06 DIIS
   @RHF iter   8:  -348.98858020141040   -1.15070e-07   5.49257e-07 DIIS
   @RHF iter   9:  -348.98858023647983   -3.50694e-08   2.92311e-07 DIIS
   @RHF iter  10:  -348.98858024665060   -1.01708e-08   1.32310e-07 DIIS
   @RHF iter  11:  -348.98858024885237   -2.20177e-09   3.96734e-08 DIIS
   @RHF iter  12:  -348.98858024899295   -1.40574e-10   1.66054e-08 DIIS
   @RHF iter  13:  -348.98858024900676   -1.38130e-11   4.81310e-09 DIIS
   @RHF iter  14:  -348.98858024900653    2.27374e-13   1.73577e-09 DIIS
   @RHF iter  15:  -348.98858024900744   -9.09495e-13   7.75617e-10 DIIS
   @RHF iter  16:  -348.98858024900636    1.08002e-12   3.75535e-10 DIIS
   @RHF iter  17:  -348.98858024900767   -1.30740e-12   1.07028e-10 DIIS
   @RHF iter  18:  -348.98858024900807   -3.97904e-13   3.36084e-11 DIIS
  Energy and wave function converged.

  ==> Post-Iterations <==

    Orbital Energies [Eh]
    ---------------------

    Doubly Occupied:

       1A    -11.247026     2A    -11.246834     3A    -11.240621
       4A    -11.239291     5A    -11.237875     6A    -11.234595
       7A    -11.230748     8A    -11.213483     9A    -11.209264
      10A     -1.140912    11A     -1.042862    12A     -1.012055
      13A     -1.001748    14A     -0.930153    15A     -0.831169
      16A     -0.823489    17A     -0.791358    18A     -0.686210
      19A     -0.635995    20A     -0.624841    21A     -0.593065
      22A     -0.591114    23A     -0.578942    24A     -0.577902
      25A     -0.562996    26A     -0.535364    27A     -0.495456
      28A     -0.485728    29A     -0.484337    30A     -0.482272
      31A     -0.479256    32A     -0.473890    33A     -0.327195
      34A     -0.319401

    Virtual:

      35A      0.126565    36A      0.137684    37A      0.172660
      38A      0.197371    39A      0.199444    40A      0.217915
      41A      0.235695    42A      0.240405    43A      0.253710
      44A      0.264624    45A      0.267271    46A      0.271017
      47A      0.283917    48A      0.287298    49A      0.302797
      50A      0.311188    51A      0.356026    52A      0.372453
      53A      0.401069    54A      0.441798    55A      0.454969
      56A      0.467666    57A      0.490706    58A      0.560430
      59A      0.584705    60A      0.597804    61A      0.606924
      62A      0.614120    63A      0.639458    64A      0.663373
      65A      0.676828    66A      0.679101    67A      0.690636
      68A      0.705741    69A      0.725042    70A      0.736085
      71A      0.738654    72A      0.739908    73A      0.752153
      74A      0.768622    75A      0.784231    76A      0.806780
      77A      0.841451    78A      0.847225    79A      0.859656
      80A      0.868212    81A      0.868959    82A      0.881365
      83A      0.888983    84A      0.897622    85A      0.900421
      86A      0.905935    87A      0.907911    88A      0.923350
      89A      0.924508    90A      0.934836    91A      0.940525
      92A      0.965671    93A      0.975538    94A      0.996945
      95A      1.027588    96A      1.064195    97A      1.104469
      98A      1.124503    99A      1.127102   100A      1.136134
     101A      1.145914   102A      1.164046   103A      1.181702
     104A      1.221102   105A      1.234724   106A      1.242406
     107A      1.249669   108A      1.270471   109A      1.288346
     110A      1.296011   111A      1.308758   112A      1.312219
     113A      1.413966   114A      1.478410   115A      1.486418
     116A      1.503671   117A      1.519686   118A      1.547690
     119A      1.566027   120A      1.599936   121A      1.682162
     122A      1.686366   123A      1.691664   124A      1.700018
     125A      1.720176   126A      1.736208   127A      1.765246
     128A      1.782798   129A      1.792465   130A      1.849414
     131A      1.860363   132A      1.866712   133A      1.876574
     134A      1.888012   135A      1.894454   136A      1.902681
     137A      1.903433   138A      1.921889   139A      1.931736
     140A      1.945382   141A      1.949912   142A      1.954918
     143A      1.958734   144A      1.964507   145A      1.971781
     146A      1.972083   147A      1.979509   148A      1.996292
     149A      2.027283   150A      2.035349   151A      2.063092
     152A      2.092812   153A      2.098965   154A      2.119412
     155A      2.124648   156A      2.132505   157A      2.142633
     158A      2.160411   159A      2.176683   160A      2.236601
     161A      2.259648   162A      2.280389   163A      2.289072
     164A      2.297405   165A      2.308451   166A      2.321774
     167A      2.328052   168A      2.443978   169A      2.456561
     170A      2.464187   171A      2.478123   172A      2.490005
     173A      2.517525   174A      2.562873   175A      2.585893
     176A      2.610108   177A      2.715862   178A      2.732153
     179A      2.753264   180A      2.764171   181A      2.776470
     182A      2.792928   183A      2.804749   184A      2.841047
     185A      2.849377   186A      2.859123   187A      2.866681
     188A      2.937370   189A      2.958810   190A      2.972212
     191A      2.976634   192A      3.018688   193A      3.122370
     194A      3.159921   195A      3.249186   196A      3.890683

    Final Occupation by Irrep:
              A
    DOCC [    34 ]

  @RHF Final Energy:  -348.98858024900807

   => Energetics <=

    Nuclear Repulsion Energy =            405.2501328216665684
    One-Electron Energy =               -1273.2625327785744958
    Two-Electron Energy =                 519.0238197078998610
    Total Energy =                       -348.9885802490081232

Computation Completed

Properties will be evaluated at   0.000000,   0.000000,   0.000000 [a0]

Properties computed using the SCF density matrix

  Nuclear Dipole Moment: [e a0]
     X:    -4.5000      Y:     9.0477      Z:     4.5893

  Electronic Dipole Moment: [e a0]
     X:     4.5989      Y:    -8.9971      Z:    -4.6861

  Dipole Moment: [e a0]
     X:     0.0989      Y:     0.0506      Z:    -0.0969     Total:     0.1474

  Dipole Moment: [D]
     X:     0.2514      Y:     0.1286      Z:    -0.2462     Total:     0.3746

*** tstop() called on ds3 at Tue Apr 28 12:41:03 2020
Module time:
	user time   =      70.49 seconds =       1.17 minutes
	system time =      32.28 seconds =       0.54 minutes
	total time  =        179 seconds =       2.98 minutes
Total time:
	user time   =      70.49 seconds =       1.17 minutes
	system time =      32.28 seconds =       0.54 minutes
	total time  =        179 seconds =       2.98 minutes
                                     G D M A

                                 by Anthony Stone

                           version 2.2.06, 22 June 2011

               Distributed Multipoles from Gaussian wavefunctions

Starting at 12:41:3 on 28 Apr 2020

Using SCF density matrix from file ./SSI/SSI-022PHE-069VAL-1-dimer.test.15195.fchk

                         Distributed Multipole Analysis

Standard DMA

Positions and radii in angstrom
Multipole moments in atomic units, ea_0^k for rank k

C          x =  2.004239  y =  0.931937  z = -1.924460 angstrom
           Maximum rank =  0   Radius =  0.650 angstrom
                   Q00  =  -0.199128

C          x = -1.008761  y = -0.994063  z = -0.560460 angstrom
           Maximum rank =  0   Radius =  0.650 angstrom
                   Q00  =  -0.066319

C          x = -0.209761  y = -0.091063  z = -1.275460 angstrom
           Maximum rank =  0   Radius =  0.650 angstrom
                   Q00  =  -0.012371

C          x = -0.417761  y = -1.906063  z =  0.320540 angstrom
           Maximum rank =  0   Radius =  0.650 angstrom
                   Q00  =  -0.094980

C          x =  1.201239  y = -0.071063  z = -1.151460 angstrom
           Maximum rank =  0   Radius =  0.650 angstrom
                   Q00  =  -0.096165

C          x =  0.995239  y = -1.902063  z =  0.482540 angstrom
           Maximum rank =  0   Radius =  0.650 angstrom
                   Q00  =  -0.079975

C          x =  1.815239  y = -0.979063  z = -0.270460 angstrom
           Maximum rank =  0   Radius =  0.650 angstrom
                   Q00  =  -0.089513

H          x = -2.078761  y = -0.977063  z = -0.684460 angstrom
           Maximum rank =  0   Radius =  0.325 angstrom
                   Q00  =   0.069310

H          x = -0.698761  y =  0.623937  z = -1.922460 angstrom
           Maximum rank =  0   Radius =  0.325 angstrom
                   Q00  =   0.057410

H          x = -1.030761  y = -2.602063  z =  0.877540 angstrom
           Maximum rank =  0   Radius =  0.325 angstrom
                   Q00  =   0.067581

H          x =  1.461239  y = -2.603063  z =  1.163540 angstrom
           Maximum rank =  0   Radius =  0.325 angstrom
                   Q00  =   0.073840

H          x =  2.981239  y =  1.032937  z = -1.451460 angstrom
           Maximum rank =  0   Radius =  0.325 angstrom
                   Q00  =   0.097643

H          x =  1.504239  y =  1.896937  z = -1.852460 angstrom
           Maximum rank =  0   Radius =  0.325 angstrom
                   Q00  =   0.099630

H          x =  2.890239  y = -0.983063  z = -0.148460 angstrom
           Maximum rank =  0   Radius =  0.325 angstrom
                   Q00  =   0.067872

H          x =  2.140022  y =  0.668187  z = -2.983710 angstrom
           Maximum rank =  0   Radius =  0.325 angstrom
                   Q00  =   0.105907

C          x = -2.529761  y =  1.582937  z =  1.830540 angstrom
           Maximum rank =  0   Radius =  0.650 angstrom
                   Q00  =  -0.239893

C          x = -1.446761  y =  2.617937  z =  2.137540 angstrom
           Maximum rank =  0   Radius =  0.650 angstrom
                   Q00  =  -0.231851

H          x = -3.204761  y =  1.452937  z =  2.673540 angstrom
           Maximum rank =  0   Radius =  0.325 angstrom
                   Q00  =   0.075938

H          x = -3.112761  y =  1.911937  z =  0.971540 angstrom
           Maximum rank =  0   Radius =  0.325 angstrom
                   Q00  =   0.071334

H          x = -2.072761  y =  0.622937  z =  1.597540 angstrom
           Maximum rank =  0   Radius =  0.325 angstrom
                   Q00  =   0.090411

H          x = -1.925761  y =  3.575937  z =  2.328540 angstrom
           Maximum rank =  0   Radius =  0.325 angstrom
                   Q00  =   0.073836

H          x = -0.898841  y =  2.294527  z =  3.034862 angstrom
           Maximum rank =  0   Radius =  0.325 angstrom
                   Q00  =   0.077677

H          x = -0.754011  y =  2.736207  z =  1.291311 angstrom
           Maximum rank =  0   Radius =  0.325 angstrom
                   Q00  =   0.081804

Total multipoles referred to origin at
           x =   0.000000,  y =    0.000000,  z =    0.000000 angstrom
                   Q00  =  -0.000000

Finished at 12:41:3 on 28 Apr 2020

  DMA results are available in the Python driver through the
	  variable('DMA DISTRIBUTED MULTIPOLES')
  and
	  variable('DMA TOTAL MULTIPOLES')
  commands.

    Psi4 stopped on: Tuesday, 28 April 2020 12:41PM
    Psi4 wall time for execution: 0:02:58.79

*** Psi4 exiting successfully. Buy a developer a beer!
