                               Psi4 1.3.2 release

  ==> Input File <==

--------------------------------------------------------------------------
import numpy as np
set {scf_type pk
basis cc-pvdz
d_convergence 10
gdma_switch   0
gdma_limit    0
gdma_origin   [ 0.0,  0.0,  0.0 ]
}
molecule test {
    units Angstrom
    0 1
    --
    0 1
    C               -1.260261828653631     2.213553060651997    -0.177912475741415
    C               -2.697261828653632     2.318553060651998    -0.689912475741415
    C               -0.253261828653631     3.095553060651997    -0.916912475741415
    H               -1.258261828653631     2.465553060651998     0.880087524258585
    H               -0.931261828653632     1.178553060651998    -0.256912475741415
    H               -2.703261828653632     2.182553060651998    -1.771912475741415
    H               -0.680261828653632     4.083553060651998    -1.063912475741415
    H               -3.107581828653632     3.309655360651997    -0.446285475741415
    H               -3.297111828653632     1.498355060651998    -0.268652475741415
    H                0.669455171346368     3.217571160651997    -0.330648475741415
    H               -0.030826828653631     2.664404860651997    -1.904148475741415
    C                2.713738171346368    -0.480446939348002    -1.676912475741415
    C               -0.421261828653631    -1.292446939348002     1.155087524258585
    C               -0.532261828653631    -1.745446939348002    -0.152912475741415
    C                0.704738171346368    -0.578446939348002     1.552087524258585
    C                0.484738171346368    -1.481446939348002    -1.063912475741415
    C                1.718738171346369    -0.319446939348002     0.634087524258585
    C                1.616738171346369    -0.765446939348002    -0.681912475741415
    O               -1.418261828653631    -1.558446939348002     2.041087524258586
    H               -1.405261828653631    -2.301446939348002    -0.464912475741415
    H               -2.134261828653631    -2.054446939348002     1.637087524258585
    H                0.771738171346369    -0.219446939348002     2.569087524258586
    H                0.396738171346369    -1.859446939348002    -2.068912475741415
    H                2.594738171346368     0.234553060651998     0.946087524258585
    H                3.207738171346368     0.451553060651998    -1.394912475741415
    H                2.255738171346368    -0.319446939348002    -2.652912475741414
    H                3.461482171346368    -1.282886939348002    -1.760395475741415

}
e, wfn = energy('scf', return_wfn=True)
gdma(wfn)
dmavals = variable('DMA DISTRIBUTED MULTIPOLES')
charges = np.array(dmavals)
print(charges)
np.save('SSI-226LEU-294TYR-1-dimer.npy', np.array(charges))--------------------------------------------------------------------------

*** tstart() called on ds3
*** at Tue Apr 28 20:49:10 2020

   => Loading Basis Set <=

    Name: CC-PVDZ
    Role: ORBITAL
    Keyword: BASIS
    atoms 1-3, 12-18  entry C          line   138 file /theoryfs2/ds/metcalf/miniconda2/envs/tf2gpu/share/psi4/basis/cc-pvdz.gbs
    atoms 4-11, 20-27 entry H          line    22 file /theoryfs2/ds/metcalf/miniconda2/envs/tf2gpu/share/psi4/basis/cc-pvdz.gbs
    atoms 19          entry O          line   198 file /theoryfs2/ds/metcalf/miniconda2/envs/tf2gpu/share/psi4/basis/cc-pvdz.gbs

         ---------------------------------------------------------
                                   SCF
               by Justin Turney, Rob Parrish, Andy Simmonett
                          and Daniel G. A. Smith
                              RHF Reference
                        1 Threads,    500 MiB Core
         ---------------------------------------------------------

  ==> Geometry <==

    Molecular point group: c1
    Full point group: C1

    Geometry (in Angstrom), charge = 0, multiplicity = 1:

       Center              X                  Y                   Z               Mass
    ------------   -----------------  -----------------  -----------------  -----------------
         C           -1.260261828654     2.213553060652    -0.177912475741    12.000000000000
         C           -2.697261828654     2.318553060652    -0.689912475741    12.000000000000
         C           -0.253261828654     3.095553060652    -0.916912475741    12.000000000000
         H           -1.258261828654     2.465553060652     0.880087524259     1.007825032230
         H           -0.931261828654     1.178553060652    -0.256912475741     1.007825032230
         H           -2.703261828654     2.182553060652    -1.771912475741     1.007825032230
         H           -0.680261828654     4.083553060652    -1.063912475741     1.007825032230
         H           -3.107581828654     3.309655360652    -0.446285475741     1.007825032230
         H           -3.297111828654     1.498355060652    -0.268652475741     1.007825032230
         H            0.669455171346     3.217571160652    -0.330648475741     1.007825032230
         H           -0.030826828654     2.664404860652    -1.904148475741     1.007825032230
         C            2.713738171346    -0.480446939348    -1.676912475741    12.000000000000
         C           -0.421261828654    -1.292446939348     1.155087524259    12.000000000000
         C           -0.532261828654    -1.745446939348    -0.152912475741    12.000000000000
         C            0.704738171346    -0.578446939348     1.552087524259    12.000000000000
         C            0.484738171346    -1.481446939348    -1.063912475741    12.000000000000
         C            1.718738171346    -0.319446939348     0.634087524259    12.000000000000
         C            1.616738171346    -0.765446939348    -0.681912475741    12.000000000000
         O           -1.418261828654    -1.558446939348     2.041087524259    15.994914619570
         H           -1.405261828654    -2.301446939348    -0.464912475741     1.007825032230
         H           -2.134261828654    -2.054446939348     1.637087524259     1.007825032230
         H            0.771738171346    -0.219446939348     2.569087524259     1.007825032230
         H            0.396738171346    -1.859446939348    -2.068912475741     1.007825032230
         H            2.594738171346     0.234553060652     0.946087524259     1.007825032230
         H            3.207738171346     0.451553060652    -1.394912475741     1.007825032230
         H            2.255738171346    -0.319446939348    -2.652912475741     1.007825032230
         H            3.461482171346    -1.282886939348    -1.760395475741     1.007825032230

  Running in c1 symmetry.

  Rotational constants: A =      0.03438  B =      0.02499  C =      0.01787 [cm^-1]
  Rotational constants: A =   1030.78624  B =    749.27941  C =    535.64039 [MHz]
  Nuclear repulsion =  595.571395407138766

  Charge       = 0
  Multiplicity = 1
  Electrons    = 84
  Nalpha       = 42
  Nbeta        = 42

  ==> Algorithm <==

  SCF Algorithm Type is PK.
  DIIS enabled.
  MOM disabled.
  Fractional occupation disabled.
  Guess Type is SAD.
  Energy threshold   = 1.00e-06
  Density threshold  = 1.00e-10
  Integral threshold = 0.00e+00

  ==> Primary Basis <==

  Basis Set: CC-PVDZ
    Blend: CC-PVDZ
    Number of shells: 114
    Number of basis function: 234
    Number of Cartesian functions: 245
    Spherical Harmonics?: true
    Max angular momentum: 2

  ==> Pre-Iterations <==

   -------------------------------------------------------
    Irrep   Nso     Nmo     Nalpha   Nbeta   Ndocc  Nsocc
   -------------------------------------------------------
     A        234     234       0       0       0       0
   -------------------------------------------------------
    Total     234     234      42      42      42       0
   -------------------------------------------------------

  ==> Integral Setup <==

  Using integral reordering PK algorithm.
  Sizing the integral batches needed.
  Building batch lookup table.
   Calculation information:
      Number of atoms:                  27
      Number of AO shells:             114
      Number of primitives:            322
      Number of atomic orbitals:       245
      Number of basis functions:       234

      Integral cutoff                 1.00e-12
      Number of threads:                 1

	Batch   1 pq = [       0,    9405] index = [             0,44231715] size =     44231715
	Batch   2 pq = [    9405,   13301] index = [      44231715,88464951] size =     44233236
	Batch   3 pq = [   13301,   16290] index = [      88464951,132690195] size =     44225244
	Batch   4 pq = [   16290,   18810] index = [     132690195,176917455] size =     44227260
	Batch   5 pq = [   18810,   21030] index = [     176917455,221140965] size =     44223510
	Batch   6 pq = [   21030,   23037] index = [     221140965,265363203] size =     44222238
	Batch   7 pq = [   23037,   24883] index = [     265363203,309594286] size =     44231083
	Batch   8 pq = [   24883,   26601] index = [     309594286,353819901] size =     44225615
	Batch   9 pq = [   26601,   27495] index = [     353819901,378001260] size =     24181359
  Task number: 35
  Buffer size: 11059200
  Buffer per thread: 2
  We computed 22204751 shell quartets total.
  Whereas there are 21487290 unique shell quartets.
     3.34 percent of shell quartets recomputed by reordering.

  ==> DiskJK: Disk-Based J/K Matrices <==

    J tasked:                  Yes
    K tasked:                  Yes
    wK tasked:                  No
    Memory [MiB]:              375
    Schwarz Cutoff:          1E-12

    OpenMP threads:              1

  Minimum eigenvalue in the overlap matrix is 3.2153664919E-04.
  Using Symmetric Orthogonalization.

  SCF Guess: Superposition of Atomic Densities via on-the-fly atomic UHF.

  ==> Iterations <==

                        Total Energy        Delta E     RMS |[F,P]|

   @RHF iter SAD:  -461.71266937365533   -4.61713e+02   0.00000e+00
   @RHF iter   1:  -462.60512881539211   -8.92459e-01   2.82832e-03 DIIS
   @RHF iter   2:  -462.84849041512336   -2.43362e-01   1.20968e-03 DIIS
   @RHF iter   3:  -462.88892078538902   -4.04304e-02   2.71279e-04 DIIS
   @RHF iter   4:  -462.89218927466089   -3.26849e-03   1.08964e-04 DIIS
   @RHF iter   5:  -462.89256890088564   -3.79626e-04   2.03176e-05 DIIS
   @RHF iter   6:  -462.89258847442647   -1.95735e-05   6.38266e-06 DIIS
   @RHF iter   7:  -462.89259046274179   -1.98832e-06   1.86722e-06 DIIS
   @RHF iter   8:  -462.89259070813364   -2.45392e-07   7.12673e-07 DIIS
   @RHF iter   9:  -462.89259074905186   -4.09182e-08   3.14042e-07 DIIS
   @RHF iter  10:  -462.89259075761083   -8.55897e-09   1.32023e-07 DIIS
   @RHF iter  11:  -462.89259076035148   -2.74065e-09   5.68968e-08 DIIS
   @RHF iter  12:  -462.89259076086154   -5.10056e-10   2.57124e-08 DIIS
   @RHF iter  13:  -462.89259076092713   -6.55973e-11   8.07160e-09 DIIS
   @RHF iter  14:  -462.89259076093532   -8.18545e-12   1.92079e-09 DIIS
   @RHF iter  15:  -462.89259076093538   -5.68434e-14   6.70033e-10 DIIS
   @RHF iter  16:  -462.89259076093481    5.68434e-13   2.25095e-10 DIIS
   @RHF iter  17:  -462.89259076093219    2.61480e-12   9.69858e-11 DIIS
  Energy and wave function converged.

  ==> Post-Iterations <==

    Orbital Energies [Eh]
    ---------------------

    Doubly Occupied:

       1A    -20.583294     2A    -11.299713     3A    -11.239473
       4A    -11.239290     5A    -11.234032     6A    -11.233540
       7A    -11.231196     8A    -11.228581     9A    -11.211317
      10A    -11.209597    11A    -11.206331    12A     -1.402265
      13A     -1.153115    14A     -1.043484    15A     -1.038494
      16A     -1.019829    17A     -0.927052    18A     -0.917303
      19A     -0.846189    20A     -0.803929    21A     -0.786998
      22A     -0.734304    23A     -0.669696    24A     -0.642486
      25A     -0.617481    26A     -0.608570    27A     -0.590473
      28A     -0.588346    29A     -0.583464    30A     -0.571888
      31A     -0.567503    32A     -0.540168    33A     -0.527914
      34A     -0.526673    35A     -0.498534    36A     -0.485779
      37A     -0.474614    38A     -0.464181    39A     -0.457923
      40A     -0.450618    41A     -0.340764    42A     -0.302769

    Virtual:

      43A      0.128214    44A      0.154584    45A      0.170550
      46A      0.176898    47A      0.200857    48A      0.207790
      49A      0.217852    50A      0.243857    51A      0.247897
      52A      0.250980    53A      0.257970    54A      0.262999
      55A      0.279655    56A      0.281751    57A      0.288904
      58A      0.293805    59A      0.307163    60A      0.326143
      61A      0.369316    62A      0.374778    63A      0.382878
      64A      0.424641    65A      0.438071    66A      0.455665
      67A      0.481020    68A      0.497020    69A      0.506297
      70A      0.578018    71A      0.598358    72A      0.601914
      73A      0.609571    74A      0.614371    75A      0.629972
      76A      0.651083    77A      0.664214    78A      0.669871
      79A      0.686051    80A      0.693945    81A      0.727248
      82A      0.733136    83A      0.744410    84A      0.764650
      85A      0.772399    86A      0.773713    87A      0.787655
      88A      0.802901    89A      0.818262    90A      0.828837
      91A      0.839479    92A      0.847590    93A      0.859209
      94A      0.875471    95A      0.877540    96A      0.885312
      97A      0.890898    98A      0.895361    99A      0.902483
     100A      0.905583   101A      0.908415   102A      0.915701
     103A      0.922462   104A      0.924104   105A      0.935055
     106A      0.938590   107A      0.943872   108A      0.955057
     109A      0.959561   110A      0.987483   111A      0.995038
     112A      1.018678   113A      1.039734   114A      1.119624
     115A      1.122922   116A      1.127175   117A      1.139470
     118A      1.143690   119A      1.156229   120A      1.171349
     121A      1.200253   122A      1.239864   123A      1.249636
     124A      1.268128   125A      1.285389   126A      1.293282
     127A      1.303754   128A      1.313038   129A      1.329376
     130A      1.352246   131A      1.361963   132A      1.391119
     133A      1.401521   134A      1.474710   135A      1.481581
     136A      1.484765   137A      1.505785   138A      1.525943
     139A      1.544650   140A      1.555369   141A      1.612452
     142A      1.619844   143A      1.654602   144A      1.667580
     145A      1.683647   146A      1.693367   147A      1.701916
     148A      1.719531   149A      1.738540   150A      1.752091
     151A      1.782207   152A      1.802363   153A      1.823592
     154A      1.862853   155A      1.869451   156A      1.875241
     157A      1.881531   158A      1.887680   159A      1.896629
     160A      1.908980   161A      1.916319   162A      1.920491
     163A      1.927827   164A      1.936394   165A      1.944164
     166A      1.962319   167A      1.968606   168A      1.975807
     169A      1.978470   170A      1.983797   171A      1.987885
     172A      1.996177   173A      2.016862   174A      2.019816
     175A      2.040485   176A      2.042641   177A      2.054963
     178A      2.062004   179A      2.079795   180A      2.091702
     181A      2.140651   182A      2.147587   183A      2.158766
     184A      2.162041   185A      2.181715   186A      2.207024
     187A      2.231519   188A      2.259124   189A      2.273688
     190A      2.278551   191A      2.294035   192A      2.305867
     193A      2.313531   194A      2.326301   195A      2.358814
     196A      2.384015   197A      2.426440   198A      2.460578
     199A      2.473938   200A      2.487758   201A      2.495105
     202A      2.531683   203A      2.540927   204A      2.561858
     205A      2.595280   206A      2.601397   207A      2.630857
     208A      2.651040   209A      2.658467   210A      2.753646
     211A      2.760966   212A      2.762563   213A      2.773907
     214A      2.791641   215A      2.794655   216A      2.806431
     217A      2.822101   218A      2.842986   219A      2.901581
     220A      2.935098   221A      2.958542   222A      2.965256
     223A      2.976303   224A      3.002400   225A      3.091193
     226A      3.108376   227A      3.113254   228A      3.253962
     229A      3.282652   230A      3.349783   231A      3.581473
     232A      3.675660   233A      3.982270   234A      4.194920

    Final Occupation by Irrep:
              A
    DOCC [    42 ]

  @RHF Final Energy:  -462.89259076093219

   => Energetics <=

    Nuclear Repulsion Energy =            595.5713954071387661
    One-Electron Energy =               -1808.7296321953938332
    Two-Electron Energy =                 750.2656460273229868
    Total Energy =                       -462.8925907609321939

Computation Completed

Properties will be evaluated at   0.000000,   0.000000,   0.000000 [a0]

Properties computed using the SCF density matrix

  Nuclear Dipole Moment: [e a0]
     X:    -2.0603      Y:    12.4132      Z:    -7.8201

  Electronic Dipole Moment: [e a0]
     X:     1.9823      Y:   -12.7417      Z:     7.3721

  Dipole Moment: [e a0]
     X:    -0.0780      Y:    -0.3285      Z:    -0.4480     Total:     0.5609

  Dipole Moment: [D]
     X:    -0.1983      Y:    -0.8349      Z:    -1.1386     Total:     1.4258

*** tstop() called on ds3 at Tue Apr 28 20:54:06 2020
Module time:
	user time   =     159.48 seconds =       2.66 minutes
	system time =      51.71 seconds =       0.86 minutes
	total time  =        296 seconds =       4.93 minutes
Total time:
	user time   =     159.48 seconds =       2.66 minutes
	system time =      51.71 seconds =       0.86 minutes
	total time  =        296 seconds =       4.93 minutes
                                     G D M A

                                 by Anthony Stone

                           version 2.2.06, 22 June 2011

               Distributed Multipoles from Gaussian wavefunctions

Starting at 20:54:6 on 28 Apr 2020

Using SCF density matrix from file ./SSI/SSI-226LEU-294TYR-1-dimer.test.30165.fchk

                         Distributed Multipole Analysis

Standard DMA

Positions and radii in angstrom
Multipole moments in atomic units, ea_0^k for rank k

C          x = -1.260262  y =  2.213553  z = -0.177912 angstrom
           Maximum rank =  0   Radius =  0.650 angstrom
                   Q00  =  -0.077725

C          x = -2.697262  y =  2.318553  z = -0.689912 angstrom
           Maximum rank =  0   Radius =  0.650 angstrom
                   Q00  =  -0.238294

C          x = -0.253262  y =  3.095553  z = -0.916912 angstrom
           Maximum rank =  0   Radius =  0.650 angstrom
                   Q00  =  -0.245518

H          x = -1.258262  y =  2.465553  z =  0.880088 angstrom
           Maximum rank =  0   Radius =  0.325 angstrom
                   Q00  =   0.041984

H          x = -0.931262  y =  1.178553  z = -0.256912 angstrom
           Maximum rank =  0   Radius =  0.325 angstrom
                   Q00  =   0.060163

H          x = -2.703262  y =  2.182553  z = -1.771912 angstrom
           Maximum rank =  0   Radius =  0.325 angstrom
                   Q00  =   0.070099

H          x = -0.680262  y =  4.083553  z = -1.063912 angstrom
           Maximum rank =  0   Radius =  0.325 angstrom
                   Q00  =   0.068738

H          x = -3.107582  y =  3.309655  z = -0.446285 angstrom
           Maximum rank =  0   Radius =  0.325 angstrom
                   Q00  =   0.076387

H          x = -3.297112  y =  1.498355  z = -0.268652 angstrom
           Maximum rank =  0   Radius =  0.325 angstrom
                   Q00  =   0.079241

H          x =  0.669455  y =  3.217571  z = -0.330648 angstrom
           Maximum rank =  0   Radius =  0.325 angstrom
                   Q00  =   0.082276

H          x = -0.030827  y =  2.664405  z = -1.904148 angstrom
           Maximum rank =  0   Radius =  0.325 angstrom
                   Q00  =   0.075982

C          x =  2.713738  y = -0.480447  z = -1.676912 angstrom
           Maximum rank =  0   Radius =  0.650 angstrom
                   Q00  =  -0.190842

C          x = -0.421262  y = -1.292447  z =  1.155088 angstrom
           Maximum rank =  0   Radius =  0.650 angstrom
                   Q00  =   0.319098

C          x = -0.532262  y = -1.745447  z = -0.152912 angstrom
           Maximum rank =  0   Radius =  0.650 angstrom
                   Q00  =  -0.184356

C          x =  0.704738  y = -0.578447  z =  1.552088 angstrom
           Maximum rank =  0   Radius =  0.650 angstrom
                   Q00  =  -0.120145

C          x =  0.484738  y = -1.481447  z = -1.063912 angstrom
           Maximum rank =  0   Radius =  0.650 angstrom
                   Q00  =   0.027059

C          x =  1.718738  y = -0.319447  z =  0.634088 angstrom
           Maximum rank =  0   Radius =  0.650 angstrom
                   Q00  =  -0.011469

C          x =  1.616738  y = -0.765447  z = -0.681912 angstrom
           Maximum rank =  0   Radius =  0.650 angstrom
                   Q00  =  -0.142196

O          x = -1.418262  y = -1.558447  z =  2.041088 angstrom
           Maximum rank =  0   Radius =  0.650 angstrom
                   Q00  =  -0.673292

H          x = -1.405262  y = -2.301447  z = -0.464912 angstrom
           Maximum rank =  0   Radius =  0.325 angstrom
                   Q00  =   0.070769

H          x = -2.134262  y = -2.054447  z =  1.637088 angstrom
           Maximum rank =  0   Radius =  0.325 angstrom
                   Q00  =   0.405705

H          x =  0.771738  y = -0.219447  z =  2.569088 angstrom
           Maximum rank =  0   Radius =  0.325 angstrom
                   Q00  =   0.081760

H          x =  0.396738  y = -1.859447  z = -2.068912 angstrom
           Maximum rank =  0   Radius =  0.325 angstrom
                   Q00  =   0.068097

H          x =  2.594738  y =  0.234553  z =  0.946088 angstrom
           Maximum rank =  0   Radius =  0.325 angstrom
                   Q00  =   0.064401

H          x =  3.207738  y =  0.451553  z = -1.394912 angstrom
           Maximum rank =  0   Radius =  0.325 angstrom
                   Q00  =   0.096502

H          x =  2.255738  y = -0.319447  z = -2.652912 angstrom
           Maximum rank =  0   Radius =  0.325 angstrom
                   Q00  =   0.095153

H          x =  3.461482  y = -1.282887  z = -1.760395 angstrom
           Maximum rank =  0   Radius =  0.325 angstrom
                   Q00  =   0.100421

Total multipoles referred to origin at
           x =   0.000000,  y =    0.000000,  z =    0.000000 angstrom
                   Q00  =  -0.000000

Finished at 20:54:6 on 28 Apr 2020

  DMA results are available in the Python driver through the
	  variable('DMA DISTRIBUTED MULTIPOLES')
  and
	  variable('DMA TOTAL MULTIPOLES')
  commands.

    Psi4 stopped on: Tuesday, 28 April 2020 08:54PM
    Psi4 wall time for execution: 0:04:55.23

*** Psi4 exiting successfully. Buy a developer a beer!
