                               Psi4 1.3.2 release

  ==> Input File <==

--------------------------------------------------------------------------
import numpy as np
set {scf_type pk
basis cc-pvdz
d_convergence 10
gdma_switch   0
gdma_limit    0
gdma_origin   [ 0.0,  0.0,  0.0 ]
}
molecule test {
    units Angstrom
    0 1
    --
    0 1
    C               -1.983608050407470    -1.115506745002445    -0.765177428267072
    C               -2.753608050407470     0.067493254997555    -1.345177428267072
    H               -0.925608050407470    -0.998506745002445    -0.958177428267072
    H               -2.171608050407470    -1.215506745002445     0.305822571732928
    H               -2.311608050407470    -2.028506745002444    -1.263177428267072
    H               -3.779608050407470    -0.254506745002445    -1.494177428267072
    H               -2.317084450407469     0.370280254997555    -2.308387428267072
    H               -2.756508650407470     0.906499254997555    -0.633797428267072
    C                1.089391949592530     0.141493254997555     0.674822571732928
    C                1.547391949592530     1.399493254997555    -0.033177428267072
    C                2.176391949592530    -0.472506745002445     1.531822571732928
    H                0.176391949592530     0.295493254997555     1.249822571732928
    H                0.896391949592530    -0.574506745002445    -0.117177428267072
    H                0.802391949592530     1.649493254997555    -0.790177428267072
    H                2.482391949592530     1.195493254997555    -0.560177428267072
    H                3.143391949592531    -0.303506745002445     1.052822571732928
    H                2.173391949592530    -0.000506745002445     2.517822571732928
    H                1.682221949592530     2.269366254997556     0.626472571732928
    H                2.001011949592530    -1.554766745002445     1.621012571732928

}
e, wfn = energy('scf', return_wfn=True)
gdma(wfn)
dmavals = variable('DMA DISTRIBUTED MULTIPOLES')
charges = np.array(dmavals)
print(charges)
np.save('SSI-101ALA-104ARG-1-dimer.npy', np.array(charges))--------------------------------------------------------------------------

*** tstart() called on ds3
*** at Tue Apr 28 13:01:31 2020

   => Loading Basis Set <=

    Name: CC-PVDZ
    Role: ORBITAL
    Keyword: BASIS
    atoms 1-2, 9-11  entry C          line   138 file /theoryfs2/ds/metcalf/miniconda2/envs/tf2gpu/share/psi4/basis/cc-pvdz.gbs
    atoms 3-8, 12-19 entry H          line    22 file /theoryfs2/ds/metcalf/miniconda2/envs/tf2gpu/share/psi4/basis/cc-pvdz.gbs

         ---------------------------------------------------------
                                   SCF
               by Justin Turney, Rob Parrish, Andy Simmonett
                          and Daniel G. A. Smith
                              RHF Reference
                        1 Threads,    500 MiB Core
         ---------------------------------------------------------

  ==> Geometry <==

    Molecular point group: c1
    Full point group: C1

    Geometry (in Angstrom), charge = 0, multiplicity = 1:

       Center              X                  Y                   Z               Mass
    ------------   -----------------  -----------------  -----------------  -----------------
         C           -1.983608050407    -1.115506745002    -0.765177428267    12.000000000000
         C           -2.753608050407     0.067493254998    -1.345177428267    12.000000000000
         H           -0.925608050407    -0.998506745002    -0.958177428267     1.007825032230
         H           -2.171608050407    -1.215506745002     0.305822571733     1.007825032230
         H           -2.311608050407    -2.028506745002    -1.263177428267     1.007825032230
         H           -3.779608050407    -0.254506745002    -1.494177428267     1.007825032230
         H           -2.317084450407     0.370280254998    -2.308387428267     1.007825032230
         H           -2.756508650407     0.906499254998    -0.633797428267     1.007825032230
         C            1.089391949593     0.141493254998     0.674822571733    12.000000000000
         C            1.547391949593     1.399493254998    -0.033177428267    12.000000000000
         C            2.176391949593    -0.472506745002     1.531822571733    12.000000000000
         H            0.176391949593     0.295493254998     1.249822571733     1.007825032230
         H            0.896391949593    -0.574506745002    -0.117177428267     1.007825032230
         H            0.802391949593     1.649493254998    -0.790177428267     1.007825032230
         H            2.482391949593     1.195493254998    -0.560177428267     1.007825032230
         H            3.143391949593    -0.303506745002     1.052822571733     1.007825032230
         H            2.173391949593    -0.000506745002     2.517822571733     1.007825032230
         H            1.682221949593     2.269366254998     0.626472571733     1.007825032230
         H            2.001011949593    -1.554766745002     1.621012571733     1.007825032230

  Running in c1 symmetry.

  Rotational constants: A =      0.22598  B =      0.04340  C =      0.03800 [cm^-1]
  Rotational constants: A =   6774.61612  B =   1301.18040  C =   1139.21513 [MHz]
  Nuclear repulsion =  180.034533493821499

  Charge       = 0
  Multiplicity = 1
  Electrons    = 44
  Nalpha       = 22
  Nbeta        = 22

  ==> Algorithm <==

  SCF Algorithm Type is PK.
  DIIS enabled.
  MOM disabled.
  Fractional occupation disabled.
  Guess Type is SAD.
  Energy threshold   = 1.00e-06
  Density threshold  = 1.00e-10
  Integral threshold = 0.00e+00

  ==> Primary Basis <==

  Basis Set: CC-PVDZ
    Blend: CC-PVDZ
    Number of shells: 72
    Number of basis function: 140
    Number of Cartesian functions: 145
    Spherical Harmonics?: true
    Max angular momentum: 2

  ==> Pre-Iterations <==

   -------------------------------------------------------
    Irrep   Nso     Nmo     Nalpha   Nbeta   Ndocc  Nsocc
   -------------------------------------------------------
     A        140     140       0       0       0       0
   -------------------------------------------------------
    Total     140     140      22      22      22       0
   -------------------------------------------------------

  ==> Integral Setup <==

  Using integral reordering PK algorithm.
  Sizing the integral batches needed.
  Building batch lookup table.
   Calculation information:
      Number of atoms:                  19
      Number of AO shells:              72
      Number of primitives:            180
      Number of atomic orbitals:       145
      Number of basis functions:       140

      Integral cutoff                 1.00e-12
      Number of threads:                 1

	Batch   1 pq = [       0,    9405] index = [             0,44231715] size =     44231715
	Batch   2 pq = [    9405,    9870] index = [      44231715,48713385] size =      4481670
  Task number: 5
  Buffer size: 11059200
  Buffer per thread: 2
  We computed 2954637 shell quartets total.
  Whereas there are 3454506 unique shell quartets.

  ==> DiskJK: Disk-Based J/K Matrices <==

    J tasked:                  Yes
    K tasked:                  Yes
    wK tasked:                  No
    Memory [MiB]:              375
    Schwarz Cutoff:          1E-12

    OpenMP threads:              1

  Minimum eigenvalue in the overlap matrix is 4.7984711782E-03.
  Using Symmetric Orthogonalization.

  SCF Guess: Superposition of Atomic Densities via on-the-fly atomic UHF.

  ==> Iterations <==

                        Total Energy        Delta E     RMS |[F,P]|

   @RHF iter SAD:  -196.44836302339712   -1.96448e+02   0.00000e+00
   @RHF iter   1:  -197.30116521710903   -8.52802e-01   3.85009e-03 DIIS
   @RHF iter   2:  -197.46384504874709   -1.62680e-01   1.66712e-03 DIIS
   @RHF iter   3:  -197.49310543930247   -2.92604e-02   3.28281e-04 DIIS
   @RHF iter   4:  -197.49534584471638   -2.24041e-03   4.97793e-05 DIIS
   @RHF iter   5:  -197.49538598261734   -4.01379e-05   1.51544e-05 DIIS
   @RHF iter   6:  -197.49538948021063   -3.49759e-06   2.39251e-06 DIIS
   @RHF iter   7:  -197.49538958495864   -1.04748e-07   4.41033e-07 DIIS
   @RHF iter   8:  -197.49538958878489   -3.82624e-09   1.12722e-07 DIIS
   @RHF iter   9:  -197.49538958901775   -2.32859e-10   3.32954e-08 DIIS
   @RHF iter  10:  -197.49538958904213   -2.43858e-11   7.55575e-09 DIIS
   @RHF iter  11:  -197.49538958904432   -2.18847e-12   1.57669e-09 DIIS
   @RHF iter  12:  -197.49538958904344    8.81073e-13   3.41281e-10 DIIS
   @RHF iter  13:  -197.49538958904364   -1.98952e-13   7.44731e-11 DIIS
  Energy and wave function converged.

  ==> Post-Iterations <==

    Orbital Energies [Eh]
    ---------------------

    Doubly Occupied:

       1A    -11.217852     2A    -11.215592     3A    -11.214942
       4A    -11.213755     5A    -11.213606     6A     -1.059381
       7A     -1.019063     8A     -0.924589     9A     -0.836026
      10A     -0.794722    11A     -0.631124    12A     -0.604503
      13A     -0.599264    14A     -0.591866    15A     -0.550065
      16A     -0.531899    17A     -0.498930    18A     -0.490485
      19A     -0.484588    20A     -0.475860    21A     -0.466896
      22A     -0.455347

    Virtual:

      23A      0.166744    24A      0.196591    25A      0.213409
      26A      0.221721    27A      0.240238    28A      0.246162
      29A      0.249929    30A      0.269220    31A      0.281423
      32A      0.287987    33A      0.300144    34A      0.306091
      35A      0.311738    36A      0.369405    37A      0.392936
      38A      0.395497    39A      0.439849    40A      0.570782
      41A      0.584383    42A      0.591560    43A      0.602955
      44A      0.616721    45A      0.619411    46A      0.638229
      47A      0.657446    48A      0.699104    49A      0.780134
      50A      0.799961    51A      0.810350    52A      0.845675
      53A      0.859925    54A      0.876913    55A      0.887669
      56A      0.891345    57A      0.895802    58A      0.898541
      59A      0.901357    60A      0.906408    61A      0.914001
      62A      0.923118    63A      0.934110    64A      0.943200
      65A      0.962176    66A      0.976822    67A      0.990073
      68A      1.003965    69A      1.111456    70A      1.112831
      71A      1.121771    72A      1.157274    73A      1.200435
      74A      1.266075    75A      1.408696    76A      1.452292
      77A      1.476375    78A      1.484025    79A      1.508096
      80A      1.546068    81A      1.582352    82A      1.645368
      83A      1.661369    84A      1.682434    85A      1.693868
      86A      1.711851    87A      1.736175    88A      1.846061
      89A      1.862073    90A      1.868049    91A      1.881044
      92A      1.894246    93A      1.898286    94A      1.907140
      95A      1.924522    96A      1.931875    97A      1.934326
      98A      1.938631    99A      1.944396   100A      1.953347
     101A      1.978413   102A      1.981493   103A      1.989175
     104A      2.015112   105A      2.025080   106A      2.059423
     107A      2.091452   108A      2.123424   109A      2.144291
     110A      2.180314   111A      2.187480   112A      2.268035
     113A      2.287401   114A      2.301210   115A      2.311534
     116A      2.337465   117A      2.386585   118A      2.427287
     119A      2.448072   120A      2.485356   121A      2.544101
     122A      2.558902   123A      2.598550   124A      2.604082
     125A      2.624965   126A      2.642597   127A      2.757014
     128A      2.770403   129A      2.779688   130A      2.788052
     131A      2.794030   132A      2.826233   133A      2.832805
     134A      2.854277   135A      2.900254   136A      2.934910
     137A      2.966991   138A      2.974284   139A      2.981849
     140A      3.079712

    Final Occupation by Irrep:
              A
    DOCC [    22 ]

  @RHF Final Energy:  -197.49538958904364

   => Energetics <=

    Nuclear Repulsion Energy =            180.0345334938214990
    One-Electron Energy =                -620.8791374116603947
    Two-Electron Energy =                 243.3492143287952274
    Total Energy =                       -197.4953895890436399

Computation Completed

Properties will be evaluated at   0.000000,   0.000000,   0.000000 [a0]

Properties computed using the SCF density matrix

  Nuclear Dipole Moment: [e a0]
     X:    -0.8479      Y:    -0.2285      Z:    -0.7045

  Electronic Dipole Moment: [e a0]
     X:     0.8235      Y:     0.1957      Z:     0.6841

  Dipole Moment: [e a0]
     X:    -0.0244      Y:    -0.0328      Z:    -0.0204     Total:     0.0457

  Dipole Moment: [D]
     X:    -0.0620      Y:    -0.0833      Z:    -0.0518     Total:     0.1161

*** tstop() called on ds3 at Tue Apr 28 13:02:24 2020
Module time:
	user time   =      16.09 seconds =       0.27 minutes
	system time =       5.72 seconds =       0.10 minutes
	total time  =         53 seconds =       0.88 minutes
Total time:
	user time   =      16.09 seconds =       0.27 minutes
	system time =       5.72 seconds =       0.10 minutes
	total time  =         53 seconds =       0.88 minutes
                                     G D M A

                                 by Anthony Stone

                           version 2.2.06, 22 June 2011

               Distributed Multipoles from Gaussian wavefunctions

Starting at 13:2:24 on 28 Apr 2020

Using SCF density matrix from file ./SSI/SSI-101ALA-104ARG-1-dimer.test.15676.fchk

                         Distributed Multipole Analysis

Standard DMA

Positions and radii in angstrom
Multipole moments in atomic units, ea_0^k for rank k

C          x = -1.983608  y = -1.115507  z = -0.765177 angstrom
           Maximum rank =  0   Radius =  0.650 angstrom
                   Q00  =  -0.242575

C          x = -2.753608  y =  0.067493  z = -1.345177 angstrom
           Maximum rank =  0   Radius =  0.650 angstrom
                   Q00  =  -0.239237

H          x = -0.925608  y = -0.998507  z = -0.958177 angstrom
           Maximum rank =  0   Radius =  0.325 angstrom
                   Q00  =   0.084174

H          x = -2.171608  y = -1.215507  z =  0.305823 angstrom
           Maximum rank =  0   Radius =  0.325 angstrom
                   Q00  =   0.078795

H          x = -2.311608  y = -2.028507  z = -1.263177 angstrom
           Maximum rank =  0   Radius =  0.325 angstrom
                   Q00  =   0.078590

H          x = -3.779608  y = -0.254507  z = -1.494177 angstrom
           Maximum rank =  0   Radius =  0.325 angstrom
                   Q00  =   0.081817

H          x = -2.317084  y =  0.370280  z = -2.308387 angstrom
           Maximum rank =  0   Radius =  0.325 angstrom
                   Q00  =   0.078627

H          x = -2.756509  y =  0.906499  z = -0.633797 angstrom
           Maximum rank =  0   Radius =  0.325 angstrom
                   Q00  =   0.077056

C          x =  1.089392  y =  0.141493  z =  0.674823 angstrom
           Maximum rank =  0   Radius =  0.650 angstrom
                   Q00  =  -0.085449

C          x =  1.547392  y =  1.399493  z = -0.033177 angstrom
           Maximum rank =  0   Radius =  0.650 angstrom
                   Q00  =  -0.235247

C          x =  2.176392  y = -0.472507  z =  1.531823 angstrom
           Maximum rank =  0   Radius =  0.650 angstrom
                   Q00  =  -0.231140

H          x =  0.176392  y =  0.295493  z =  1.249823 angstrom
           Maximum rank =  0   Radius =  0.325 angstrom
                   Q00  =   0.052616

H          x =  0.896392  y = -0.574507  z = -0.117177 angstrom
           Maximum rank =  0   Radius =  0.325 angstrom
                   Q00  =   0.038443

H          x =  0.802392  y =  1.649493  z = -0.790177 angstrom
           Maximum rank =  0   Radius =  0.325 angstrom
                   Q00  =   0.078137

H          x =  2.482392  y =  1.195493  z = -0.560177 angstrom
           Maximum rank =  0   Radius =  0.325 angstrom
                   Q00  =   0.075000

H          x =  3.143392  y = -0.303507  z =  1.052823 angstrom
           Maximum rank =  0   Radius =  0.325 angstrom
                   Q00  =   0.073406

H          x =  2.173392  y = -0.000507  z =  2.517823 angstrom
           Maximum rank =  0   Radius =  0.325 angstrom
                   Q00  =   0.075856

H          x =  1.682222  y =  2.269366  z =  0.626473 angstrom
           Maximum rank =  0   Radius =  0.325 angstrom
                   Q00  =   0.077179

H          x =  2.001012  y = -1.554767  z =  1.621013 angstrom
           Maximum rank =  0   Radius =  0.325 angstrom
                   Q00  =   0.083953

Total multipoles referred to origin at
           x =   0.000000,  y =    0.000000,  z =    0.000000 angstrom
                   Q00  =  -0.000000

Finished at 13:2:24 on 28 Apr 2020

  DMA results are available in the Python driver through the
	  variable('DMA DISTRIBUTED MULTIPOLES')
  and
	  variable('DMA TOTAL MULTIPOLES')
  commands.

    Psi4 stopped on: Tuesday, 28 April 2020 01:02PM
    Psi4 wall time for execution: 0:00:52.88

*** Psi4 exiting successfully. Buy a developer a beer!
