                               Psi4 1.3.2 release

  ==> Input File <==

--------------------------------------------------------------------------
import numpy as np
set {scf_type pk
basis cc-pvdz
d_convergence 10
gdma_switch   0
gdma_limit    0
gdma_origin   [ 0.0,  0.0,  0.0 ]
}
molecule test {
    units Angstrom
    0 1
    --
    0 1
    C               -1.828726456228380     0.797963222429687     2.225255378155320
    C               -0.538726456228380     0.467963222429687     2.967255378155320
    H               -2.452726456228381     1.457963222429687     2.827255378155320
    H               -1.579726456228381     1.292963222429687     1.287255378155320
    H               -2.388726456228380    -0.097036777570313     1.968255378155320
    H                0.053273543771620    -0.204036777570313     2.347255378155320
    H               -0.753144456228380    -0.023977777570313     3.927473378155319
    H                0.053241543771620     1.380791222429687     3.129487378155320
    C               -1.762726456228380    -1.311036777570314    -1.246744621844680
    C               -0.453726456228380    -0.630036777570313    -0.972744621844680
    C               -0.269726456228380     0.714963222429687    -1.300744621844680
    C                0.622273543771620    -1.350036777570313    -0.464744621844680
    C                0.977273543771620     1.344963222429687    -1.099744621844680
    C                1.845273543771620    -0.706036777570313    -0.251744621844680
    C                2.012273543771619     0.629963222429687    -0.536744621844680
    H               -2.553726456228381    -0.746036777570313    -0.752744621844680
    H               -1.757726456228380    -2.316036777570313    -0.822744621844680
    H               -1.088726456228380     1.285963222429686    -1.709744621844680
    H                0.515273543771620    -2.401036777570313    -0.230744621844680
    H                1.107273543771620     2.388963222429687    -1.349744621844680
    H                2.674273543771620    -1.266036777570314     0.159255378155320
    H                2.965273543771620     1.105963222429686    -0.351744621844680
    H               -1.979423456228380    -1.366287777570313    -2.323772621844681

}
e, wfn = energy('scf', return_wfn=True)
gdma(wfn)
dmavals = variable('DMA DISTRIBUTED MULTIPOLES')
charges = np.array(dmavals)
print(charges)
np.save('SSI-005LEU-011PHE-1-dimer.npy', np.array(charges))--------------------------------------------------------------------------

*** tstart() called on ds3
*** at Tue Apr 28 15:17:11 2020

   => Loading Basis Set <=

    Name: CC-PVDZ
    Role: ORBITAL
    Keyword: BASIS
    atoms 1-2, 9-15  entry C          line   138 file /theoryfs2/ds/metcalf/miniconda2/envs/tf2gpu/share/psi4/basis/cc-pvdz.gbs
    atoms 3-8, 16-23 entry H          line    22 file /theoryfs2/ds/metcalf/miniconda2/envs/tf2gpu/share/psi4/basis/cc-pvdz.gbs

         ---------------------------------------------------------
                                   SCF
               by Justin Turney, Rob Parrish, Andy Simmonett
                          and Daniel G. A. Smith
                              RHF Reference
                        1 Threads,    500 MiB Core
         ---------------------------------------------------------

  ==> Geometry <==

    Molecular point group: c1
    Full point group: C1

    Geometry (in Angstrom), charge = 0, multiplicity = 1:

       Center              X                  Y                   Z               Mass
    ------------   -----------------  -----------------  -----------------  -----------------
         C           -1.828726456228     0.797963222430     2.225255378155    12.000000000000
         C           -0.538726456228     0.467963222430     2.967255378155    12.000000000000
         H           -2.452726456228     1.457963222430     2.827255378155     1.007825032230
         H           -1.579726456228     1.292963222430     1.287255378155     1.007825032230
         H           -2.388726456228    -0.097036777570     1.968255378155     1.007825032230
         H            0.053273543772    -0.204036777570     2.347255378155     1.007825032230
         H           -0.753144456228    -0.023977777570     3.927473378155     1.007825032230
         H            0.053241543772     1.380791222430     3.129487378155     1.007825032230
         C           -1.762726456228    -1.311036777570    -1.246744621845    12.000000000000
         C           -0.453726456228    -0.630036777570    -0.972744621845    12.000000000000
         C           -0.269726456228     0.714963222430    -1.300744621845    12.000000000000
         C            0.622273543772    -1.350036777570    -0.464744621845    12.000000000000
         C            0.977273543772     1.344963222430    -1.099744621845    12.000000000000
         C            1.845273543772    -0.706036777570    -0.251744621845    12.000000000000
         C            2.012273543772     0.629963222430    -0.536744621845    12.000000000000
         H           -2.553726456228    -0.746036777570    -0.752744621845     1.007825032230
         H           -1.757726456228    -2.316036777570    -0.822744621845     1.007825032230
         H           -1.088726456228     1.285963222430    -1.709744621845     1.007825032230
         H            0.515273543772    -2.401036777570    -0.230744621845     1.007825032230
         H            1.107273543772     2.388963222430    -1.349744621845     1.007825032230
         H            2.674273543772    -1.266036777570     0.159255378155     1.007825032230
         H            2.965273543772     1.105963222430    -0.351744621845     1.007825032230
         H           -1.979423456228    -1.366287777570    -2.323772621845     1.007825032230

  Running in c1 symmetry.

  Rotational constants: A =      0.05524  B =      0.03743  C =      0.03030 [cm^-1]
  Rotational constants: A =   1656.10267  B =   1122.16057  C =    908.37072 [MHz]
  Nuclear repulsion =  422.643005836471104

  Charge       = 0
  Multiplicity = 1
  Electrons    = 68
  Nalpha       = 34
  Nbeta        = 34

  ==> Algorithm <==

  SCF Algorithm Type is PK.
  DIIS enabled.
  MOM disabled.
  Fractional occupation disabled.
  Guess Type is SAD.
  Energy threshold   = 1.00e-06
  Density threshold  = 1.00e-10
  Integral threshold = 0.00e+00

  ==> Primary Basis <==

  Basis Set: CC-PVDZ
    Blend: CC-PVDZ
    Number of shells: 96
    Number of basis function: 196
    Number of Cartesian functions: 205
    Spherical Harmonics?: true
    Max angular momentum: 2

  ==> Pre-Iterations <==

   -------------------------------------------------------
    Irrep   Nso     Nmo     Nalpha   Nbeta   Ndocc  Nsocc
   -------------------------------------------------------
     A        196     196       0       0       0       0
   -------------------------------------------------------
    Total     196     196      34      34      34       0
   -------------------------------------------------------

  ==> Integral Setup <==

  Using integral reordering PK algorithm.
  Sizing the integral batches needed.
  Building batch lookup table.
   Calculation information:
      Number of atoms:                  23
      Number of AO shells:              96
      Number of primitives:            268
      Number of atomic orbitals:       205
      Number of basis functions:       196

      Integral cutoff                 1.00e-12
      Number of threads:                 1

	Batch   1 pq = [       0,    9405] index = [             0,44231715] size =     44231715
	Batch   2 pq = [    9405,   13301] index = [      44231715,88464951] size =     44233236
	Batch   3 pq = [   13301,   16290] index = [      88464951,132690195] size =     44225244
	Batch   4 pq = [   16290,   18810] index = [     132690195,176917455] size =     44227260
	Batch   5 pq = [   18810,   19306] index = [     176917455,186370471] size =      9453016
  Task number: 17
  Buffer size: 11059200
  Buffer per thread: 2
  We computed 10984703 shell quartets total.
  Whereas there are 10841496 unique shell quartets.
     1.32 percent of shell quartets recomputed by reordering.

  ==> DiskJK: Disk-Based J/K Matrices <==

    J tasked:                  Yes
    K tasked:                  Yes
    wK tasked:                  No
    Memory [MiB]:              375
    Schwarz Cutoff:          1E-12

    OpenMP threads:              1

  Minimum eigenvalue in the overlap matrix is 3.1289288775E-04.
  Using Symmetric Orthogonalization.

  SCF Guess: Superposition of Atomic Densities via on-the-fly atomic UHF.

  ==> Iterations <==

                        Total Energy        Delta E     RMS |[F,P]|

   @RHF iter SAD:  -347.89481107988593   -3.47895e+02   0.00000e+00
   @RHF iter   1:  -348.76580665544486   -8.70996e-01   2.91001e-03 DIIS
   @RHF iter   2:  -348.95859517952937   -1.92789e-01   1.22500e-03 DIIS
   @RHF iter   3:  -348.98980889955897   -3.12137e-02   2.61292e-04 DIIS
   @RHF iter   4:  -348.99231454617450   -2.50565e-03   5.39317e-05 DIIS
   @RHF iter   5:  -348.99239145619629   -7.69100e-05   1.76211e-05 DIIS
   @RHF iter   6:  -348.99239912070595   -7.66451e-06   4.89754e-06 DIIS
   @RHF iter   7:  -348.99239981483925   -6.94133e-07   1.35654e-06 DIIS
   @RHF iter   8:  -348.99239987816543   -6.33262e-08   3.50510e-07 DIIS
   @RHF iter   9:  -348.99239988751822   -9.35279e-09   1.54641e-07 DIIS
   @RHF iter  10:  -348.99239988974881   -2.23059e-09   7.26032e-08 DIIS
   @RHF iter  11:  -348.99239989046225   -7.13442e-10   2.65299e-08 DIIS
   @RHF iter  12:  -348.99239989055025   -8.79936e-11   1.28838e-08 DIIS
   @RHF iter  13:  -348.99239989056059   -1.03455e-11   4.19493e-09 DIIS
   @RHF iter  14:  -348.99239989056207   -1.47793e-12   1.16019e-09 DIIS
   @RHF iter  15:  -348.99239989056457   -2.50111e-12   3.44907e-10 DIIS
   @RHF iter  16:  -348.99239989056201    2.55795e-12   9.42748e-11 DIIS
  Energy and wave function converged.

  ==> Post-Iterations <==

    Orbital Energies [Eh]
    ---------------------

    Doubly Occupied:

       1A    -11.241443     2A    -11.237994     3A    -11.234704
       4A    -11.233113     5A    -11.231964     6A    -11.229711
       7A    -11.229121     8A    -11.208681     9A    -11.207344
      10A     -1.154506    11A     -1.049180    12A     -1.009841
      13A     -1.009220    14A     -0.933259    15A     -0.829225
      16A     -0.827578    17A     -0.793524    18A     -0.692518
      19A     -0.633582    20A     -0.630387    21A     -0.593522
      22A     -0.587702    23A     -0.580832    24A     -0.575235
      25A     -0.565595    26A     -0.537431    27A     -0.494128
      28A     -0.489298    29A     -0.487998    30A     -0.480287
      31A     -0.476507    32A     -0.473463    33A     -0.330552
      34A     -0.325168

    Virtual:

      35A      0.131263    36A      0.142906    37A      0.174192
      38A      0.196369    39A      0.209459    40A      0.212900
      41A      0.240335    42A      0.248696    43A      0.253264
      44A      0.262734    45A      0.269384    46A      0.271763
      47A      0.291471    48A      0.304168    49A      0.307324
      50A      0.311969    51A      0.366622    52A      0.375730
      53A      0.405579    54A      0.450836    55A      0.462412
      56A      0.474969    57A      0.500308    58A      0.564173
      59A      0.582287    60A      0.594527    61A      0.596833
      62A      0.613487    63A      0.630243    64A      0.668840
      65A      0.675149    66A      0.687648    67A      0.704377
      68A      0.724824    69A      0.740771    70A      0.748463
      71A      0.749967    72A      0.755767    73A      0.765089
      74A      0.783140    75A      0.798748    76A      0.821959
      77A      0.835424    78A      0.848170    79A      0.853512
      80A      0.862089    81A      0.868307    82A      0.891253
      83A      0.896184    84A      0.899791    85A      0.901088
      86A      0.917107    87A      0.921316    88A      0.925600
      89A      0.945701    90A      0.951012    91A      0.972022
      92A      0.996748    93A      1.001657    94A      1.023776
      95A      1.038966    96A      1.053263    97A      1.127876
      98A      1.134085    99A      1.140207   100A      1.152371
     101A      1.154534   102A      1.159738   103A      1.197839
     104A      1.216346   105A      1.246785   106A      1.251340
     107A      1.263345   108A      1.293697   109A      1.301873
     110A      1.310748   111A      1.320963   112A      1.332523
     113A      1.416147   114A      1.480793   115A      1.488153
     116A      1.508217   117A      1.527438   118A      1.555922
     119A      1.596447   120A      1.614476   121A      1.675097
     122A      1.686115   123A      1.689274   124A      1.704734
     125A      1.733993   126A      1.751217   127A      1.764225
     128A      1.797943   129A      1.816919   130A      1.852481
     131A      1.873787   132A      1.881061   133A      1.885519
     134A      1.895574   135A      1.906793   136A      1.923225
     137A      1.927874   138A      1.932321   139A      1.941100
     140A      1.947692   141A      1.958128   142A      1.961705
     143A      1.964255   144A      1.970573   145A      1.977051
     146A      1.992052   147A      2.003423   148A      2.017283
     149A      2.038088   150A      2.052487   151A      2.082332
     152A      2.108499   153A      2.123234   154A      2.125998
     155A      2.132772   156A      2.155961   157A      2.172788
     158A      2.180874   159A      2.196577   160A      2.244535
     161A      2.269666   162A      2.285334   163A      2.291408
     164A      2.316139   165A      2.319250   166A      2.332697
     167A      2.361165   168A      2.451076   169A      2.470308
     170A      2.472677   171A      2.486548   172A      2.523188
     173A      2.530863   174A      2.570601   175A      2.587611
     176A      2.634248   177A      2.730201   178A      2.751848
     179A      2.772967   180A      2.782026   181A      2.790144
     182A      2.805510   183A      2.812039   184A      2.842115
     185A      2.865768   186A      2.875786   187A      2.886295
     188A      2.964257   189A      2.972480   190A      2.990444
     191A      3.019499   192A      3.042578   193A      3.155639
     194A      3.203576   195A      3.297911   196A      3.969193

    Final Occupation by Irrep:
              A
    DOCC [    34 ]

  @RHF Final Energy:  -348.99239989056201

   => Energetics <=

    Nuclear Repulsion Energy =            422.6430058364711044
    One-Electron Energy =               -1308.0415839466272701
    Two-Electron Energy =                 536.4061782195941532
    Total Energy =                       -348.9923998905620692

Computation Completed

Properties will be evaluated at   0.000000,   0.000000,   0.000000 [a0]

Properties computed using the SCF density matrix

  Nuclear Dipole Moment: [e a0]
     X:    -6.7360      Y:     0.4613      Z:     7.5982

  Electronic Dipole Moment: [e a0]
     X:     6.6881      Y:    -0.5227      Z:    -7.7285

  Dipole Moment: [e a0]
     X:    -0.0479      Y:    -0.0613      Z:    -0.1303     Total:     0.1518

  Dipole Moment: [D]
     X:    -0.1217      Y:    -0.1559      Z:    -0.3312     Total:     0.3857

*** tstop() called on ds3 at Tue Apr 28 15:18:48 2020
Module time:
	user time   =      73.71 seconds =       1.23 minutes
	system time =      26.07 seconds =       0.43 minutes
	total time  =         97 seconds =       1.62 minutes
Total time:
	user time   =      73.71 seconds =       1.23 minutes
	system time =      26.07 seconds =       0.43 minutes
	total time  =         97 seconds =       1.62 minutes
                                     G D M A

                                 by Anthony Stone

                           version 2.2.06, 22 June 2011

               Distributed Multipoles from Gaussian wavefunctions

Starting at 15:18:48 on 28 Apr 2020

Using SCF density matrix from file ./SSI/SSI-005LEU-011PHE-1-dimer.test.13508.fchk

                         Distributed Multipole Analysis

Standard DMA

Positions and radii in angstrom
Multipole moments in atomic units, ea_0^k for rank k

C          x = -1.828726  y =  0.797963  z =  2.225255 angstrom
           Maximum rank =  0   Radius =  0.650 angstrom
                   Q00  =  -0.242940

C          x = -0.538726  y =  0.467963  z =  2.967255 angstrom
           Maximum rank =  0   Radius =  0.650 angstrom
                   Q00  =  -0.229110

H          x = -2.452726  y =  1.457963  z =  2.827255 angstrom
           Maximum rank =  0   Radius =  0.325 angstrom
                   Q00  =   0.072698

H          x = -1.579726  y =  1.292963  z =  1.287255 angstrom
           Maximum rank =  0   Radius =  0.325 angstrom
                   Q00  =   0.083937

H          x = -2.388726  y = -0.097037  z =  1.968255 angstrom
           Maximum rank =  0   Radius =  0.325 angstrom
                   Q00  =   0.074524

H          x =  0.053274  y = -0.204037  z =  2.347255 angstrom
           Maximum rank =  0   Radius =  0.325 angstrom
                   Q00  =   0.089797

H          x = -0.753144  y = -0.023978  z =  3.927473 angstrom
           Maximum rank =  0   Radius =  0.325 angstrom
                   Q00  =   0.070983

H          x =  0.053242  y =  1.380791  z =  3.129487 angstrom
           Maximum rank =  0   Radius =  0.325 angstrom
                   Q00  =   0.077039

C          x = -1.762726  y = -1.311037  z = -1.246745 angstrom
           Maximum rank =  0   Radius =  0.650 angstrom
                   Q00  =  -0.199946

C          x = -0.453726  y = -0.630037  z = -0.972745 angstrom
           Maximum rank =  0   Radius =  0.650 angstrom
                   Q00  =  -0.099726

C          x = -0.269726  y =  0.714963  z = -1.300745 angstrom
           Maximum rank =  0   Radius =  0.650 angstrom
                   Q00  =  -0.078935

C          x =  0.622274  y = -1.350037  z = -0.464745 angstrom
           Maximum rank =  0   Radius =  0.650 angstrom
                   Q00  =  -0.094690

C          x =  0.977274  y =  1.344963  z = -1.099745 angstrom
           Maximum rank =  0   Radius =  0.650 angstrom
                   Q00  =  -0.068112

C          x =  1.845274  y = -0.706037  z = -0.251745 angstrom
           Maximum rank =  0   Radius =  0.650 angstrom
                   Q00  =   0.028841

C          x =  2.012274  y =  0.629963  z = -0.536745 angstrom
           Maximum rank =  0   Radius =  0.650 angstrom
                   Q00  =  -0.093409

H          x = -2.553726  y = -0.746037  z = -0.752745 angstrom
           Maximum rank =  0   Radius =  0.325 angstrom
                   Q00  =   0.101124

H          x = -1.757726  y = -2.316037  z = -0.822745 angstrom
           Maximum rank =  0   Radius =  0.325 angstrom
                   Q00  =   0.097717

H          x = -1.088726  y =  1.285963  z = -1.709745 angstrom
           Maximum rank =  0   Radius =  0.325 angstrom
                   Q00  =   0.057020

H          x =  0.515274  y = -2.401037  z = -0.230745 angstrom
           Maximum rank =  0   Radius =  0.325 angstrom
                   Q00  =   0.060759

H          x =  1.107274  y =  2.388963  z = -1.349745 angstrom
           Maximum rank =  0   Radius =  0.325 angstrom
                   Q00  =   0.066774

H          x =  2.674274  y = -1.266037  z =  0.159255 angstrom
           Maximum rank =  0   Radius =  0.325 angstrom
                   Q00  =   0.062321

H          x =  2.965274  y =  1.105963  z = -0.351745 angstrom
           Maximum rank =  0   Radius =  0.325 angstrom
                   Q00  =   0.059392

H          x = -1.979423  y = -1.366288  z = -2.323773 angstrom
           Maximum rank =  0   Radius =  0.325 angstrom
                   Q00  =   0.103946

Total multipoles referred to origin at
           x =   0.000000,  y =    0.000000,  z =    0.000000 angstrom
                   Q00  =  -0.000000

Finished at 15:18:48 on 28 Apr 2020

  DMA results are available in the Python driver through the
	  variable('DMA DISTRIBUTED MULTIPOLES')
  and
	  variable('DMA TOTAL MULTIPOLES')
  commands.

    Psi4 stopped on: Tuesday, 28 April 2020 03:18PM
    Psi4 wall time for execution: 0:01:37.10

*** Psi4 exiting successfully. Buy a developer a beer!
