                               Psi4 1.3.2 release

  ==> Input File <==

--------------------------------------------------------------------------
import numpy as np
set {scf_type pk
basis cc-pvdz
d_convergence 10
gdma_switch   0
gdma_limit    0
gdma_origin   [ 0.0,  0.0,  0.0 ]
}
molecule test {
    units Angstrom
    -2 1
    --
    -2 1
    C               -1.731903123446093    -0.855243855207852    -0.871390900790874
    C               -0.910903123446093    -0.694243855207852    -2.138390900790874
    C               -1.946903123446093     0.472756144792148    -0.132390900790874
    O               -3.107903123446093     0.901756144792148    -0.054390900790874
    O               -0.983903123446093     1.079756144792148     0.399609099209126
    H               -2.698903123446093    -1.288243855207852    -1.128390900790874
    H               -1.254903123446093    -1.577243855207852    -0.209390900790874
    H                0.074096876553907    -0.322243855207852    -1.894390900790874
    H               -1.373943123446093     0.044369144792148    -2.809240900790874
    H               -0.781303123446093    -1.686123855207852    -2.595960900790875
    C                2.421096876553907    -0.860243855207852     1.879609099209126
    C                2.147096876553907    -0.194243855207852     0.613609099209126
    O                1.054096876553907    -0.506243855207852     0.123609099209126
    O                2.966096876553908     0.629756144792148     0.153609099209126
    H                3.465096876553908    -0.798243855207852     2.110609099209126
    H                2.235096876553908    -1.929243855207852     1.733609099209126
    H                1.727486876553907    -0.475230855207852     2.641629099209126

}
e, wfn = energy('scf', return_wfn=True)
gdma(wfn)
dmavals = variable('DMA DISTRIBUTED MULTIPOLES')
charges = np.array(dmavals)
print(charges)
np.save('SSI-060ASP-165ASP-1-dimer.npy', np.array(charges))--------------------------------------------------------------------------

*** tstart() called on ds3
*** at Mon Apr 27 18:43:37 2020

   => Loading Basis Set <=

    Name: CC-PVDZ
    Role: ORBITAL
    Keyword: BASIS
    atoms 1-3, 11-12  entry C          line   138 file /theoryfs2/ds/metcalf/miniconda2/envs/tf2gpu/share/psi4/basis/cc-pvdz.gbs
    atoms 4-5, 13-14  entry O          line   198 file /theoryfs2/ds/metcalf/miniconda2/envs/tf2gpu/share/psi4/basis/cc-pvdz.gbs
    atoms 6-10, 15-17 entry H          line    22 file /theoryfs2/ds/metcalf/miniconda2/envs/tf2gpu/share/psi4/basis/cc-pvdz.gbs

         ---------------------------------------------------------
                                   SCF
               by Justin Turney, Rob Parrish, Andy Simmonett
                          and Daniel G. A. Smith
                              RHF Reference
                        1 Threads,    500 MiB Core
         ---------------------------------------------------------

  ==> Geometry <==

    Molecular point group: c1
    Full point group: C1

    Geometry (in Angstrom), charge = -2, multiplicity = 1:

       Center              X                  Y                   Z               Mass
    ------------   -----------------  -----------------  -----------------  -----------------
         C           -1.731903123446    -0.855243855208    -0.871390900791    12.000000000000
         C           -0.910903123446    -0.694243855208    -2.138390900791    12.000000000000
         C           -1.946903123446     0.472756144792    -0.132390900791    12.000000000000
         O           -3.107903123446     0.901756144792    -0.054390900791    15.994914619570
         O           -0.983903123446     1.079756144792     0.399609099209    15.994914619570
         H           -2.698903123446    -1.288243855208    -1.128390900791     1.007825032230
         H           -1.254903123446    -1.577243855208    -0.209390900791     1.007825032230
         H            0.074096876554    -0.322243855208    -1.894390900791     1.007825032230
         H           -1.373943123446     0.044369144792    -2.809240900791     1.007825032230
         H           -0.781303123446    -1.686123855208    -2.595960900791     1.007825032230
         C            2.421096876554    -0.860243855208     1.879609099209    12.000000000000
         C            2.147096876554    -0.194243855208     0.613609099209    12.000000000000
         O            1.054096876554    -0.506243855208     0.123609099209    15.994914619570
         O            2.966096876554     0.629756144792     0.153609099209    15.994914619570
         H            3.465096876554    -0.798243855208     2.110609099209     1.007825032230
         H            2.235096876554    -1.929243855208     1.733609099209     1.007825032230
         H            1.727486876554    -0.475230855208     2.641629099209     1.007825032230

  Running in c1 symmetry.

  Rotational constants: A =      0.09401  B =      0.02462  C =      0.02253 [cm^-1]
  Rotational constants: A =   2818.44557  B =    737.95604  C =    675.44743 [MHz]
  Nuclear repulsion =  436.105257015646202

  Charge       = -2
  Multiplicity = 1
  Electrons    = 72
  Nalpha       = 36
  Nbeta        = 36

  ==> Algorithm <==

  SCF Algorithm Type is PK.
  DIIS enabled.
  MOM disabled.
  Fractional occupation disabled.
  Guess Type is SAD.
  Energy threshold   = 1.00e-06
  Density threshold  = 1.00e-10
  Integral threshold = 0.00e+00

  ==> Primary Basis <==

  Basis Set: CC-PVDZ
    Blend: CC-PVDZ
    Number of shells: 78
    Number of basis function: 166
    Number of Cartesian functions: 175
    Spherical Harmonics?: true
    Max angular momentum: 2

  ==> Pre-Iterations <==

   -------------------------------------------------------
    Irrep   Nso     Nmo     Nalpha   Nbeta   Ndocc  Nsocc
   -------------------------------------------------------
     A        166     166       0       0       0       0
   -------------------------------------------------------
    Total     166     166      36      36      36       0
   -------------------------------------------------------

  ==> Integral Setup <==

  Using integral reordering PK algorithm.
  Sizing the integral batches needed.
  Building batch lookup table.
   Calculation information:
      Number of atoms:                  17
      Number of AO shells:              78
      Number of primitives:            238
      Number of atomic orbitals:       175
      Number of basis functions:       166

      Integral cutoff                 1.00e-12
      Number of threads:                 1

	Batch   1 pq = [       0,    9405] index = [             0,44231715] size =     44231715
	Batch   2 pq = [    9405,   13301] index = [      44231715,88464951] size =     44233236
	Batch   3 pq = [   13301,   13861] index = [      88464951,96070591] size =      7605640
  Task number: 9
  Buffer size: 11059200
  Buffer per thread: 2
  We computed 3992460 shell quartets total.
  Whereas there are 4747821 unique shell quartets.

  ==> DiskJK: Disk-Based J/K Matrices <==

    J tasked:                  Yes
    K tasked:                  Yes
    wK tasked:                  No
    Memory [MiB]:              375
    Schwarz Cutoff:          1E-12

    OpenMP threads:              1

  Minimum eigenvalue in the overlap matrix is 4.3550094066E-03.
  Using Symmetric Orthogonalization.

  SCF Guess: Superposition of Atomic Densities via on-the-fly atomic UHF.

  ==> Iterations <==

                        Total Energy        Delta E     RMS |[F,P]|

   @RHF iter SAD:  -491.55061820691321   -4.91551e+02   0.00000e+00
   @RHF iter   1:  -492.96597289872921   -1.41535e+00   5.62304e-03 DIIS
   @RHF iter   2:  -493.26718875999796   -3.01216e-01   3.27613e-03 DIIS
   @RHF iter   3:  -493.37128405324131   -1.04095e-01   4.41171e-04 DIIS
   @RHF iter   4:  -493.37470086224783   -3.41681e-03   1.79794e-04 DIIS
   @RHF iter   5:  -493.37530155099853   -6.00689e-04   3.96291e-05 DIIS
   @RHF iter   6:  -493.37532790965696   -2.63587e-05   1.75281e-05 DIIS
   @RHF iter   7:  -493.37533280754917   -4.89789e-06   3.01170e-06 DIIS
   @RHF iter   8:  -493.37533312496191   -3.17413e-07   1.24301e-06 DIIS
   @RHF iter   9:  -493.37533317450362   -4.95417e-08   5.23705e-07 DIIS
   @RHF iter  10:  -493.37533318606131   -1.15577e-08   2.29178e-07 DIIS
   @RHF iter  11:  -493.37533318778588   -1.72457e-09   8.80074e-08 DIIS
   @RHF iter  12:  -493.37533318802804   -2.42153e-10   2.45455e-08 DIIS
   @RHF iter  13:  -493.37533318805089   -2.28511e-11   5.75243e-09 DIIS
   @RHF iter  14:  -493.37533318805174   -8.52651e-13   1.67202e-09 DIIS
   @RHF iter  15:  -493.37533318805043    1.30740e-12   5.94262e-10 DIIS
   @RHF iter  16:  -493.37533318805004    3.97904e-13   2.66210e-10 DIIS
   @RHF iter  17:  -493.37533318805021   -1.70530e-13   1.09781e-10 DIIS
   @RHF iter  18:  -493.37533318805049   -2.84217e-13   4.46329e-11 DIIS
  Energy and wave function converged.

  ==> Post-Iterations <==

    Orbital Energies [Eh]
    ---------------------

    Doubly Occupied:

       1A    -20.139103     2A    -20.127986     3A    -20.123652
       4A    -20.105735     5A    -10.984176     6A    -10.972044
       7A    -10.932898     8A    -10.932015     9A    -10.911941
      10A     -1.030370    11A     -1.011630    12A     -0.920820
      13A     -0.889710    14A     -0.732454    15A     -0.695692
      16A     -0.560002    17A     -0.388088    18A     -0.371717
      19A     -0.318480    20A     -0.311862    21A     -0.299072
      22A     -0.290685    23A     -0.277963    24A     -0.246008
      25A     -0.229199    26A     -0.227637    27A     -0.215634
      28A     -0.184800    29A     -0.174114    30A     -0.163734
      31A     -0.062604    32A     -0.049703    33A     -0.045151
      34A     -0.043117    35A     -0.016578    36A     -0.008142

    Virtual:

      37A      0.454233    38A      0.462427    39A      0.501460
      40A      0.506252    41A      0.515326    42A      0.521374
      43A      0.556569    44A      0.600373    45A      0.609184
      46A      0.617155    47A      0.685470    48A      0.690694
      49A      0.742195    50A      0.819684    51A      0.828150
      52A      0.843252    53A      0.872413    54A      0.902276
      55A      0.920153    56A      0.955585    57A      0.972072
      58A      0.976738    59A      1.060929    60A      1.101850
      61A      1.106622    62A      1.121806    63A      1.132848
      64A      1.136796    65A      1.145848    66A      1.147656
      67A      1.157718    68A      1.174076    69A      1.182290
      70A      1.194773    71A      1.202209    72A      1.214928
      73A      1.236200    74A      1.271725    75A      1.294742
      76A      1.298183    77A      1.343685    78A      1.394520
      79A      1.434759    80A      1.444269    81A      1.455717
      82A      1.465415    83A      1.540678    84A      1.600464
      85A      1.623494    86A      1.649329    87A      1.655495
      88A      1.667613    89A      1.689894    90A      1.719395
      91A      1.730079    92A      1.749203    93A      1.771725
      94A      1.796643    95A      1.828150    96A      1.854303
      97A      1.864352    98A      1.869539    99A      1.912059
     100A      1.935752   101A      1.964375   102A      1.985817
     103A      2.010925   104A      2.081393   105A      2.105874
     106A      2.152693   107A      2.176896   108A      2.178068
     109A      2.198159   110A      2.233184   111A      2.250056
     112A      2.255557   113A      2.267049   114A      2.279775
     115A      2.291218   116A      2.311451   117A      2.325489
     118A      2.350787   119A      2.378468   120A      2.423662
     121A      2.459443   122A      2.483223   123A      2.494856
     124A      2.506556   125A      2.540521   126A      2.572623
     127A      2.620003   128A      2.653689   129A      2.689894
     130A      2.744914   131A      2.772960   132A      2.812445
     133A      2.825679   134A      2.858381   135A      2.863821
     136A      2.891910   137A      2.911789   138A      2.988757
     139A      3.047070   140A      3.055353   141A      3.069334
     142A      3.151677   143A      3.159003   144A      3.164353
     145A      3.185489   146A      3.301863   147A      3.365167
     148A      3.386835   149A      3.396097   150A      3.427407
     151A      3.432158   152A      3.443251   153A      3.498221
     154A      3.510165   155A      3.750035   156A      3.790805
     157A      3.919581   158A      3.963660   159A      3.972306
     160A      4.008002   161A      4.184180   162A      4.204119
     163A      4.242447   164A      4.282165   165A      4.344381
     166A      4.373178

    Final Occupation by Irrep:
              A
    DOCC [    36 ]

  @RHF Final Energy:  -493.37533318805049

   => Energetics <=

    Nuclear Repulsion Energy =            436.1052570156462025
    One-Electron Energy =               -1568.9721457856435336
    Two-Electron Energy =                 639.4915555819468409
    Total Energy =                       -493.3753331880504902

Computation Completed

Properties will be evaluated at   0.000000,   0.000000,   0.000000 [a0]

Properties computed using the SCF density matrix

  Nuclear Dipole Moment: [e a0]
     X:     1.3053      Y:    -7.5198      Z:    -2.0140

  Electronic Dipole Moment: [e a0]
     X:    -0.8554      Y:     5.4565      Z:     1.8701

  Dipole Moment: [e a0]
     X:     0.4499      Y:    -2.0634      Z:    -0.1439     Total:     2.1167

  Dipole Moment: [D]
     X:     1.1434      Y:    -5.2446      Z:    -0.3657     Total:     5.3802

*** tstop() called on ds3 at Mon Apr 27 18:45:00 2020
Module time:
	user time   =      33.21 seconds =       0.55 minutes
	system time =      13.76 seconds =       0.23 minutes
	total time  =         83 seconds =       1.38 minutes
Total time:
	user time   =      33.21 seconds =       0.55 minutes
	system time =      13.76 seconds =       0.23 minutes
	total time  =         83 seconds =       1.38 minutes
                                     G D M A

                                 by Anthony Stone

                           version 2.2.06, 22 June 2011

               Distributed Multipoles from Gaussian wavefunctions

Starting at 18:45:0 on 27 Apr 2020

Using SCF density matrix from file ./SSI/SSI-060ASP-165ASP-1-dimer.test.28640.fchk

                         Distributed Multipole Analysis

Standard DMA

Positions and radii in angstrom
Multipole moments in atomic units, ea_0^k for rank k

C          x = -1.731903  y = -0.855244  z = -0.871391 angstrom
           Maximum rank =  0   Radius =  0.650 angstrom
                   Q00  =  -0.077740

C          x = -0.910903  y = -0.694244  z = -2.138391 angstrom
           Maximum rank =  0   Radius =  0.650 angstrom
                   Q00  =  -0.209732

C          x = -1.946903  y =  0.472756  z = -0.132391 angstrom
           Maximum rank =  0   Radius =  0.650 angstrom
                   Q00  =   1.008103

O          x = -3.107903  y =  0.901756  z = -0.054391 angstrom
           Maximum rank =  0   Radius =  0.650 angstrom
                   Q00  =  -0.963463

O          x = -0.983903  y =  1.079756  z =  0.399609 angstrom
           Maximum rank =  0   Radius =  0.650 angstrom
                   Q00  =  -0.931948

H          x = -2.698903  y = -1.288244  z = -1.128391 angstrom
           Maximum rank =  0   Radius =  0.325 angstrom
                   Q00  =  -0.049886

H          x = -1.254903  y = -1.577244  z = -0.209391 angstrom
           Maximum rank =  0   Radius =  0.325 angstrom
                   Q00  =   0.062113

H          x =  0.074097  y = -0.322244  z = -1.894391 angstrom
           Maximum rank =  0   Radius =  0.325 angstrom
                   Q00  =   0.139614

H          x = -1.373943  y =  0.044369  z = -2.809241 angstrom
           Maximum rank =  0   Radius =  0.325 angstrom
                   Q00  =   0.010732

H          x = -0.781303  y = -1.686124  z = -2.595961 angstrom
           Maximum rank =  0   Radius =  0.325 angstrom
                   Q00  =  -0.019690

C          x =  2.421097  y = -0.860244  z =  1.879609 angstrom
           Maximum rank =  0   Radius =  0.650 angstrom
                   Q00  =  -0.221872

C          x =  2.147097  y = -0.194244  z =  0.613609 angstrom
           Maximum rank =  0   Radius =  0.650 angstrom
                   Q00  =   1.005657

O          x =  1.054097  y = -0.506244  z =  0.123609 angstrom
           Maximum rank =  0   Radius =  0.650 angstrom
                   Q00  =  -0.873331

O          x =  2.966097  y =  0.629756  z =  0.153609 angstrom
           Maximum rank =  0   Radius =  0.650 angstrom
                   Q00  =  -0.967967

H          x =  3.465097  y = -0.798244  z =  2.110609 angstrom
           Maximum rank =  0   Radius =  0.325 angstrom
                   Q00  =  -0.017135

H          x =  2.235097  y = -1.929244  z =  1.733609 angstrom
           Maximum rank =  0   Radius =  0.325 angstrom
                   Q00  =   0.033239

H          x =  1.727487  y = -0.475231  z =  2.641629 angstrom
           Maximum rank =  0   Radius =  0.325 angstrom
                   Q00  =   0.073305

Total multipoles referred to origin at
           x =   0.000000,  y =    0.000000,  z =    0.000000 angstrom
                   Q00  =  -2.000000

Finished at 18:45:0 on 27 Apr 2020

  DMA results are available in the Python driver through the
	  variable('DMA DISTRIBUTED MULTIPOLES')
  and
	  variable('DMA TOTAL MULTIPOLES')
  commands.

    Psi4 stopped on: Monday, 27 April 2020 06:45PM
    Psi4 wall time for execution: 0:01:22.42

*** Psi4 exiting successfully. Buy a developer a beer!
