                               Psi4 1.3.2 release

  ==> Input File <==

--------------------------------------------------------------------------
import numpy as np
set {scf_type pk
basis cc-pvdz
d_convergence 10
gdma_switch   0
gdma_limit    0
gdma_origin   [ 0.0,  0.0,  0.0 ]
}
molecule test {
    units Angstrom
    0 1
    --
    0 1
    C                2.022981743469678     0.667121033507765     0.296680483089505
    C                2.762981743469677     1.996121033507764     0.409680483089505
    H                1.543981743469677     0.579121033507765    -0.681319516910495
    H                2.717981743469677    -0.163878966492235     0.435680483089505
    H                1.280981743469678     0.647121033507765     1.092680483089505
    H                3.133981743469677     2.098121033507764     1.430680483089505
    H                2.069181743469677     2.824015033507764     0.201765483089505
    H                3.637591743469677     1.996121033507764    -0.257444516910495
    C               -1.109018256530322    -1.141878966492236     0.060680483089505
    C               -1.357018256530323    -0.954878966492235    -1.422319516910495
    C               -2.387018256530323    -0.652878966492235     0.674680483089505
    H               -0.283018256530322    -0.531878966492235     0.383680483089505
    H               -0.942018256530322    -2.198878966492236     0.251680483089505
    H               -0.422018256530322    -0.771878966492235    -1.952319516910495
    H               -1.872018256530322    -1.824878966492235    -1.834319516910495
    H               -2.371018256530323    -0.434878966492235     1.720680483089505
    H               -3.077018256530323    -1.367878966492235     0.342680483089505
    H               -2.019328256530323    -0.077298966492235    -1.456822516910495
    H               -2.598418256530322     0.255641033507765     0.091675483089505

}
e, wfn = energy('scf', return_wfn=True)
gdma(wfn)
dmavals = variable('DMA DISTRIBUTED MULTIPOLES')
charges = np.array(dmavals)
print(charges)
np.save('SSI-087ALA-171PRO-1-dimer.npy', np.array(charges))--------------------------------------------------------------------------

*** tstart() called on ds3
*** at Sun Apr 26 22:17:38 2020

   => Loading Basis Set <=

    Name: CC-PVDZ
    Role: ORBITAL
    Keyword: BASIS
    atoms 1-2, 9-11  entry C          line   138 file /theoryfs2/ds/metcalf/miniconda2/envs/tf2gpu/share/psi4/basis/cc-pvdz.gbs
    atoms 3-8, 12-19 entry H          line    22 file /theoryfs2/ds/metcalf/miniconda2/envs/tf2gpu/share/psi4/basis/cc-pvdz.gbs

         ---------------------------------------------------------
                                   SCF
               by Justin Turney, Rob Parrish, Andy Simmonett
                          and Daniel G. A. Smith
                              RHF Reference
                        1 Threads,    500 MiB Core
         ---------------------------------------------------------

  ==> Geometry <==

    Molecular point group: c1
    Full point group: C1

    Geometry (in Angstrom), charge = 0, multiplicity = 1:

       Center              X                  Y                   Z               Mass
    ------------   -----------------  -----------------  -----------------  -----------------
         C            2.022981743470     0.667121033508     0.296680483090    12.000000000000
         C            2.762981743470     1.996121033508     0.409680483090    12.000000000000
         H            1.543981743470     0.579121033508    -0.681319516910     1.007825032230
         H            2.717981743470    -0.163878966492     0.435680483090     1.007825032230
         H            1.280981743470     0.647121033508     1.092680483090     1.007825032230
         H            3.133981743470     2.098121033508     1.430680483090     1.007825032230
         H            2.069181743470     2.824015033508     0.201765483090     1.007825032230
         H            3.637591743470     1.996121033508    -0.257444516910     1.007825032230
         C           -1.109018256530    -1.141878966492     0.060680483090    12.000000000000
         C           -1.357018256530    -0.954878966492    -1.422319516910    12.000000000000
         C           -2.387018256530    -0.652878966492     0.674680483090    12.000000000000
         H           -0.283018256530    -0.531878966492     0.383680483090     1.007825032230
         H           -0.942018256530    -2.198878966492     0.251680483090     1.007825032230
         H           -0.422018256530    -0.771878966492    -1.952319516910     1.007825032230
         H           -1.872018256530    -1.824878966492    -1.834319516910     1.007825032230
         H           -2.371018256530    -0.434878966492     1.720680483090     1.007825032230
         H           -3.077018256530    -1.367878966492     0.342680483090     1.007825032230
         H           -2.019328256530    -0.077298966492    -1.456822516910     1.007825032230
         H           -2.598418256530     0.255641033508     0.091675483090     1.007825032230

  Running in c1 symmetry.

  Rotational constants: A =      0.25133  B =      0.03920  C =      0.03661 [cm^-1]
  Rotational constants: A =   7534.81096  B =   1175.12283  C =   1097.61016 [MHz]
  Nuclear repulsion =  180.640111202592095

  Charge       = 0
  Multiplicity = 1
  Electrons    = 44
  Nalpha       = 22
  Nbeta        = 22

  ==> Algorithm <==

  SCF Algorithm Type is PK.
  DIIS enabled.
  MOM disabled.
  Fractional occupation disabled.
  Guess Type is SAD.
  Energy threshold   = 1.00e-06
  Density threshold  = 1.00e-10
  Integral threshold = 0.00e+00

  ==> Primary Basis <==

  Basis Set: CC-PVDZ
    Blend: CC-PVDZ
    Number of shells: 72
    Number of basis function: 140
    Number of Cartesian functions: 145
    Spherical Harmonics?: true
    Max angular momentum: 2

  ==> Pre-Iterations <==

   -------------------------------------------------------
    Irrep   Nso     Nmo     Nalpha   Nbeta   Ndocc  Nsocc
   -------------------------------------------------------
     A        140     140       0       0       0       0
   -------------------------------------------------------
    Total     140     140      22      22      22       0
   -------------------------------------------------------

  ==> Integral Setup <==

  Using integral reordering PK algorithm.
  Sizing the integral batches needed.
  Building batch lookup table.
   Calculation information:
      Number of atoms:                  19
      Number of AO shells:              72
      Number of primitives:            180
      Number of atomic orbitals:       145
      Number of basis functions:       140

      Integral cutoff                 1.00e-12
      Number of threads:                 1

	Batch   1 pq = [       0,    9405] index = [             0,44231715] size =     44231715
	Batch   2 pq = [    9405,    9870] index = [      44231715,48713385] size =      4481670
  Task number: 5
  Buffer size: 11059200
  Buffer per thread: 2
  We computed 2864956 shell quartets total.
  Whereas there are 3454506 unique shell quartets.

  ==> DiskJK: Disk-Based J/K Matrices <==

    J tasked:                  Yes
    K tasked:                  Yes
    wK tasked:                  No
    Memory [MiB]:              375
    Schwarz Cutoff:          1E-12

    OpenMP threads:              1

  Minimum eigenvalue in the overlap matrix is 4.7510709943E-03.
  Using Symmetric Orthogonalization.

  SCF Guess: Superposition of Atomic Densities via on-the-fly atomic UHF.

  ==> Iterations <==

                        Total Energy        Delta E     RMS |[F,P]|

   @RHF iter SAD:  -196.64607375338849   -1.96646e+02   0.00000e+00
   @RHF iter   1:  -197.27834627457256   -6.32273e-01   3.90259e-03 DIIS
   @RHF iter   2:  -197.44326409586179   -1.64918e-01   1.68526e-03 DIIS
   @RHF iter   3:  -197.47301382225493   -2.97497e-02   3.32791e-04 DIIS
   @RHF iter   4:  -197.47525615924928   -2.24234e-03   5.02400e-05 DIIS
   @RHF iter   5:  -197.47529864024889   -4.24810e-05   1.54655e-05 DIIS
   @RHF iter   6:  -197.47530245830174   -3.81805e-06   2.82864e-06 DIIS
   @RHF iter   7:  -197.47530260612314   -1.47821e-07   5.49786e-07 DIIS
   @RHF iter   8:  -197.47530261276526   -6.64213e-09   1.32280e-07 DIIS
   @RHF iter   9:  -197.47530261313526   -3.69994e-10   4.29667e-08 DIIS
   @RHF iter  10:  -197.47530261317655   -4.12967e-11   9.48423e-09 DIIS
   @RHF iter  11:  -197.47530261317848   -1.93268e-12   1.76179e-09 DIIS
   @RHF iter  12:  -197.47530261317834    1.42109e-13   3.29390e-10 DIIS
   @RHF iter  13:  -197.47530261317888   -5.40012e-13   6.32670e-11 DIIS
  Energy and wave function converged.

  ==> Post-Iterations <==

    Orbital Energies [Eh]
    ---------------------

    Doubly Occupied:

       1A    -11.219818     2A    -11.218199     3A    -11.210619
       4A    -11.207328     5A    -11.203405     6A     -1.074516
       7A     -1.021480     8A     -0.915071     9A     -0.836895
      10A     -0.798693    11A     -0.644104    12A     -0.620444
      13A     -0.603138    14A     -0.599855    15A     -0.543802
      16A     -0.506698    17A     -0.502093    18A     -0.492889
      19A     -0.485378    20A     -0.478308    21A     -0.468171
      22A     -0.455815

    Virtual:

      23A      0.174544    24A      0.197075    25A      0.218253
      26A      0.227629    27A      0.230713    28A      0.249235
      29A      0.261127    30A      0.266702    31A      0.283041
      32A      0.290579    33A      0.292799    34A      0.317971
      35A      0.345447    36A      0.353874    37A      0.381797
      38A      0.403645    39A      0.433529    40A      0.574115
      41A      0.592324    42A      0.597395    43A      0.604872
      44A      0.617009    45A      0.626215    46A      0.656546
      47A      0.670778    48A      0.684596    49A      0.747924
      50A      0.792481    51A      0.842738    52A      0.850930
      53A      0.859998    54A      0.884785    55A      0.889408
      56A      0.892453    57A      0.894938    58A      0.896545
      59A      0.909928    60A      0.915319    61A      0.917561
      62A      0.931634    63A      0.938325    64A      0.948886
      65A      0.959828    66A      0.988093    67A      0.997342
      68A      1.033282    69A      1.111547    70A      1.123247
      71A      1.125861    72A      1.158918    73A      1.237873
      74A      1.305447    75A      1.395361    76A      1.469670
      77A      1.481341    78A      1.494768    79A      1.523204
      80A      1.573980    81A      1.608218    82A      1.631038
      83A      1.659782    84A      1.672800    85A      1.685412
      86A      1.728836    87A      1.757398    88A      1.795723
      89A      1.847781    90A      1.868888    91A      1.872255
      92A      1.883898    93A      1.912995    94A      1.917525
      95A      1.929289    96A      1.937654    97A      1.946553
      98A      1.956099    99A      1.966423   100A      1.968405
     101A      1.985189   102A      2.004779   103A      2.025753
     104A      2.027202   105A      2.042065   106A      2.058599
     107A      2.105781   108A      2.120056   109A      2.132223
     110A      2.182201   111A      2.238237   112A      2.258303
     113A      2.288670   114A      2.309017   115A      2.330249
     116A      2.351024   117A      2.422670   118A      2.449359
     119A      2.487348   120A      2.508928   121A      2.537348
     122A      2.555592   123A      2.570067   124A      2.580191
     125A      2.645162   126A      2.744752   127A      2.758498
     128A      2.768989   129A      2.791006   130A      2.798793
     131A      2.830901   132A      2.839847   133A      2.845602
     134A      2.879920   135A      2.930145   136A      2.940080
     137A      2.970914   138A      2.979599   139A      2.995090
     140A      3.107853

    Final Occupation by Irrep:
              A
    DOCC [    22 ]

  @RHF Final Energy:  -197.47530261317888

   => Energetics <=

    Nuclear Repulsion Energy =            180.6401112025920952
    One-Electron Energy =                -622.0173883590440482
    Two-Electron Energy =                 243.9019745432730701
    Total Energy =                       -197.4753026131788829

Computation Completed

Properties will be evaluated at   0.000000,   0.000000,   0.000000 [a0]

Properties computed using the SCF density matrix

  Nuclear Dipole Moment: [e a0]
     X:     0.7489      Y:     0.9644      Z:    -0.2166

  Electronic Dipole Moment: [e a0]
     X:    -0.6843      Y:    -0.9711      Z:     0.2523

  Dipole Moment: [e a0]
     X:     0.0646      Y:    -0.0068      Z:     0.0358     Total:     0.0742

  Dipole Moment: [D]
     X:     0.1642      Y:    -0.0172      Z:     0.0909     Total:     0.1885

*** tstop() called on ds3 at Sun Apr 26 22:18:00 2020
Module time:
	user time   =      15.80 seconds =       0.26 minutes
	system time =       6.62 seconds =       0.11 minutes
	total time  =         22 seconds =       0.37 minutes
Total time:
	user time   =      15.80 seconds =       0.26 minutes
	system time =       6.62 seconds =       0.11 minutes
	total time  =         22 seconds =       0.37 minutes
                                     G D M A

                                 by Anthony Stone

                           version 2.2.06, 22 June 2011

               Distributed Multipoles from Gaussian wavefunctions

Starting at 22:18:0 on 26 Apr 2020

Using SCF density matrix from file ./SSI/SSI-087ALA-171PRO-1-dimer.test.27992.fchk

                         Distributed Multipole Analysis

Standard DMA

Positions and radii in angstrom
Multipole moments in atomic units, ea_0^k for rank k

C          x =  2.022982  y =  0.667121  z =  0.296680 angstrom
           Maximum rank =  0   Radius =  0.650 angstrom
                   Q00  =  -0.234730

C          x =  2.762982  y =  1.996121  z =  0.409680 angstrom
           Maximum rank =  0   Radius =  0.650 angstrom
                   Q00  =  -0.231403

H          x =  1.543982  y =  0.579121  z = -0.681320 angstrom
           Maximum rank =  0   Radius =  0.325 angstrom
                   Q00  =   0.078094

H          x =  2.717982  y = -0.163879  z =  0.435680 angstrom
           Maximum rank =  0   Radius =  0.325 angstrom
                   Q00  =   0.082356

H          x =  1.280982  y =  0.647121  z =  1.092680 angstrom
           Maximum rank =  0   Radius =  0.325 angstrom
                   Q00  =   0.072022

H          x =  3.133982  y =  2.098121  z =  1.430680 angstrom
           Maximum rank =  0   Radius =  0.325 angstrom
                   Q00  =   0.077273

H          x =  2.069182  y =  2.824015  z =  0.201765 angstrom
           Maximum rank =  0   Radius =  0.325 angstrom
                   Q00  =   0.079212

H          x =  3.637592  y =  1.996121  z = -0.257445 angstrom
           Maximum rank =  0   Radius =  0.325 angstrom
                   Q00  =   0.079083

C          x = -1.109018  y = -1.141879  z =  0.060680 angstrom
           Maximum rank =  0   Radius =  0.650 angstrom
                   Q00  =  -0.101673

C          x = -1.357018  y = -0.954879  z = -1.422320 angstrom
           Maximum rank =  0   Radius =  0.650 angstrom
                   Q00  =  -0.232405

C          x = -2.387018  y = -0.652879  z =  0.674680 angstrom
           Maximum rank =  0   Radius =  0.650 angstrom
                   Q00  =  -0.182430

H          x = -0.283018  y = -0.531879  z =  0.383680 angstrom
           Maximum rank =  0   Radius =  0.325 angstrom
                   Q00  =   0.065367

H          x = -0.942018  y = -2.198879  z =  0.251680 angstrom
           Maximum rank =  0   Radius =  0.325 angstrom
                   Q00  =   0.051554

H          x = -0.422018  y = -0.771879  z = -1.952320 angstrom
           Maximum rank =  0   Radius =  0.325 angstrom
                   Q00  =   0.080691

H          x = -1.872018  y = -1.824879  z = -1.834320 angstrom
           Maximum rank =  0   Radius =  0.325 angstrom
                   Q00  =   0.084006

H          x = -2.371018  y = -0.434879  z =  1.720680 angstrom
           Maximum rank =  0   Radius =  0.325 angstrom
                   Q00  =   0.072795

H          x = -3.077018  y = -1.367879  z =  0.342680 angstrom
           Maximum rank =  0   Radius =  0.325 angstrom
                   Q00  =   0.063598

H          x = -2.019328  y = -0.077299  z = -1.456823 angstrom
           Maximum rank =  0   Radius =  0.325 angstrom
                   Q00  =   0.055858

H          x = -2.598418  y =  0.255641  z =  0.091675 angstrom
           Maximum rank =  0   Radius =  0.325 angstrom
                   Q00  =   0.040733

Total multipoles referred to origin at
           x =   0.000000,  y =    0.000000,  z =    0.000000 angstrom
                   Q00  =  -0.000000

Finished at 22:18:0 on 26 Apr 2020

  DMA results are available in the Python driver through the
	  variable('DMA DISTRIBUTED MULTIPOLES')
  and
	  variable('DMA TOTAL MULTIPOLES')
  commands.

    Psi4 stopped on: Sunday, 26 April 2020 10:18PM
    Psi4 wall time for execution: 0:00:21.87

*** Psi4 exiting successfully. Buy a developer a beer!
