                               Psi4 1.3.2 release

  ==> Input File <==

--------------------------------------------------------------------------
import numpy as np
set {scf_type pk
basis cc-pvdz
d_convergence 10
gdma_switch   0
gdma_limit    0
gdma_origin   [ 0.0,  0.0,  0.0 ]
}
molecule test {
    units Angstrom
    0 1
    --
    0 1
    C               -0.083768347296118    -1.870821018282038     0.470821111691793
    C                1.206231652703882    -2.200821018282038     1.212821111691793
    H               -0.707768347296118    -1.210821018282038     1.072821111691793
    H                0.165231652703882    -1.375821018282038    -0.467178888308207
    H               -0.643768347296118    -2.765821018282038     0.213821111691793
    H                1.798231652703882    -2.872821018282038     0.592821111691793
    H                0.991813652703882    -2.692762018282038     2.173039111691793
    H                1.798199652703882    -1.287993018282038     1.375053111691793
    C                0.031231652703882     1.639178981717962    -1.082178888308206
    C               -1.153768347296118     2.440178981717962    -0.594178888308207
    H                0.335231652703882     0.910178981717962    -0.334178888308207
    H               -0.232768347296118     1.105178981717962    -1.989178888308206
    H                0.870231652703882     2.298178981717962    -1.286178888308207
    H               -2.012768347296118     1.776178981717962    -0.660178888308207
    H               -1.008725347296118     2.715034981717962     0.461007111691793
    H               -1.352267347296118     3.309415981717962    -1.238402888308207

}
e, wfn = energy('scf', return_wfn=True)
gdma(wfn)
dmavals = variable('DMA DISTRIBUTED MULTIPOLES')
charges = np.array(dmavals)
print(charges)
np.save('SSI-005LEU-077LEU-1-dimer.npy', np.array(charges))--------------------------------------------------------------------------

*** tstart() called on ds3
*** at Sun Apr 26 18:46:34 2020

   => Loading Basis Set <=

    Name: CC-PVDZ
    Role: ORBITAL
    Keyword: BASIS
    atoms 1-2, 9-10  entry C          line   138 file /theoryfs2/ds/metcalf/miniconda2/envs/tf2gpu/share/psi4/basis/cc-pvdz.gbs
    atoms 3-8, 11-16 entry H          line    22 file /theoryfs2/ds/metcalf/miniconda2/envs/tf2gpu/share/psi4/basis/cc-pvdz.gbs

         ---------------------------------------------------------
                                   SCF
               by Justin Turney, Rob Parrish, Andy Simmonett
                          and Daniel G. A. Smith
                              RHF Reference
                        1 Threads,    500 MiB Core
         ---------------------------------------------------------

  ==> Geometry <==

    Molecular point group: c1
    Full point group: C1

    Geometry (in Angstrom), charge = 0, multiplicity = 1:

       Center              X                  Y                   Z               Mass
    ------------   -----------------  -----------------  -----------------  -----------------
         C           -0.083768347296    -1.870821018282     0.470821111692    12.000000000000
         C            1.206231652704    -2.200821018282     1.212821111692    12.000000000000
         H           -0.707768347296    -1.210821018282     1.072821111692     1.007825032230
         H            0.165231652704    -1.375821018282    -0.467178888308     1.007825032230
         H           -0.643768347296    -2.765821018282     0.213821111692     1.007825032230
         H            1.798231652704    -2.872821018282     0.592821111692     1.007825032230
         H            0.991813652704    -2.692762018282     2.173039111692     1.007825032230
         H            1.798199652704    -1.287993018282     1.375053111692     1.007825032230
         C            0.031231652704     1.639178981718    -1.082178888308    12.000000000000
         C           -1.153768347296     2.440178981718    -0.594178888308    12.000000000000
         H            0.335231652704     0.910178981718    -0.334178888308     1.007825032230
         H           -0.232768347296     1.105178981718    -1.989178888308     1.007825032230
         H            0.870231652704     2.298178981718    -1.286178888308     1.007825032230
         H           -2.012768347296     1.776178981718    -0.660178888308     1.007825032230
         H           -1.008725347296     2.715034981718     0.461007111692     1.007825032230
         H           -1.352267347296     3.309415981718    -1.238402888308     1.007825032230

  Running in c1 symmetry.

  Rotational constants: A =      0.45562  B =      0.04922  C =      0.04778 [cm^-1]
  Rotational constants: A =  13659.17825  B =   1475.72760  C =   1432.46892 [MHz]
  Nuclear repulsion =  122.528678771513952

  Charge       = 0
  Multiplicity = 1
  Electrons    = 36
  Nalpha       = 18
  Nbeta        = 18

  ==> Algorithm <==

  SCF Algorithm Type is PK.
  DIIS enabled.
  MOM disabled.
  Fractional occupation disabled.
  Guess Type is SAD.
  Energy threshold   = 1.00e-06
  Density threshold  = 1.00e-10
  Integral threshold = 0.00e+00

  ==> Primary Basis <==

  Basis Set: CC-PVDZ
    Blend: CC-PVDZ
    Number of shells: 60
    Number of basis function: 116
    Number of Cartesian functions: 120
    Spherical Harmonics?: true
    Max angular momentum: 2

  ==> Pre-Iterations <==

   -------------------------------------------------------
    Irrep   Nso     Nmo     Nalpha   Nbeta   Ndocc  Nsocc
   -------------------------------------------------------
     A        116     116       0       0       0       0
   -------------------------------------------------------
    Total     116     116      18      18      18       0
   -------------------------------------------------------

  ==> Integral Setup <==

  Using integral reordering PK algorithm.
  Sizing the integral batches needed.
  Building batch lookup table.
   Calculation information:
      Number of atoms:                  16
      Number of AO shells:              60
      Number of primitives:            148
      Number of atomic orbitals:       120
      Number of basis functions:       116

      Integral cutoff                 1.00e-12
      Number of threads:                 1

	Batch   1 pq = [       0,    6786] index = [             0,23028291] size =     23028291
  Task number: 3
  Buffer size: 11059200
  Buffer per thread: 2
  We computed 1436768 shell quartets total.
  Whereas there are 1675365 unique shell quartets.

  ==> DiskJK: Disk-Based J/K Matrices <==

    J tasked:                  Yes
    K tasked:                  Yes
    wK tasked:                  No
    Memory [MiB]:              375
    Schwarz Cutoff:          1E-12

    OpenMP threads:              1

  Minimum eigenvalue in the overlap matrix is 7.3412088124E-03.
  Using Symmetric Orthogonalization.

  SCF Guess: Superposition of Atomic Densities via on-the-fly atomic UHF.

  ==> Iterations <==

                        Total Energy        Delta E     RMS |[F,P]|

   @RHF iter SAD:  -157.39620731710261   -1.57396e+02   0.00000e+00
   @RHF iter   1:  -158.30349637689966   -9.07289e-01   4.25221e-03 DIIS
   @RHF iter   2:  -158.43858802151280   -1.35092e-01   1.81707e-03 DIIS
   @RHF iter   3:  -158.46248256774732   -2.38945e-02   3.51112e-04 DIIS
   @RHF iter   4:  -158.46433206441048   -1.84950e-03   3.90295e-05 DIIS
   @RHF iter   5:  -158.46435612582241   -2.40614e-05   6.47316e-06 DIIS
   @RHF iter   6:  -158.46435674941111   -6.23589e-07   1.09308e-06 DIIS
   @RHF iter   7:  -158.46435676115973   -1.17486e-08   3.10093e-07 DIIS
   @RHF iter   8:  -158.46435676201611   -8.56375e-10   4.08378e-08 DIIS
   @RHF iter   9:  -158.46435676204268   -2.65743e-11   8.68495e-09 DIIS
   @RHF iter  10:  -158.46435676204311   -4.26326e-13   2.47216e-09 DIIS
   @RHF iter  11:  -158.46435676204376   -6.53699e-13   7.21030e-10 DIIS
   @RHF iter  12:  -158.46435676204368    8.52651e-14   1.63923e-10 DIIS
   @RHF iter  13:  -158.46435676204356    1.13687e-13   2.47451e-11 DIIS
  Energy and wave function converged.

  ==> Post-Iterations <==

    Orbital Energies [Eh]
    ---------------------

    Doubly Occupied:

       1A    -11.219638     2A    -11.217155     3A    -11.216165
       4A    -11.212800     5A     -1.023535     6A     -1.019471
       7A     -0.838809     8A     -0.833925     9A     -0.605533
      10A     -0.601436    11A     -0.599750    12A     -0.593060
      13A     -0.505931    14A     -0.501862    15A     -0.489161
      16A     -0.486501    17A     -0.482636    18A     -0.477010

    Virtual:

      19A      0.170624    20A      0.197906    21A      0.223712
      22A      0.233232    23A      0.246034    24A      0.253464
      25A      0.261880    26A      0.275252    27A      0.282093
      28A      0.291852    29A      0.306534    30A      0.345556
      31A      0.392740    32A      0.405530    33A      0.580290
      34A      0.596236    35A      0.599855    36A      0.607146
      37A      0.619482    38A      0.624892    39A      0.661606
      40A      0.684594    41A      0.699496    42A      0.803440
      43A      0.843640    44A      0.855747    45A      0.882816
      46A      0.886905    47A      0.891149    48A      0.893708
      49A      0.897686    50A      0.903315    51A      0.914558
      52A      0.921192    53A      0.933693    54A      0.958543
      55A      0.973332    56A      1.028877    57A      1.121681
      58A      1.123621    59A      1.132807    60A      1.155962
      61A      1.240401    62A      1.261832    63A      1.471820
      64A      1.474501    65A      1.481095    66A      1.500922
      67A      1.562829    68A      1.586340    69A      1.676850
      70A      1.680476    71A      1.689059    72A      1.716927
      73A      1.847463    74A      1.861076    75A      1.873067
      76A      1.890071    77A      1.900740    78A      1.907081
      79A      1.932878    80A      1.944474    81A      1.946717
      82A      1.948670    83A      1.956397    84A      1.959469
      85A      1.967826    86A      1.976462    87A      1.981284
      88A      2.006637    89A      2.092599    90A      2.111637
      91A      2.124773    92A      2.170145    93A      2.291364
      94A      2.300879    95A      2.319772    96A      2.323217
      97A      2.439034    98A      2.454633    99A      2.463709
     100A      2.471756   101A      2.556876   102A      2.571715
     103A      2.579218   104A      2.604785   105A      2.756895
     106A      2.768110   107A      2.793882   108A      2.800892
     109A      2.838318   110A      2.858641   111A      2.858932
     112A      2.870772   113A      2.940817   114A      2.950745
     115A      2.981261   116A      2.987540

    Final Occupation by Irrep:
              A
    DOCC [    18 ]

  @RHF Final Energy:  -158.46435676204356

   => Energetics <=

    Nuclear Repulsion Energy =            122.5286787715139525
    One-Electron Energy =                -454.1373158540840222
    Two-Electron Energy =                 173.1442803205264909
    Total Energy =                       -158.4643567620435647

Computation Completed

Properties will be evaluated at   0.000000,   0.000000,   0.000000 [a0]

Properties computed using the SCF density matrix

  Nuclear Dipole Moment: [e a0]
     X:     0.0008      Y:    -0.0861      Z:    -0.0813

  Electronic Dipole Moment: [e a0]
     X:    -0.0028      Y:     0.0582      Z:     0.0629

  Dipole Moment: [e a0]
     X:    -0.0019      Y:    -0.0279      Z:    -0.0184     Total:     0.0335

  Dipole Moment: [D]
     X:    -0.0049      Y:    -0.0709      Z:    -0.0469     Total:     0.0851

*** tstop() called on ds3 at Sun Apr 26 18:46:44 2020
Module time:
	user time   =       7.37 seconds =       0.12 minutes
	system time =       2.77 seconds =       0.05 minutes
	total time  =         10 seconds =       0.17 minutes
Total time:
	user time   =       7.37 seconds =       0.12 minutes
	system time =       2.77 seconds =       0.05 minutes
	total time  =         10 seconds =       0.17 minutes
                                     G D M A

                                 by Anthony Stone

                           version 2.2.06, 22 June 2011

               Distributed Multipoles from Gaussian wavefunctions

Starting at 18:46:44 on 26 Apr 2020

Using SCF density matrix from file ./SSI/SSI-005LEU-077LEU-1-dimer.test.14785.fchk

                         Distributed Multipole Analysis

Standard DMA

Positions and radii in angstrom
Multipole moments in atomic units, ea_0^k for rank k

C          x = -0.083768  y = -1.870821  z =  0.470821 angstrom
           Maximum rank =  0   Radius =  0.650 angstrom
                   Q00  =  -0.243388

C          x =  1.206232  y = -2.200821  z =  1.212821 angstrom
           Maximum rank =  0   Radius =  0.650 angstrom
                   Q00  =  -0.229415

H          x = -0.707768  y = -1.210821  z =  1.072821 angstrom
           Maximum rank =  0   Radius =  0.325 angstrom
                   Q00  =   0.077447

H          x =  0.165232  y = -1.375821  z = -0.467179 angstrom
           Maximum rank =  0   Radius =  0.325 angstrom
                   Q00  =   0.079581

H          x = -0.643768  y = -2.765821  z =  0.213821 angstrom
           Maximum rank =  0   Radius =  0.325 angstrom
                   Q00  =   0.080908

H          x =  1.798232  y = -2.872821  z =  0.592821 angstrom
           Maximum rank =  0   Radius =  0.325 angstrom
                   Q00  =   0.078173

H          x =  0.991814  y = -2.692762  z =  2.173039 angstrom
           Maximum rank =  0   Radius =  0.325 angstrom
                   Q00  =   0.079397

H          x =  1.798200  y = -1.287993  z =  1.375053 angstrom
           Maximum rank =  0   Radius =  0.325 angstrom
                   Q00  =   0.077987

C          x =  0.031232  y =  1.639179  z = -1.082179 angstrom
           Maximum rank =  0   Radius =  0.650 angstrom
                   Q00  =  -0.224209

C          x = -1.153768  y =  2.440179  z = -0.594179 angstrom
           Maximum rank =  0   Radius =  0.650 angstrom
                   Q00  =  -0.242872

H          x =  0.335232  y =  0.910179  z = -0.334179 angstrom
           Maximum rank =  0   Radius =  0.325 angstrom
                   Q00  =   0.081632

H          x = -0.232768  y =  1.105179  z = -1.989179 angstrom
           Maximum rank =  0   Radius =  0.325 angstrom
                   Q00  =   0.075098

H          x =  0.870232  y =  2.298179  z = -1.286179 angstrom
           Maximum rank =  0   Radius =  0.325 angstrom
                   Q00  =   0.074829

H          x = -2.012768  y =  1.776179  z = -0.660179 angstrom
           Maximum rank =  0   Radius =  0.325 angstrom
                   Q00  =   0.077446

H          x = -1.008725  y =  2.715035  z =  0.461007 angstrom
           Maximum rank =  0   Radius =  0.325 angstrom
                   Q00  =   0.077261

H          x = -1.352267  y =  3.309416  z = -1.238403 angstrom
           Maximum rank =  0   Radius =  0.325 angstrom
                   Q00  =   0.080122

Total multipoles referred to origin at
           x =   0.000000,  y =    0.000000,  z =    0.000000 angstrom
                   Q00  =  -0.000000

Finished at 18:46:44 on 26 Apr 2020

  DMA results are available in the Python driver through the
	  variable('DMA DISTRIBUTED MULTIPOLES')
  and
	  variable('DMA TOTAL MULTIPOLES')
  commands.

    Psi4 stopped on: Sunday, 26 April 2020 06:46PM
    Psi4 wall time for execution: 0:00:09.91

*** Psi4 exiting successfully. Buy a developer a beer!
