                               Psi4 1.3.2 release

  ==> Input File <==

--------------------------------------------------------------------------
import numpy as np
set {scf_type pk
basis cc-pvdz
d_convergence 10
gdma_switch   0
gdma_limit    0
gdma_origin   [ 0.0,  0.0,  0.0 ]
}
molecule test {
    units Angstrom
    0 1
    --
    0 1
    C                1.176389525215795     1.296608057378530    -0.763271872045122
    C                1.733389525215795     1.867608057378530    -2.080271872045122
    H                1.319389525215795     2.004608057378530     0.055728127954878
    H                0.111389525215795     1.086608057378530    -0.865271872045122
    H                1.660389525215795     0.351608057378530    -0.514271872045122
    H                1.685389525215795     1.119608057378530    -2.873271872045122
    H                2.772639525215794     2.187710057378530    -1.914478872045122
    H                1.154189525215795     2.761632057378530    -2.354590872045122
    C               -0.867610474784205    -1.334391942621470     0.988728127954878
    C               -2.038610474784206    -1.828391942621470     1.853728127954878
    H               -0.085610474784205    -2.094391942621470     0.950728127954878
    H               -1.224610474784205    -1.139391942621470    -0.021271872045122
    H               -0.461610474784205    -0.407391942621470     1.392728127954878
    H               -2.478610474784205    -2.692391942621470     1.356728127954879
    H               -1.680320474784205    -2.139631942621471     2.846078127954878
    H               -2.814990474784206    -1.055627942621470     1.954115127954879

}
e, wfn = energy('scf', return_wfn=True)
gdma(wfn)
dmavals = variable('DMA DISTRIBUTED MULTIPOLES')
charges = np.array(dmavals)
print(charges)
np.save('SSI-128ILE-131LEU-1-dimer.npy', np.array(charges))--------------------------------------------------------------------------

*** tstart() called on ds3
*** at Tue Apr 28 02:06:30 2020

   => Loading Basis Set <=

    Name: CC-PVDZ
    Role: ORBITAL
    Keyword: BASIS
    atoms 1-2, 9-10  entry C          line   138 file /theoryfs2/ds/metcalf/miniconda2/envs/tf2gpu/share/psi4/basis/cc-pvdz.gbs
    atoms 3-8, 11-16 entry H          line    22 file /theoryfs2/ds/metcalf/miniconda2/envs/tf2gpu/share/psi4/basis/cc-pvdz.gbs

         ---------------------------------------------------------
                                   SCF
               by Justin Turney, Rob Parrish, Andy Simmonett
                          and Daniel G. A. Smith
                              RHF Reference
                        1 Threads,    500 MiB Core
         ---------------------------------------------------------

  ==> Geometry <==

    Molecular point group: c1
    Full point group: C1

    Geometry (in Angstrom), charge = 0, multiplicity = 1:

       Center              X                  Y                   Z               Mass
    ------------   -----------------  -----------------  -----------------  -----------------
         C            1.176389525216     1.296608057379    -0.763271872045    12.000000000000
         C            1.733389525216     1.867608057379    -2.080271872045    12.000000000000
         H            1.319389525216     2.004608057379     0.055728127955     1.007825032230
         H            0.111389525216     1.086608057379    -0.865271872045     1.007825032230
         H            1.660389525216     0.351608057379    -0.514271872045     1.007825032230
         H            1.685389525216     1.119608057379    -2.873271872045     1.007825032230
         H            2.772639525216     2.187710057379    -1.914478872045     1.007825032230
         H            1.154189525216     2.761632057379    -2.354590872045     1.007825032230
         C           -0.867610474784    -1.334391942621     0.988728127955    12.000000000000
         C           -2.038610474784    -1.828391942621     1.853728127955    12.000000000000
         H           -0.085610474784    -2.094391942621     0.950728127955     1.007825032230
         H           -1.224610474784    -1.139391942621    -0.021271872045     1.007825032230
         H           -0.461610474784    -0.407391942621     1.392728127955     1.007825032230
         H           -2.478610474784    -2.692391942621     1.356728127955     1.007825032230
         H           -1.680320474784    -2.139631942621     2.846078127955     1.007825032230
         H           -2.814990474784    -1.055627942621     1.954115127955     1.007825032230

  Running in c1 symmetry.

  Rotational constants: A =      0.92569  B =      0.03781  C =      0.03769 [cm^-1]
  Rotational constants: A =  27751.58169  B =   1133.51547  C =   1129.95363 [MHz]
  Nuclear repulsion =  118.897011505163718

  Charge       = 0
  Multiplicity = 1
  Electrons    = 36
  Nalpha       = 18
  Nbeta        = 18

  ==> Algorithm <==

  SCF Algorithm Type is PK.
  DIIS enabled.
  MOM disabled.
  Fractional occupation disabled.
  Guess Type is SAD.
  Energy threshold   = 1.00e-06
  Density threshold  = 1.00e-10
  Integral threshold = 0.00e+00

  ==> Primary Basis <==

  Basis Set: CC-PVDZ
    Blend: CC-PVDZ
    Number of shells: 60
    Number of basis function: 116
    Number of Cartesian functions: 120
    Spherical Harmonics?: true
    Max angular momentum: 2

  ==> Pre-Iterations <==

   -------------------------------------------------------
    Irrep   Nso     Nmo     Nalpha   Nbeta   Ndocc  Nsocc
   -------------------------------------------------------
     A        116     116       0       0       0       0
   -------------------------------------------------------
    Total     116     116      18      18      18       0
   -------------------------------------------------------

  ==> Integral Setup <==

  Using integral reordering PK algorithm.
  Sizing the integral batches needed.
  Building batch lookup table.
   Calculation information:
      Number of atoms:                  16
      Number of AO shells:              60
      Number of primitives:            148
      Number of atomic orbitals:       120
      Number of basis functions:       116

      Integral cutoff                 1.00e-12
      Number of threads:                 1

	Batch   1 pq = [       0,    6786] index = [             0,23028291] size =     23028291
  Task number: 3
  Buffer size: 11059200
  Buffer per thread: 2
  We computed 1304830 shell quartets total.
  Whereas there are 1675365 unique shell quartets.

  ==> DiskJK: Disk-Based J/K Matrices <==

    J tasked:                  Yes
    K tasked:                  Yes
    wK tasked:                  No
    Memory [MiB]:              375
    Schwarz Cutoff:          1E-12

    OpenMP threads:              1

  Minimum eigenvalue in the overlap matrix is 6.5161240574E-03.
  Using Symmetric Orthogonalization.

  SCF Guess: Superposition of Atomic Densities via on-the-fly atomic UHF.

  ==> Iterations <==

                        Total Energy        Delta E     RMS |[F,P]|

   @RHF iter SAD:  -157.30481785492330   -1.57305e+02   0.00000e+00
   @RHF iter   1:  -158.31015751334792   -1.00534e+00   4.18069e-03 DIIS
   @RHF iter   2:  -158.44208735904326   -1.31930e-01   1.77812e-03 DIIS
   @RHF iter   3:  -158.46507549479537   -2.29881e-02   3.48289e-04 DIIS
   @RHF iter   4:  -158.46689547110776   -1.81998e-03   3.89620e-05 DIIS
   @RHF iter   5:  -158.46691929081379   -2.38197e-05   6.76441e-06 DIIS
   @RHF iter   6:  -158.46691995967137   -6.68858e-07   1.15299e-06 DIIS
   @RHF iter   7:  -158.46691997271856   -1.30472e-08   3.29339e-07 DIIS
   @RHF iter   8:  -158.46691997372579   -1.00724e-09   4.30029e-08 DIIS
   @RHF iter   9:  -158.46691997375802   -3.22302e-11   8.14900e-09 DIIS
   @RHF iter  10:  -158.46691997375854   -5.11591e-13   1.98883e-09 DIIS
   @RHF iter  11:  -158.46691997375913   -5.96856e-13   3.18526e-10 DIIS
   @RHF iter  12:  -158.46691997375856    5.68434e-13   6.21957e-11 DIIS
  Energy and wave function converged.

  ==> Post-Iterations <==

    Orbital Energies [Eh]
    ---------------------

    Doubly Occupied:

       1A    -11.220151     2A    -11.219368     3A    -11.216907
       4A    -11.216630     5A     -1.016051     6A     -1.013976
       7A     -0.839642     8A     -0.834049     9A     -0.599718
      10A     -0.597245    11A     -0.595906    12A     -0.591181
      13A     -0.502161    14A     -0.495522    15A     -0.490560
      16A     -0.486964    17A     -0.483643    18A     -0.479767

    Virtual:

      19A      0.177167    20A      0.192957    21A      0.219830
      22A      0.238476    23A      0.239329    24A      0.262820
      25A      0.263860    26A      0.277578    27A      0.279897
      28A      0.287713    29A      0.299542    30A      0.317617
      31A      0.387502    32A      0.411435    33A      0.572364
      34A      0.594273    35A      0.596466    36A      0.598949
      37A      0.604697    38A      0.650219    39A      0.669777
      40A      0.688252    41A      0.700936    42A      0.747856
      43A      0.836821    44A      0.881501    45A      0.890975
      46A      0.892337    47A      0.893409    48A      0.896190
      49A      0.902891    50A      0.905895    51A      0.915086
      52A      0.917424    53A      0.921854    54A      0.947041
      55A      0.957329    56A      0.991797    57A      1.122495
      58A      1.124124    59A      1.129399    60A      1.145525
      61A      1.223641    62A      1.246357    63A      1.460907
      64A      1.470907    65A      1.479766    66A      1.483488
      67A      1.574831    68A      1.579223    69A      1.678915
      70A      1.681386    71A      1.693346    72A      1.697060
      73A      1.853221    74A      1.863157    75A      1.866333
      76A      1.879000    77A      1.885977    78A      1.917646
      79A      1.933162    80A      1.935906    81A      1.941990
      82A      1.946633    83A      1.948368    84A      1.949810
      85A      1.950849    86A      1.953934    87A      1.995906
      88A      2.037543    89A      2.090387    90A      2.098112
      91A      2.116548    92A      2.123204    93A      2.289054
      94A      2.303139    95A      2.322516    96A      2.327712
      97A      2.439542    98A      2.449342    99A      2.462005
     100A      2.479893   101A      2.556803   102A      2.561137
     103A      2.568941   104A      2.572116   105A      2.758605
     106A      2.761199   107A      2.779669   108A      2.788858
     109A      2.831733   110A      2.846801   111A      2.853046
     112A      2.864590   113A      2.931926   114A      2.942227
     115A      2.952993   116A      2.970030

    Final Occupation by Irrep:
              A
    DOCC [    18 ]

  @RHF Final Energy:  -158.46691997375856

   => Energetics <=

    Nuclear Repulsion Energy =            118.8970115051637180
    One-Electron Energy =                -446.9289837579946720
    Two-Electron Energy =                 169.5650522790723755
    Total Energy =                       -158.4669199737585643

Computation Completed

Properties will be evaluated at   0.000000,   0.000000,   0.000000 [a0]

Properties computed using the SCF density matrix

  Nuclear Dipole Moment: [e a0]
     X:    -0.0397      Y:    -0.0160      Z:     0.0121

  Electronic Dipole Moment: [e a0]
     X:     0.0368      Y:     0.0079      Z:    -0.0143

  Dipole Moment: [e a0]
     X:    -0.0030      Y:    -0.0081      Z:    -0.0022     Total:     0.0089

  Dipole Moment: [D]
     X:    -0.0075      Y:    -0.0205      Z:    -0.0056     Total:     0.0225

*** tstop() called on ds3 at Tue Apr 28 02:06:38 2020
Module time:
	user time   =       6.30 seconds =       0.11 minutes
	system time =       2.54 seconds =       0.04 minutes
	total time  =          8 seconds =       0.13 minutes
Total time:
	user time   =       6.30 seconds =       0.11 minutes
	system time =       2.54 seconds =       0.04 minutes
	total time  =          8 seconds =       0.13 minutes
                                     G D M A

                                 by Anthony Stone

                           version 2.2.06, 22 June 2011

               Distributed Multipoles from Gaussian wavefunctions

Starting at 2:6:38 on 28 Apr 2020

Using SCF density matrix from file ./SSI/SSI-128ILE-131LEU-1-dimer.test.10492.fchk

                         Distributed Multipole Analysis

Standard DMA

Positions and radii in angstrom
Multipole moments in atomic units, ea_0^k for rank k

C          x =  1.176390  y =  1.296608  z = -0.763272 angstrom
           Maximum rank =  0   Radius =  0.650 angstrom
                   Q00  =  -0.244783

C          x =  1.733390  y =  1.867608  z = -2.080272 angstrom
           Maximum rank =  0   Radius =  0.650 angstrom
                   Q00  =  -0.234170

H          x =  1.319390  y =  2.004608  z =  0.055728 angstrom
           Maximum rank =  0   Radius =  0.325 angstrom
                   Q00  =   0.080251

H          x =  0.111390  y =  1.086608  z = -0.865272 angstrom
           Maximum rank =  0   Radius =  0.325 angstrom
                   Q00  =   0.078788

H          x =  1.660390  y =  0.351608  z = -0.514272 angstrom
           Maximum rank =  0   Radius =  0.325 angstrom
                   Q00  =   0.080051

H          x =  1.685390  y =  1.119608  z = -2.873272 angstrom
           Maximum rank =  0   Radius =  0.325 angstrom
                   Q00  =   0.084313

H          x =  2.772640  y =  2.187710  z = -1.914479 angstrom
           Maximum rank =  0   Radius =  0.325 angstrom
                   Q00  =   0.078016

H          x =  1.154190  y =  2.761632  z = -2.354591 angstrom
           Maximum rank =  0   Radius =  0.325 angstrom
                   Q00  =   0.078438

C          x = -0.867610  y = -1.334392  z =  0.988728 angstrom
           Maximum rank =  0   Radius =  0.650 angstrom
                   Q00  =  -0.239400

C          x = -2.038610  y = -1.828392  z =  1.853728 angstrom
           Maximum rank =  0   Radius =  0.650 angstrom
                   Q00  =  -0.240050

H          x = -0.085610  y = -2.094392  z =  0.950728 angstrom
           Maximum rank =  0   Radius =  0.325 angstrom
                   Q00  =   0.080811

H          x = -1.224610  y = -1.139392  z = -0.021272 angstrom
           Maximum rank =  0   Radius =  0.325 angstrom
                   Q00  =   0.078141

H          x = -0.461610  y = -0.407392  z =  1.392728 angstrom
           Maximum rank =  0   Radius =  0.325 angstrom
                   Q00  =   0.081153

H          x = -2.478610  y = -2.692392  z =  1.356728 angstrom
           Maximum rank =  0   Radius =  0.325 angstrom
                   Q00  =   0.077686

H          x = -1.680320  y = -2.139632  z =  2.846078 angstrom
           Maximum rank =  0   Radius =  0.325 angstrom
                   Q00  =   0.079957

H          x = -2.814990  y = -1.055628  z =  1.954115 angstrom
           Maximum rank =  0   Radius =  0.325 angstrom
                   Q00  =   0.080797

Total multipoles referred to origin at
           x =   0.000000,  y =    0.000000,  z =    0.000000 angstrom
                   Q00  =  -0.000000

Finished at 2:6:38 on 28 Apr 2020

  DMA results are available in the Python driver through the
	  variable('DMA DISTRIBUTED MULTIPOLES')
  and
	  variable('DMA TOTAL MULTIPOLES')
  commands.

    Psi4 stopped on: Tuesday, 28 April 2020 02:06AM
    Psi4 wall time for execution: 0:00:08.67

*** Psi4 exiting successfully. Buy a developer a beer!
