                               Psi4 1.3.2 release

  ==> Input File <==

--------------------------------------------------------------------------
import numpy as np
set {scf_type pk
basis cc-pvdz
d_convergence 10
gdma_switch   0
gdma_limit    0
gdma_origin   [ 0.0,  0.0,  0.0 ]
}
molecule test {
    units Angstrom
    0 1
    --
    0 1
    C                1.355568364858843    -0.824804456909541     3.570274011133419
    C                0.083568364858844    -1.345804456909541     1.561274011133419
    N               -0.724431635141156    -0.979804456909541     0.591274011133419
    N                0.445568364858843    -0.470804456909541     2.482274011133419
    N                0.534568364858844    -2.580804456909541     1.650274011133419
    H               -1.069431635141157    -0.031804456909541     0.543274011133419
    H               -1.004431635141156    -1.654804456909541    -0.119725988866581
    H                0.086568364858844     0.480195543090459     2.420274011133419
    H                1.145568364858844    -2.843804456909541     2.410274011133419
    H                0.277568364858843    -3.267804456909542     0.943274011133419
    H                2.308568364858843    -1.132804456909541     3.140274011133418
    H                0.924568364858844    -1.655804456909541     4.132274011133419
    H                1.517088364858844     0.027885543090459     4.246164011133419
    C                0.573568364858844     2.550195543090459    -2.061725988866581
    C               -0.477431635141156     1.507195543090459    -2.479725988866581
    O               -1.213431635141156     0.958195543090459    -1.633725988866581
    O               -0.586431635141156     1.260195543090459    -3.687725988866581
    H                0.336568364858844     3.505195543090459    -2.539725988866581
    H                1.556568364858844     2.221195543090459    -2.407725988866581
    H                0.652838364858844     2.693155543090458    -0.973935988866581

}
e, wfn = energy('scf', return_wfn=True)
gdma(wfn)
dmavals = variable('DMA DISTRIBUTED MULTIPOLES')
charges = np.array(dmavals)
print(charges)
np.save('SSI-176ARG-273GLU-1-dimer.npy', np.array(charges))--------------------------------------------------------------------------

*** tstart() called on ds3
*** at Tue Apr 28 00:47:42 2020

   => Loading Basis Set <=

    Name: CC-PVDZ
    Role: ORBITAL
    Keyword: BASIS
    atoms 1-2, 14-15  entry C          line   138 file /theoryfs2/ds/metcalf/miniconda2/envs/tf2gpu/share/psi4/basis/cc-pvdz.gbs
    atoms 3-5         entry N          line   168 file /theoryfs2/ds/metcalf/miniconda2/envs/tf2gpu/share/psi4/basis/cc-pvdz.gbs
    atoms 6-13, 18-20 entry H          line    22 file /theoryfs2/ds/metcalf/miniconda2/envs/tf2gpu/share/psi4/basis/cc-pvdz.gbs
    atoms 16-17       entry O          line   198 file /theoryfs2/ds/metcalf/miniconda2/envs/tf2gpu/share/psi4/basis/cc-pvdz.gbs

         ---------------------------------------------------------
                                   SCF
               by Justin Turney, Rob Parrish, Andy Simmonett
                          and Daniel G. A. Smith
                              RHF Reference
                        1 Threads,    500 MiB Core
         ---------------------------------------------------------

  ==> Geometry <==

    Molecular point group: c1
    Full point group: C1

    Geometry (in Angstrom), charge = 0, multiplicity = 1:

       Center              X                  Y                   Z               Mass
    ------------   -----------------  -----------------  -----------------  -----------------
         C            1.355568364859    -0.824804456910     3.570274011133    12.000000000000
         C            0.083568364859    -1.345804456910     1.561274011133    12.000000000000
         N           -0.724431635141    -0.979804456910     0.591274011133    14.003074004430
         N            0.445568364859    -0.470804456910     2.482274011133    14.003074004430
         N            0.534568364859    -2.580804456910     1.650274011133    14.003074004430
         H           -1.069431635141    -0.031804456910     0.543274011133     1.007825032230
         H           -1.004431635141    -1.654804456910    -0.119725988867     1.007825032230
         H            0.086568364859     0.480195543090     2.420274011133     1.007825032230
         H            1.145568364859    -2.843804456910     2.410274011133     1.007825032230
         H            0.277568364859    -3.267804456910     0.943274011133     1.007825032230
         H            2.308568364859    -1.132804456910     3.140274011133     1.007825032230
         H            0.924568364859    -1.655804456910     4.132274011133     1.007825032230
         H            1.517088364859     0.027885543090     4.246164011133     1.007825032230
         C            0.573568364859     2.550195543090    -2.061725988867    12.000000000000
         C           -0.477431635141     1.507195543090    -2.479725988867    12.000000000000
         O           -1.213431635141     0.958195543090    -1.633725988867    15.994914619570
         O           -0.586431635141     1.260195543090    -3.687725988867    15.994914619570
         H            0.336568364859     3.505195543090    -2.539725988867     1.007825032230
         H            1.556568364859     2.221195543090    -2.407725988867     1.007825032230
         H            0.652838364859     2.693155543090    -0.973935988867     1.007825032230

  Running in c1 symmetry.

  Rotational constants: A =      0.10172  B =      0.01589  C =      0.01459 [cm^-1]
  Rotational constants: A =   3049.56140  B =    476.28823  C =    437.50812 [MHz]
  Nuclear repulsion =  435.392462712347992

  Charge       = 0
  Multiplicity = 1
  Electrons    = 72
  Nalpha       = 36
  Nbeta        = 36

  ==> Algorithm <==

  SCF Algorithm Type is PK.
  DIIS enabled.
  MOM disabled.
  Fractional occupation disabled.
  Guess Type is SAD.
  Energy threshold   = 1.00e-06
  Density threshold  = 1.00e-10
  Integral threshold = 0.00e+00

  ==> Primary Basis <==

  Basis Set: CC-PVDZ
    Blend: CC-PVDZ
    Number of shells: 87
    Number of basis function: 181
    Number of Cartesian functions: 190
    Spherical Harmonics?: true
    Max angular momentum: 2

  ==> Pre-Iterations <==

   -------------------------------------------------------
    Irrep   Nso     Nmo     Nalpha   Nbeta   Ndocc  Nsocc
   -------------------------------------------------------
     A        181     181       0       0       0       0
   -------------------------------------------------------
    Total     181     181      36      36      36       0
   -------------------------------------------------------

  ==> Integral Setup <==

  Using integral reordering PK algorithm.
  Sizing the integral batches needed.
  Building batch lookup table.
   Calculation information:
      Number of atoms:                  20
      Number of AO shells:              87
      Number of primitives:            253
      Number of atomic orbitals:       190
      Number of basis functions:       181

      Integral cutoff                 1.00e-12
      Number of threads:                 1

	Batch   1 pq = [       0,    9405] index = [             0,44231715] size =     44231715
	Batch   2 pq = [    9405,   13301] index = [      44231715,88464951] size =     44233236
	Batch   3 pq = [   13301,   16471] index = [      88464951,135655156] size =     47190205
  Task number: 13
  Buffer size: 11059200
  Buffer per thread: 2
  We computed 5187927 shell quartets total.
  Whereas there are 7328706 unique shell quartets.

  ==> DiskJK: Disk-Based J/K Matrices <==

    J tasked:                  Yes
    K tasked:                  Yes
    wK tasked:                  No
    Memory [MiB]:              375
    Schwarz Cutoff:          1E-12

    OpenMP threads:              1

  Minimum eigenvalue in the overlap matrix is 3.8156925780E-03.
  Using Symmetric Orthogonalization.

  SCF Guess: Superposition of Atomic Densities via on-the-fly atomic UHF.

  ==> Iterations <==

                        Total Energy        Delta E     RMS |[F,P]|

   @RHF iter SAD:  -469.65827725083034   -4.69658e+02   0.00000e+00
   @RHF iter   1:  -470.63982833081377   -9.81551e-01   4.33139e-03 DIIS
   @RHF iter   2:  -470.87354813612376   -2.33720e-01   2.30649e-03 DIIS
   @RHF iter   3:  -470.93622255704872   -6.26744e-02   3.95391e-04 DIIS
   @RHF iter   4:  -470.93953755736982   -3.31500e-03   1.37271e-04 DIIS
   @RHF iter   5:  -470.93993346771003   -3.95910e-04   2.49765e-05 DIIS
   @RHF iter   6:  -470.93995465709060   -2.11894e-05   1.04245e-05 DIIS
   @RHF iter   7:  -470.93995707384249   -2.41675e-06   3.26050e-06 DIIS
   @RHF iter   8:  -470.93995754038519   -4.66543e-07   1.60371e-06 DIIS
   @RHF iter   9:  -470.93995761628662   -7.59014e-08   5.21126e-07 DIIS
   @RHF iter  10:  -470.93995763188252   -1.55959e-08   1.88847e-07 DIIS
   @RHF iter  11:  -470.93995763363318   -1.75066e-09   4.36240e-08 DIIS
   @RHF iter  12:  -470.93995763371447   -8.12861e-11   1.58947e-08 DIIS
   @RHF iter  13:  -470.93995763372260   -8.12861e-12   4.79580e-09 DIIS
   @RHF iter  14:  -470.93995763372419   -1.59162e-12   1.39048e-09 DIIS
   @RHF iter  15:  -470.93995763372527   -1.08002e-12   6.34501e-10 DIIS
   @RHF iter  16:  -470.93995763372430    9.66338e-13   1.85835e-10 DIIS
   @RHF iter  17:  -470.93995763372345    8.52651e-13   6.04661e-11 DIIS
  Energy and wave function converged.

  ==> Post-Iterations <==

    Orbital Energies [Eh]
    ---------------------

    Doubly Occupied:

       1A    -20.372394     2A    -20.355270     3A    -15.687204
       4A    -15.679145     5A    -15.654792     6A    -11.472821
       7A    -11.355669     8A    -11.220177     9A    -11.150144
      10A     -1.436804    11A     -1.294388    12A     -1.273571
      13A     -1.259933    14A     -1.142055    15A     -1.044267
      16A     -0.929764    17A     -0.891991    18A     -0.867735
      19A     -0.821060    20A     -0.751595    21A     -0.733749
      22A     -0.727920    23A     -0.689663    24A     -0.644890
      25A     -0.637350    26A     -0.602538    27A     -0.514462
      28A     -0.509915    29A     -0.506356    30A     -0.502383
      31A     -0.472855    32A     -0.445878    33A     -0.411337
      34A     -0.291326    35A     -0.272498    36A     -0.266701

    Virtual:

      37A      0.094433    38A      0.125122    39A      0.134428
      40A      0.138605    41A      0.182157    42A      0.190460
      43A      0.201762    44A      0.212345    45A      0.247833
      46A      0.268086    47A      0.297704    48A      0.306019
      49A      0.319652    50A      0.385730    51A      0.392476
      52A      0.437086    53A      0.452955    54A      0.476843
      55A      0.547990    56A      0.550189    57A      0.585920
      58A      0.599916    59A      0.609342    60A      0.621269
      61A      0.631873    62A      0.644445    63A      0.663828
      64A      0.713719    65A      0.731585    66A      0.773362
      67A      0.777818    68A      0.793189    69A      0.798709
      70A      0.803051    71A      0.840008    72A      0.848688
      73A      0.857266    74A      0.866252    75A      0.908769
      76A      0.913162    77A      0.931416    78A      0.941354
      79A      0.943611    80A      0.953597    81A      0.967332
      82A      0.982215    83A      1.014986    84A      1.027172
      85A      1.043879    86A      1.052844    87A      1.075798
      88A      1.128736    89A      1.162139    90A      1.191919
      91A      1.236524    92A      1.241240    93A      1.245300
      94A      1.256186    95A      1.289965    96A      1.301425
      97A      1.341228    98A      1.349253    99A      1.395524
     100A      1.443529   101A      1.463458   102A      1.496750
     103A      1.502589   104A      1.521033   105A      1.564383
     106A      1.574109   107A      1.582338   108A      1.598784
     109A      1.627225   110A      1.631857   111A      1.643716
     112A      1.654450   113A      1.708696   114A      1.747317
     115A      1.752963   116A      1.766001   117A      1.805980
     118A      1.830629   119A      1.835398   120A      1.863500
     121A      1.867842   122A      1.892538   123A      1.899530
     124A      1.928558   125A      1.931577   126A      1.975284
     127A      1.982987   128A      1.996989   129A      2.006482
     130A      2.023380   131A      2.113193   132A      2.127991
     133A      2.139325   134A      2.175250   135A      2.180010
     136A      2.189177   137A      2.198967   138A      2.223041
     139A      2.284075   140A      2.310954   141A      2.334769
     142A      2.345860   143A      2.366221   144A      2.403919
     145A      2.432917   146A      2.441364   147A      2.476291
     148A      2.490997   149A      2.538648   150A      2.544469
     151A      2.566213   152A      2.608039   153A      2.662008
     154A      2.677306   155A      2.689371   156A      2.698465
     157A      2.731115   158A      2.813240   159A      2.815227
     160A      2.857937   161A      2.860295   162A      2.878894
     163A      2.895798   164A      2.932563   165A      2.968790
     166A      2.991069   167A      3.135743   168A      3.165420
     169A      3.173648   170A      3.189248   171A      3.216914
     172A      3.239247   173A      3.260713   174A      3.545741
     175A      3.668865   176A      3.695052   177A      3.721811
     178A      3.751220   179A      3.975781   180A      3.990322
     181A      4.104528

    Final Occupation by Irrep:
              A
    DOCC [    36 ]

  @RHF Final Energy:  -470.93995763372345

   => Energetics <=

    Nuclear Repulsion Energy =            435.3924627123479922
    One-Electron Energy =               -1506.8836422109720843
    Two-Electron Energy =                 600.5512218649007536
    Total Energy =                       -470.9399576337234521

Computation Completed

Properties will be evaluated at   0.000000,   0.000000,   0.000000 [a0]

Properties computed using the SCF density matrix

  Nuclear Dipole Moment: [e a0]
     X:     6.3017      Y:    -1.5331      Z:    11.0179

  Electronic Dipole Moment: [e a0]
     X:    -4.2472      Y:    -2.4102      Z:    -3.5682

  Dipole Moment: [e a0]
     X:     2.0545      Y:    -3.9433      Z:     7.4496     Total:     8.6757

  Dipole Moment: [D]
     X:     5.2220      Y:   -10.0229      Z:    18.9351     Total:    22.0515

*** tstop() called on ds3 at Tue Apr 28 00:48:37 2020
Module time:
	user time   =      38.02 seconds =       0.63 minutes
	system time =      19.59 seconds =       0.33 minutes
	total time  =         55 seconds =       0.92 minutes
Total time:
	user time   =      38.02 seconds =       0.63 minutes
	system time =      19.59 seconds =       0.33 minutes
	total time  =         55 seconds =       0.92 minutes
                                     G D M A

                                 by Anthony Stone

                           version 2.2.06, 22 June 2011

               Distributed Multipoles from Gaussian wavefunctions

Starting at 0:48:38 on 28 Apr 2020

Using SCF density matrix from file ./SSI/SSI-176ARG-273GLU-1-dimer.test.31082.fchk

                         Distributed Multipole Analysis

Standard DMA

Positions and radii in angstrom
Multipole moments in atomic units, ea_0^k for rank k

C          x =  1.355568  y = -0.824804  z =  3.570274 angstrom
           Maximum rank =  0   Radius =  0.650 angstrom
                   Q00  =  -0.114035

C          x =  0.083568  y = -1.345804  z =  1.561274 angstrom
           Maximum rank =  0   Radius =  0.650 angstrom
                   Q00  =   1.066171

N          x = -0.724432  y = -0.979804  z =  0.591274 angstrom
           Maximum rank =  0   Radius =  0.650 angstrom
                   Q00  =  -0.577344

N          x =  0.445568  y = -0.470804  z =  2.482274 angstrom
           Maximum rank =  0   Radius =  0.650 angstrom
                   Q00  =  -0.495624

N          x =  0.534568  y = -2.580804  z =  1.650274 angstrom
           Maximum rank =  0   Radius =  0.650 angstrom
                   Q00  =  -0.580658

H          x = -1.069432  y = -0.031804  z =  0.543274 angstrom
           Maximum rank =  0   Radius =  0.325 angstrom
                   Q00  =   0.289286

H          x = -1.004432  y = -1.654804  z = -0.119726 angstrom
           Maximum rank =  0   Radius =  0.325 angstrom
                   Q00  =   0.273722

H          x =  0.086568  y =  0.480196  z =  2.420274 angstrom
           Maximum rank =  0   Radius =  0.325 angstrom
                   Q00  =   0.246660

H          x =  1.145568  y = -2.843804  z =  2.410274 angstrom
           Maximum rank =  0   Radius =  0.325 angstrom
                   Q00  =   0.256208

H          x =  0.277568  y = -3.267804  z =  0.943274 angstrom
           Maximum rank =  0   Radius =  0.325 angstrom
                   Q00  =   0.262524

H          x =  2.308568  y = -1.132804  z =  3.140274 angstrom
           Maximum rank =  0   Radius =  0.325 angstrom
                   Q00  =   0.103101

H          x =  0.924568  y = -1.655804  z =  4.132274 angstrom
           Maximum rank =  0   Radius =  0.325 angstrom
                   Q00  =   0.093888

H          x =  1.517088  y =  0.027886  z =  4.246164 angstrom
           Maximum rank =  0   Radius =  0.325 angstrom
                   Q00  =   0.157565

C          x =  0.573568  y =  2.550196  z = -2.061726 angstrom
           Maximum rank =  0   Radius =  0.650 angstrom
                   Q00  =  -0.286011

C          x = -0.477432  y =  1.507196  z = -2.479726 angstrom
           Maximum rank =  0   Radius =  0.650 angstrom
                   Q00  =   0.949180

O          x = -1.213432  y =  0.958196  z = -1.633726 angstrom
           Maximum rank =  0   Radius =  0.650 angstrom
                   Q00  =  -0.963035

O          x = -0.586432  y =  1.260196  z = -3.687726 angstrom
           Maximum rank =  0   Radius =  0.650 angstrom
                   Q00  =  -0.886270

H          x =  0.336568  y =  3.505196  z = -2.539726 angstrom
           Maximum rank =  0   Radius =  0.325 angstrom
                   Q00  =   0.101110

H          x =  1.556568  y =  2.221196  z = -2.407726 angstrom
           Maximum rank =  0   Radius =  0.325 angstrom
                   Q00  =   0.081295

H          x =  0.652838  y =  2.693156  z = -0.973936 angstrom
           Maximum rank =  0   Radius =  0.325 angstrom
                   Q00  =   0.022269

Total multipoles referred to origin at
           x =   0.000000,  y =    0.000000,  z =    0.000000 angstrom
                   Q00  =  -0.000000

Finished at 0:48:38 on 28 Apr 2020

  DMA results are available in the Python driver through the
	  variable('DMA DISTRIBUTED MULTIPOLES')
  and
	  variable('DMA TOTAL MULTIPOLES')
  commands.

    Psi4 stopped on: Tuesday, 28 April 2020 12:48AM
    Psi4 wall time for execution: 0:00:55.94

*** Psi4 exiting successfully. Buy a developer a beer!
