                               Psi4 1.3.2 release

  ==> Input File <==

--------------------------------------------------------------------------
import numpy as np
set {scf_type pk
basis cc-pvdz
d_convergence 10
gdma_switch   0
gdma_limit    0
gdma_origin   [ 0.0,  0.0,  0.0 ]
}
molecule test {
    units Angstrom
    0 1
    --
    0 1
    C                0.439697754410194    -1.732421153733613    -1.304102513776903
    C                1.225697754410194    -2.935421153733613    -1.792102513776903
    H                0.473697754410194    -1.668421153733613    -0.218102513776903
    H                0.880697754410194    -0.825421153733613    -1.715102513776903
    H               -0.596302245589806    -1.798421153733613    -1.639102513776903
    H                2.232697754410194    -2.896421153733613    -1.372102513776903
    H                1.318697754410194    -2.844421153733613    -2.873102513776903
    H                0.754017754410194    -3.893813153733613    -1.529422513776903
    C               -0.237302245589806     1.212578846266387     0.744897486223097
    C                0.066697754410194     2.682578846266388     0.912897486223097
    C               -1.504302245589806     0.839578846266387     1.488897486223097
    H               -0.385302245589806     0.988578846266387    -0.312102513776903
    H                0.593697754410194     0.614578846266387     1.117897486223097
    H                0.063697754410194     2.922578846266387     1.978897486223097
    H               -0.731302245589806     3.258578846266387     0.438897486223097
    H               -1.370302245589806     1.020578846266387     2.557897486223097
    H               -2.295302245589806     1.515578846266387     1.157897486223097
    H                1.034817754410194     2.995918846266387     0.495107486223097
    H               -1.860262245589806    -0.185971153733613     1.311297486223097

}
e, wfn = energy('scf', return_wfn=True)
gdma(wfn)
dmavals = variable('DMA DISTRIBUTED MULTIPOLES')
charges = np.array(dmavals)
print(charges)
np.save('SSI-083ILE-155ARG-1-dimer.npy', np.array(charges))--------------------------------------------------------------------------

*** tstart() called on ds3
*** at Mon Apr 27 23:37:25 2020

   => Loading Basis Set <=

    Name: CC-PVDZ
    Role: ORBITAL
    Keyword: BASIS
    atoms 1-2, 9-11  entry C          line   138 file /theoryfs2/ds/metcalf/miniconda2/envs/tf2gpu/share/psi4/basis/cc-pvdz.gbs
    atoms 3-8, 12-19 entry H          line    22 file /theoryfs2/ds/metcalf/miniconda2/envs/tf2gpu/share/psi4/basis/cc-pvdz.gbs

         ---------------------------------------------------------
                                   SCF
               by Justin Turney, Rob Parrish, Andy Simmonett
                          and Daniel G. A. Smith
                              RHF Reference
                        1 Threads,    500 MiB Core
         ---------------------------------------------------------

  ==> Geometry <==

    Molecular point group: c1
    Full point group: C1

    Geometry (in Angstrom), charge = 0, multiplicity = 1:

       Center              X                  Y                   Z               Mass
    ------------   -----------------  -----------------  -----------------  -----------------
         C            0.439697754410    -1.732421153734    -1.304102513777    12.000000000000
         C            1.225697754410    -2.935421153734    -1.792102513777    12.000000000000
         H            0.473697754410    -1.668421153734    -0.218102513777     1.007825032230
         H            0.880697754410    -0.825421153734    -1.715102513777     1.007825032230
         H           -0.596302245590    -1.798421153734    -1.639102513777     1.007825032230
         H            2.232697754410    -2.896421153734    -1.372102513777     1.007825032230
         H            1.318697754410    -2.844421153734    -2.873102513777     1.007825032230
         H            0.754017754410    -3.893813153734    -1.529422513777     1.007825032230
         C           -0.237302245590     1.212578846266     0.744897486223    12.000000000000
         C            0.066697754410     2.682578846266     0.912897486223    12.000000000000
         C           -1.504302245590     0.839578846266     1.488897486223    12.000000000000
         H           -0.385302245590     0.988578846266    -0.312102513777     1.007825032230
         H            0.593697754410     0.614578846266     1.117897486223     1.007825032230
         H            0.063697754410     2.922578846266     1.978897486223     1.007825032230
         H           -0.731302245590     3.258578846266     0.438897486223     1.007825032230
         H           -1.370302245590     1.020578846266     2.557897486223     1.007825032230
         H           -2.295302245590     1.515578846266     1.157897486223     1.007825032230
         H            1.034817754410     2.995918846266     0.495107486223     1.007825032230
         H           -1.860262245590    -0.185971153734     1.311297486223     1.007825032230

  Running in c1 symmetry.

  Rotational constants: A =      0.27119  B =      0.03537  C =      0.03243 [cm^-1]
  Rotational constants: A =   8130.19155  B =   1060.28604  C =    972.16602 [MHz]
  Nuclear repulsion =  176.696912158596973

  Charge       = 0
  Multiplicity = 1
  Electrons    = 44
  Nalpha       = 22
  Nbeta        = 22

  ==> Algorithm <==

  SCF Algorithm Type is PK.
  DIIS enabled.
  MOM disabled.
  Fractional occupation disabled.
  Guess Type is SAD.
  Energy threshold   = 1.00e-06
  Density threshold  = 1.00e-10
  Integral threshold = 0.00e+00

  ==> Primary Basis <==

  Basis Set: CC-PVDZ
    Blend: CC-PVDZ
    Number of shells: 72
    Number of basis function: 140
    Number of Cartesian functions: 145
    Spherical Harmonics?: true
    Max angular momentum: 2

  ==> Pre-Iterations <==

   -------------------------------------------------------
    Irrep   Nso     Nmo     Nalpha   Nbeta   Ndocc  Nsocc
   -------------------------------------------------------
     A        140     140       0       0       0       0
   -------------------------------------------------------
    Total     140     140      22      22      22       0
   -------------------------------------------------------

  ==> Integral Setup <==

  Using integral reordering PK algorithm.
  Sizing the integral batches needed.
  Building batch lookup table.
   Calculation information:
      Number of atoms:                  19
      Number of AO shells:              72
      Number of primitives:            180
      Number of atomic orbitals:       145
      Number of basis functions:       140

      Integral cutoff                 1.00e-12
      Number of threads:                 1

	Batch   1 pq = [       0,    9405] index = [             0,44231715] size =     44231715
	Batch   2 pq = [    9405,    9870] index = [      44231715,48713385] size =      4481670
  Task number: 5
  Buffer size: 11059200
  Buffer per thread: 2
  We computed 2750325 shell quartets total.
  Whereas there are 3454506 unique shell quartets.

  ==> DiskJK: Disk-Based J/K Matrices <==

    J tasked:                  Yes
    K tasked:                  Yes
    wK tasked:                  No
    Memory [MiB]:              375
    Schwarz Cutoff:          1E-12

    OpenMP threads:              1

  Minimum eigenvalue in the overlap matrix is 5.0899603609E-03.
  Using Symmetric Orthogonalization.

  SCF Guess: Superposition of Atomic Densities via on-the-fly atomic UHF.

  ==> Iterations <==

                        Total Energy        Delta E     RMS |[F,P]|

   @RHF iter SAD:  -196.44503304494518   -1.96445e+02   0.00000e+00
   @RHF iter   1:  -197.30698231754445   -8.61949e-01   3.85528e-03 DIIS
   @RHF iter   2:  -197.46998806280371   -1.63006e-01   1.68110e-03 DIIS
   @RHF iter   3:  -197.49967544850318   -2.96874e-02   3.30014e-04 DIIS
   @RHF iter   4:  -197.50194521360262   -2.26977e-03   5.02369e-05 DIIS
   @RHF iter   5:  -197.50198629834023   -4.10847e-05   1.51471e-05 DIIS
   @RHF iter   6:  -197.50198984578566   -3.54745e-06   2.56590e-06 DIIS
   @RHF iter   7:  -197.50198996366345   -1.17878e-07   4.92502e-07 DIIS
   @RHF iter   8:  -197.50198996872786   -5.06441e-09   1.27574e-07 DIIS
   @RHF iter   9:  -197.50198996905101   -3.23155e-10   3.97738e-08 DIIS
   @RHF iter  10:  -197.50198996908787   -3.68630e-11   8.18012e-09 DIIS
   @RHF iter  11:  -197.50198996908924   -1.36424e-12   1.48724e-09 DIIS
   @RHF iter  12:  -197.50198996908966   -4.26326e-13   2.66528e-10 DIIS
   @RHF iter  13:  -197.50198996908972   -5.68434e-14   5.35164e-11 DIIS
  Energy and wave function converged.

  ==> Post-Iterations <==

    Orbital Energies [Eh]
    ---------------------

    Doubly Occupied:

       1A    -11.216874     2A    -11.216680     3A    -11.215172
       4A    -11.215096     5A    -11.214730     6A     -1.059823
       7A     -1.021210     8A     -0.921982     9A     -0.836289
      10A     -0.797108    11A     -0.629562    12A     -0.602288
      13A     -0.599350    14A     -0.597793    15A     -0.542605
      16A     -0.525914    17A     -0.503680    18A     -0.485344
      19A     -0.484125    20A     -0.478818    21A     -0.466621
      22A     -0.465872

    Virtual:

      23A      0.174507    24A      0.193215    25A      0.218565
      26A      0.222549    27A      0.228657    28A      0.251733
      29A      0.255057    30A      0.266190    31A      0.279147
      32A      0.285865    33A      0.292023    34A      0.303163
      35A      0.314570    36A      0.331841    37A      0.374531
      38A      0.407333    39A      0.438731    40A      0.571174
      41A      0.580689    42A      0.595711    43A      0.602367
      44A      0.607756    45A      0.615432    46A      0.619896
      47A      0.671866    48A      0.699888    49A      0.755170
      50A      0.788352    51A      0.829023    52A      0.854027
      53A      0.867618    54A      0.888435    55A      0.889432
      56A      0.894650    57A      0.896136    58A      0.902603
      59A      0.906402    60A      0.909551    61A      0.917171
      62A      0.920479    63A      0.933820    64A      0.948387
      65A      0.949681    66A      0.963517    67A      0.980963
      68A      1.006642    69A      1.123023    70A      1.128226
      71A      1.133261    72A      1.150880    73A      1.201797
      74A      1.237519    75A      1.373899    76A      1.471009
      77A      1.481688    78A      1.487629    79A      1.491623
      80A      1.575674    81A      1.590887    82A      1.597657
      83A      1.682394    84A      1.684158    85A      1.689246
      86A      1.696172    87A      1.718337    88A      1.839591
      89A      1.863518    90A      1.872749    91A      1.884142
      92A      1.892971    93A      1.917299    94A      1.919665
      95A      1.929097    96A      1.943599    97A      1.947633
      98A      1.953117    99A      1.956176   100A      1.963145
     101A      1.979253   102A      1.983445   103A      1.991800
     104A      2.012938   105A      2.017635   106A      2.044351
     107A      2.078988   108A      2.103132   109A      2.131407
     110A      2.134752   111A      2.160952   112A      2.289362
     113A      2.305473   114A      2.308578   115A      2.325214
     116A      2.340765   117A      2.357135   118A      2.457016
     119A      2.468847   120A      2.512410   121A      2.531396
     122A      2.566165   123A      2.582542   124A      2.595396
     125A      2.614214   126A      2.642785   127A      2.754585
     128A      2.768504   129A      2.771044   130A      2.783486
     131A      2.793223   132A      2.829884   133A      2.849595
     134A      2.865585   135A      2.914370   136A      2.950725
     137A      2.959863   138A      2.968550   139A      2.985325
     140A      3.079721

    Final Occupation by Irrep:
              A
    DOCC [    22 ]

  @RHF Final Energy:  -197.50198996908972

   => Energetics <=

    Nuclear Repulsion Energy =            176.6969121585969731
    One-Electron Energy =                -614.2039306720998866
    Two-Electron Energy =                 240.0050285444131646
    Total Energy =                       -197.5019899690897205

Computation Completed

Properties will be evaluated at   0.000000,   0.000000,   0.000000 [a0]

Properties computed using the SCF density matrix

  Nuclear Dipole Moment: [e a0]
     X:     0.1062      Y:    -0.7467      Z:    -0.5636

  Electronic Dipole Moment: [e a0]
     X:    -0.0901      Y:     0.7453      Z:     0.5383

  Dipole Moment: [e a0]
     X:     0.0161      Y:    -0.0014      Z:    -0.0253     Total:     0.0300

  Dipole Moment: [D]
     X:     0.0410      Y:    -0.0036      Z:    -0.0643     Total:     0.0763

*** tstop() called on ds3 at Mon Apr 27 23:37:47 2020
Module time:
	user time   =      15.52 seconds =       0.26 minutes
	system time =       7.03 seconds =       0.12 minutes
	total time  =         22 seconds =       0.37 minutes
Total time:
	user time   =      15.52 seconds =       0.26 minutes
	system time =       7.03 seconds =       0.12 minutes
	total time  =         22 seconds =       0.37 minutes
                                     G D M A

                                 by Anthony Stone

                           version 2.2.06, 22 June 2011

               Distributed Multipoles from Gaussian wavefunctions

Starting at 23:37:47 on 27 Apr 2020

Using SCF density matrix from file ./SSI/SSI-083ILE-155ARG-1-dimer.test.3461.fchk

                         Distributed Multipole Analysis

Standard DMA

Positions and radii in angstrom
Multipole moments in atomic units, ea_0^k for rank k

C          x =  0.439698  y = -1.732421  z = -1.304103 angstrom
           Maximum rank =  0   Radius =  0.650 angstrom
                   Q00  =  -0.234354

C          x =  1.225698  y = -2.935421  z = -1.792103 angstrom
           Maximum rank =  0   Radius =  0.650 angstrom
                   Q00  =  -0.232286

H          x =  0.473698  y = -1.668421  z = -0.218103 angstrom
           Maximum rank =  0   Radius =  0.325 angstrom
                   Q00  =   0.079457

H          x =  0.880698  y = -0.825421  z = -1.715103 angstrom
           Maximum rank =  0   Radius =  0.325 angstrom
                   Q00  =   0.077029

H          x = -0.596302  y = -1.798421  z = -1.639103 angstrom
           Maximum rank =  0   Radius =  0.325 angstrom
                   Q00  =   0.077411

H          x =  2.232698  y = -2.896421  z = -1.372103 angstrom
           Maximum rank =  0   Radius =  0.325 angstrom
                   Q00  =   0.077266

H          x =  1.318698  y = -2.844421  z = -2.873103 angstrom
           Maximum rank =  0   Radius =  0.325 angstrom
                   Q00  =   0.076001

H          x =  0.754018  y = -3.893813  z = -1.529423 angstrom
           Maximum rank =  0   Radius =  0.325 angstrom
                   Q00  =   0.081112

C          x = -0.237302  y =  1.212579  z =  0.744897 angstrom
           Maximum rank =  0   Radius =  0.650 angstrom
                   Q00  =  -0.082626

C          x =  0.066698  y =  2.682579  z =  0.912897 angstrom
           Maximum rank =  0   Radius =  0.650 angstrom
                   Q00  =  -0.228729

C          x = -1.504302  y =  0.839579  z =  1.488897 angstrom
           Maximum rank =  0   Radius =  0.650 angstrom
                   Q00  =  -0.243408

H          x = -0.385302  y =  0.988579  z = -0.312103 angstrom
           Maximum rank =  0   Radius =  0.325 angstrom
                   Q00  =   0.047726

H          x =  0.593698  y =  0.614579  z =  1.117897 angstrom
           Maximum rank =  0   Radius =  0.325 angstrom
                   Q00  =   0.044767

H          x =  0.063698  y =  2.922579  z =  1.978897 angstrom
           Maximum rank =  0   Radius =  0.325 angstrom
                   Q00  =   0.071283

H          x = -0.731302  y =  3.258579  z =  0.438897 angstrom
           Maximum rank =  0   Radius =  0.325 angstrom
                   Q00  =   0.074478

H          x = -1.370302  y =  1.020579  z =  2.557897 angstrom
           Maximum rank =  0   Radius =  0.325 angstrom
                   Q00  =   0.074220

H          x = -2.295302  y =  1.515579  z =  1.157897 angstrom
           Maximum rank =  0   Radius =  0.325 angstrom
                   Q00  =   0.068980

H          x =  1.034818  y =  2.995919  z =  0.495107 angstrom
           Maximum rank =  0   Radius =  0.325 angstrom
                   Q00  =   0.085011

H          x = -1.860262  y = -0.185971  z =  1.311297 angstrom
           Maximum rank =  0   Radius =  0.325 angstrom
                   Q00  =   0.086662

Total multipoles referred to origin at
           x =   0.000000,  y =    0.000000,  z =    0.000000 angstrom
                   Q00  =  -0.000000

Finished at 23:37:47 on 27 Apr 2020

  DMA results are available in the Python driver through the
	  variable('DMA DISTRIBUTED MULTIPOLES')
  and
	  variable('DMA TOTAL MULTIPOLES')
  commands.

    Psi4 stopped on: Monday, 27 April 2020 11:37PM
    Psi4 wall time for execution: 0:00:22.23

*** Psi4 exiting successfully. Buy a developer a beer!
