                               Psi4 1.3.2 release

  ==> Input File <==

--------------------------------------------------------------------------
import numpy as np
set {scf_type pk
basis cc-pvdz
d_convergence 10
gdma_switch   0
gdma_limit    0
gdma_origin   [ 0.0,  0.0,  0.0 ]
}
molecule test {
    units Angstrom
    0 1
    --
    0 1
    C                3.852501632564584     1.900218618047659     1.201725044271820
    C                1.549501632564584     0.322218618047659    -1.394274955728180
    C                2.348501632564584     0.500218618047659    -0.265274955728180
    C                1.381501632564584     1.371218618047658    -2.298274955728180
    C                3.008501632564584     1.708218618047659    -0.035274955728180
    C                2.029501632564584     2.587218618047659    -2.081274955728181
    C                2.829501632564584     2.753218618047659    -0.944274955728180
    O                0.589501632564584     1.193218618047658    -3.394274955728181
    H                1.078501632564584    -0.630781381952341    -1.575274955728180
    H                2.449501632564584    -0.314781381952341     0.437725044271820
    H                0.158501632564584     0.332218618047659    -3.396274955728181
    H                1.902501632564584     3.396218618047659    -2.786274955728181
    H                3.346501632564583     1.398218618047659     2.022725044271819
    H                3.907501632564584     2.956218618047659     1.448725044271820
    H                3.323501632564584     3.700218618047659    -0.780274955728181
    H                4.877124932564584     1.505191618047659     1.137685044271820
    C               -0.812498367435416    -1.093781381952341     3.745725044271819
    C               -1.472498367435416    -1.287781381952342     0.000725044271820
    C               -2.794498367435417    -1.726781381952341    -0.026274955728180
    C               -0.835498367435416    -1.082781381952342     1.224725044271820
    C               -1.511498367435416    -1.306781381952342     2.428725044271819
    C               -3.479498367435416    -1.966781381952341     1.166725044271820
    C               -2.836498367435416    -1.757781381952342     2.387725044271819
    O               -3.420498367435416    -1.944781381952341    -1.221274955728180
    H               -0.961498367435416    -1.107781381952341    -0.930274955728181
    H                0.193501632564584    -0.749781381952341     1.243725044271820
    H               -4.505498367435416    -2.305781381952341     1.147725044271820
    H               -4.337498367435416    -2.217781381952341    -1.104274955728180
    H               -1.521498367435416    -0.694781381952342     4.473725044271820
    H               -0.032498367435416    -0.344781381952341     3.602725044271819
    H               -3.372498367435416    -1.935781381952341     3.310725044271819
    H               -0.356988367435416    -2.013410381952342     4.141696044271820

}
e, wfn = energy('scf', return_wfn=True)
gdma(wfn)
dmavals = variable('DMA DISTRIBUTED MULTIPOLES')
charges = np.array(dmavals)
print(charges)
np.save('SSI-083TYR-094TYR-1-dimer.npy', np.array(charges))--------------------------------------------------------------------------

*** tstart() called on ds3
*** at Sun Apr 26 23:33:38 2020

   => Loading Basis Set <=

    Name: CC-PVDZ
    Role: ORBITAL
    Keyword: BASIS
    atoms 1-7, 17-23  entry C          line   138 file /theoryfs2/ds/metcalf/miniconda2/envs/tf2gpu/share/psi4/basis/cc-pvdz.gbs
    atoms 8, 24       entry O          line   198 file /theoryfs2/ds/metcalf/miniconda2/envs/tf2gpu/share/psi4/basis/cc-pvdz.gbs
    atoms 9-16, 25-32 entry H          line    22 file /theoryfs2/ds/metcalf/miniconda2/envs/tf2gpu/share/psi4/basis/cc-pvdz.gbs

         ---------------------------------------------------------
                                   SCF
               by Justin Turney, Rob Parrish, Andy Simmonett
                          and Daniel G. A. Smith
                              RHF Reference
                        1 Threads,    500 MiB Core
         ---------------------------------------------------------

  ==> Geometry <==

    Molecular point group: c1
    Full point group: C1

    Geometry (in Angstrom), charge = 0, multiplicity = 1:

       Center              X                  Y                   Z               Mass
    ------------   -----------------  -----------------  -----------------  -----------------
         C            3.852501632565     1.900218618048     1.201725044272    12.000000000000
         C            1.549501632565     0.322218618048    -1.394274955728    12.000000000000
         C            2.348501632565     0.500218618048    -0.265274955728    12.000000000000
         C            1.381501632565     1.371218618048    -2.298274955728    12.000000000000
         C            3.008501632565     1.708218618048    -0.035274955728    12.000000000000
         C            2.029501632565     2.587218618048    -2.081274955728    12.000000000000
         C            2.829501632565     2.753218618048    -0.944274955728    12.000000000000
         O            0.589501632565     1.193218618048    -3.394274955728    15.994914619570
         H            1.078501632565    -0.630781381952    -1.575274955728     1.007825032230
         H            2.449501632565    -0.314781381952     0.437725044272     1.007825032230
         H            0.158501632565     0.332218618048    -3.396274955728     1.007825032230
         H            1.902501632565     3.396218618048    -2.786274955728     1.007825032230
         H            3.346501632565     1.398218618048     2.022725044272     1.007825032230
         H            3.907501632565     2.956218618048     1.448725044272     1.007825032230
         H            3.323501632565     3.700218618048    -0.780274955728     1.007825032230
         H            4.877124932565     1.505191618048     1.137685044272     1.007825032230
         C           -0.812498367435    -1.093781381952     3.745725044272    12.000000000000
         C           -1.472498367435    -1.287781381952     0.000725044272    12.000000000000
         C           -2.794498367435    -1.726781381952    -0.026274955728    12.000000000000
         C           -0.835498367435    -1.082781381952     1.224725044272    12.000000000000
         C           -1.511498367435    -1.306781381952     2.428725044272    12.000000000000
         C           -3.479498367435    -1.966781381952     1.166725044272    12.000000000000
         C           -2.836498367435    -1.757781381952     2.387725044272    12.000000000000
         O           -3.420498367435    -1.944781381952    -1.221274955728    15.994914619570
         H           -0.961498367435    -1.107781381952    -0.930274955728     1.007825032230
         H            0.193501632565    -0.749781381952     1.243725044272     1.007825032230
         H           -4.505498367435    -2.305781381952     1.147725044272     1.007825032230
         H           -4.337498367435    -2.217781381952    -1.104274955728     1.007825032230
         H           -1.521498367435    -0.694781381952     4.473725044272     1.007825032230
         H           -0.032498367435    -0.344781381952     3.602725044272     1.007825032230
         H           -3.372498367435    -1.935781381952     3.310725044272     1.007825032230
         H           -0.356988367435    -2.013410381952     4.141696044272     1.007825032230

  Running in c1 symmetry.

  Rotational constants: A =      0.02347  B =      0.00832  C =      0.00636 [cm^-1]
  Rotational constants: A =    703.72379  B =    249.40900  C =    190.73293 [MHz]
  Nuclear repulsion =  977.532504811908666

  Charge       = 0
  Multiplicity = 1
  Electrons    = 116
  Nalpha       = 58
  Nbeta        = 58

  ==> Algorithm <==

  SCF Algorithm Type is PK.
  DIIS enabled.
  MOM disabled.
  Fractional occupation disabled.
  Guess Type is SAD.
  Energy threshold   = 1.00e-06
  Density threshold  = 1.00e-10
  Integral threshold = 0.00e+00

  ==> Primary Basis <==

  Basis Set: CC-PVDZ
    Blend: CC-PVDZ
    Number of shells: 144
    Number of basis function: 304
    Number of Cartesian functions: 320
    Spherical Harmonics?: true
    Max angular momentum: 2

  ==> Pre-Iterations <==

   -------------------------------------------------------
    Irrep   Nso     Nmo     Nalpha   Nbeta   Ndocc  Nsocc
   -------------------------------------------------------
     A        304     304       0       0       0       0
   -------------------------------------------------------
    Total     304     304      58      58      58       0
   -------------------------------------------------------

  ==> Integral Setup <==

  Using integral reordering PK algorithm.
  Sizing the integral batches needed.
  Building batch lookup table.
   Calculation information:
      Number of atoms:                  32
      Number of AO shells:             144
      Number of primitives:            432
      Number of atomic orbitals:       320
      Number of basis functions:       304

      Integral cutoff                 1.00e-12
      Number of threads:                 1

	Batch   1 pq = [       0,    9405] index = [             0,44231715] size =     44231715
	Batch   2 pq = [    9405,   13301] index = [      44231715,88464951] size =     44233236
	Batch   3 pq = [   13301,   16290] index = [      88464951,132690195] size =     44225244
	Batch   4 pq = [   16290,   18810] index = [     132690195,176917455] size =     44227260
	Batch   5 pq = [   18810,   21030] index = [     176917455,221140965] size =     44223510
	Batch   6 pq = [   21030,   23037] index = [     221140965,265363203] size =     44222238
	Batch   7 pq = [   23037,   24883] index = [     265363203,309594286] size =     44231083
	Batch   8 pq = [   24883,   26601] index = [     309594286,353819901] size =     44225615
	Batch   9 pq = [   26601,   28214] index = [     353819901,398029005] size =     44209104
	Batch  10 pq = [   28214,   29740] index = [     398029005,442248670] size =     44219665
	Batch  11 pq = [   29740,   31191] index = [     442248670,486454836] size =     44206166
	Batch  12 pq = [   31191,   32578] index = [     486454836,530679331] size =     44224495
	Batch  13 pq = [   32578,   33908] index = [     530679331,574893186] size =     44213855
	Batch  14 pq = [   33908,   35188] index = [     574893186,619115266] size =     44222080
	Batch  15 pq = [   35188,   36423] index = [     619115266,663335676] size =     44220410
	Batch  16 pq = [   36423,   37617] index = [     663335676,707538153] size =     44202477
	Batch  17 pq = [   37617,   38775] index = [     707538153,751769700] size =     44231547
	Batch  18 pq = [   38775,   39899] index = [     751769700,795985050] size =     44215350
	Batch  19 pq = [   39899,   40992] index = [     795985050,840192528] size =     44207478
	Batch  20 pq = [   40992,   42057] index = [     840192528,884416653] size =     44224125
	Batch  21 pq = [   42057,   43095] index = [     884416653,928611060] size =     44194407
	Batch  22 pq = [   43095,   44109] index = [     928611060,972823995] size =     44212935
	Batch  23 pq = [   44109,   45100] index = [     972823995,1017027550] size =     44203555
	Batch  24 pq = [   45100,   46070] index = [    1017027550,1061245485] size =     44217935
	Batch  25 pq = [   46070,   46360] index = [    1061245485,1074647980] size =     13402495
  Task number: 98
  Buffer size: 11059200
  Buffer per thread: 2
  We computed 47712954 shell quartets total.
  Whereas there are 54502020 unique shell quartets.

  ==> DiskJK: Disk-Based J/K Matrices <==

    J tasked:                  Yes
    K tasked:                  Yes
    wK tasked:                  No
    Memory [MiB]:              375
    Schwarz Cutoff:          1E-12

    OpenMP threads:              1

  Minimum eigenvalue in the overlap matrix is 3.0998761527E-04.
  Using Symmetric Orthogonalization.

  SCF Guess: Superposition of Atomic Densities via on-the-fly atomic UHF.

  ==> Iterations <==

                        Total Energy        Delta E     RMS |[F,P]|

   @RHF iter SAD:  -687.95572310986972   -6.87956e+02   0.00000e+00
   @RHF iter   1:  -688.89506051591968   -9.39337e-01   2.42231e-03 DIIS
   @RHF iter   2:  -689.19361990619541   -2.98559e-01   1.02046e-03 DIIS
   @RHF iter   3:  -689.24015169130325   -4.65318e-02   2.47964e-04 DIIS
   @RHF iter   4:  -689.24424303397154   -4.09134e-03   1.08002e-04 DIIS
   @RHF iter   5:  -689.24488049665683   -6.37463e-04   1.73258e-05 DIIS
   @RHF iter   6:  -689.24490728671742   -2.67901e-05   6.32984e-06 DIIS
   @RHF iter   7:  -689.24491059413742   -3.30742e-06   2.07846e-06 DIIS
   @RHF iter   8:  -689.24491107870028   -4.84563e-07   7.30960e-07 DIIS
   @RHF iter   9:  -689.24491114879822   -7.00979e-08   2.97277e-07 DIIS
   @RHF iter  10:  -689.24491116246520   -1.36670e-08   1.33401e-07 DIIS
   @RHF iter  11:  -689.24491116720833   -4.74313e-09   5.44282e-08 DIIS
   @RHF iter  12:  -689.24491116798254   -7.74207e-10   2.58501e-08 DIIS
   @RHF iter  13:  -689.24491116809463   -1.12095e-10   7.09992e-09 DIIS
   @RHF iter  14:  -689.24491116810873   -1.40972e-11   1.94827e-09 DIIS
   @RHF iter  15:  -689.24491116810316    5.57066e-12   6.62890e-10 DIIS
   @RHF iter  16:  -689.24491116810179    1.36424e-12   2.23151e-10 DIIS
   @RHF iter  17:  -689.24491116810213   -3.41061e-13   9.12912e-11 DIIS
  Energy and wave function converged.

  ==> Post-Iterations <==

    Orbital Energies [Eh]
    ---------------------

    Doubly Occupied:

       1A    -20.585374     2A    -20.581541     3A    -11.302237
       4A    -11.300314     5A    -11.241616     6A    -11.240303
       7A    -11.240161     8A    -11.239495     9A    -11.235917
      10A    -11.235373    11A    -11.234774    12A    -11.233794
      13A    -11.233087    14A    -11.231594    15A    -11.229309
      16A    -11.228108    17A     -1.400217    18A     -1.397725
      19A     -1.150253    20A     -1.149173    21A     -1.038085
      22A     -1.036746    23A     -1.019688    24A     -1.016275
      25A     -0.926892    26A     -0.926528    27A     -0.846249
      28A     -0.843652    29A     -0.804609    30A     -0.801359
      31A     -0.734362    32A     -0.730223    33A     -0.669485
      34A     -0.667172    35A     -0.646912    36A     -0.640118
      37A     -0.610391    38A     -0.605984    39A     -0.594524
      40A     -0.587270    41A     -0.584715    42A     -0.580896
      43A     -0.572719    44A     -0.570939    45A     -0.567572
      46A     -0.565165    47A     -0.527783    48A     -0.526347
      49A     -0.499969    50A     -0.498972    51A     -0.489021
      52A     -0.482026    53A     -0.467862    54A     -0.465653
      55A     -0.341215    56A     -0.336543    57A     -0.302582
      58A     -0.301317

    Virtual:

      59A      0.123839    60A      0.129602    61A      0.149854
      62A      0.154242    63A      0.168779    64A      0.173174
      65A      0.179794    66A      0.197694    67A      0.210468
      68A      0.219318    69A      0.223684    70A      0.252799
      71A      0.257895    72A      0.260887    73A      0.274772
      74A      0.284914    75A      0.287038    76A      0.295965
      77A      0.318111    78A      0.330190    79A      0.361984
      80A      0.372455    81A      0.380085    82A      0.384316
      83A      0.428429    84A      0.432048    85A      0.446664
      86A      0.458548    87A      0.473798    88A      0.491930
      89A      0.500303    90A      0.504146    91A      0.506032
      92A      0.519496    93A      0.604623    94A      0.613611
      95A      0.629659    96A      0.636232    97A      0.644564
      98A      0.654760    99A      0.660383   100A      0.663358
     101A      0.679834   102A      0.685960   103A      0.691511
     104A      0.698514   105A      0.705704   106A      0.709488
     107A      0.721595   108A      0.727933   109A      0.731431
     110A      0.733880   111A      0.743939   112A      0.760826
     113A      0.767909   114A      0.769102   115A      0.770146
     116A      0.781489   117A      0.789680   118A      0.791719
     119A      0.802745   120A      0.810005   121A      0.834173
     122A      0.839897   123A      0.843630   124A      0.850792
     125A      0.854755   126A      0.871469   127A      0.881026
     128A      0.884235   129A      0.887333   130A      0.895216
     131A      0.899230   132A      0.906487   133A      0.911049
     134A      0.916142   135A      0.928194   136A      0.936299
     137A      0.938969   138A      0.943005   139A      0.945055
     140A      0.957621   141A      0.976491   142A      1.004873
     143A      1.011278   144A      1.019298   145A      1.037265
     146A      1.049326   147A      1.054587   148A      1.075461
     149A      1.113127   150A      1.134886   151A      1.140504
     152A      1.142502   153A      1.148284   154A      1.155725
     155A      1.168203   156A      1.182458   157A      1.202406
     158A      1.211936   159A      1.241215   160A      1.244165
     161A      1.249306   162A      1.257057   163A      1.269597
     164A      1.281217   165A      1.284676   166A      1.286581
     167A      1.292096   168A      1.297573   169A      1.305470
     170A      1.314393   171A      1.332464   172A      1.352461
     173A      1.359062   174A      1.361966   175A      1.376079
     176A      1.382488   177A      1.390280   178A      1.412928
     179A      1.485507   180A      1.490395   181A      1.507193
     182A      1.518988   183A      1.525484   184A      1.531520
     185A      1.549693   186A      1.563183   187A      1.615616
     188A      1.616691   189A      1.623136   190A      1.630150
     191A      1.679512   192A      1.688012   193A      1.702389
     194A      1.704829   195A      1.726088   196A      1.735558
     197A      1.746397   198A      1.753676   199A      1.777905
     200A      1.782802   201A      1.796219   202A      1.801206
     203A      1.801811   204A      1.807503   205A      1.865331
     206A      1.872579   207A      1.884214   208A      1.886958
     209A      1.893615   210A      1.901231   211A      1.902161
     212A      1.912599   213A      1.914077   214A      1.916154
     215A      1.921322   216A      1.929505   217A      1.939145
     218A      1.953319   219A      1.955289   220A      1.963005
     221A      1.969117   222A      1.979268   223A      1.986355
     224A      1.991717   225A      2.031813   226A      2.033929
     227A      2.042042   228A      2.046930   229A      2.055096
     230A      2.055618   231A      2.063119   232A      2.063577
     233A      2.072330   234A      2.084469   235A      2.139246
     236A      2.144183   237A      2.144722   238A      2.150686
     239A      2.160513   240A      2.166784   241A      2.205336
     242A      2.213888   243A      2.225421   244A      2.237723
     245A      2.253451   246A      2.272831   247A      2.277845
     248A      2.286890   249A      2.304020   250A      2.319112
     251A      2.328258   252A      2.333117   253A      2.363395
     254A      2.378159   255A      2.419590   256A      2.424945
     257A      2.451015   258A      2.460264   259A      2.478523
     260A      2.485111   261A      2.489434   262A      2.500297
     263A      2.529793   264A      2.532097   265A      2.537712
     266A      2.543170   267A      2.599353   268A      2.602819
     269A      2.637063   270A      2.644316   271A      2.744847
     272A      2.757671   273A      2.770458   274A      2.774542
     275A      2.784635   276A      2.789500   277A      2.808961
     278A      2.831555   279A      2.845920   280A      2.854905
     281A      2.896624   282A      2.903821   283A      2.954527
     284A      2.961986   285A      2.982266   286A      3.015973
     287A      3.080460   288A      3.086823   289A      3.102718
     290A      3.118128   291A      3.245150   292A      3.250838
     293A      3.270835   294A      3.288008   295A      3.341736
     296A      3.349036   297A      3.570022   298A      3.572684
     299A      3.664456   300A      3.666279   301A      3.963192
     302A      3.970426   303A      4.183747   304A      4.191729

    Final Occupation by Irrep:
              A
    DOCC [    58 ]

  @RHF Final Energy:  -689.24491116810213

   => Energetics <=

    Nuclear Repulsion Energy =            977.5325048119086659
    One-Electron Energy =               -2877.3184642335554599
    Two-Electron Energy =                1210.5410482535446590
    Total Energy =                       -689.2449111681021350

Computation Completed

Properties will be evaluated at   0.000000,   0.000000,   0.000000 [a0]

Properties computed using the SCF density matrix

  Nuclear Dipole Moment: [e a0]
     X:     5.7510      Y:     0.9084      Z:    11.5973

  Electronic Dipole Moment: [e a0]
     X:    -6.1519      Y:    -1.4156      Z:   -10.8404

  Dipole Moment: [e a0]
     X:    -0.4009      Y:    -0.5072      Z:     0.7569     Total:     0.9954

  Dipole Moment: [D]
     X:    -1.0189      Y:    -1.2891      Z:     1.9240     Total:     2.5301

*** tstop() called on ds3 at Sun Apr 26 23:55:03 2020
Module time:
	user time   =     417.74 seconds =       6.96 minutes
	system time =     173.92 seconds =       2.90 minutes
	total time  =       1285 seconds =      21.42 minutes
Total time:
	user time   =     417.74 seconds =       6.96 minutes
	system time =     173.92 seconds =       2.90 minutes
	total time  =       1285 seconds =      21.42 minutes
                                     G D M A

                                 by Anthony Stone

                           version 2.2.06, 22 June 2011

               Distributed Multipoles from Gaussian wavefunctions

Starting at 23:55:3 on 26 Apr 2020

Using SCF density matrix from file ./SSI/SSI-083TYR-094TYR-1-dimer.test.1365.fchk

                         Distributed Multipole Analysis

Standard DMA

Positions and radii in angstrom
Multipole moments in atomic units, ea_0^k for rank k

C          x =  3.852502  y =  1.900219  z =  1.201725 angstrom
           Maximum rank =  0   Radius =  0.650 angstrom
                   Q00  =  -0.194646

C          x =  1.549502  y =  0.322219  z = -1.394275 angstrom
           Maximum rank =  0   Radius =  0.650 angstrom
                   Q00  =  -0.181575

C          x =  2.348502  y =  0.500219  z = -0.265275 angstrom
           Maximum rank =  0   Radius =  0.650 angstrom
                   Q00  =   0.015133

C          x =  1.381502  y =  1.371219  z = -2.298275 angstrom
           Maximum rank =  0   Radius =  0.650 angstrom
                   Q00  =   0.324256

C          x =  3.008502  y =  1.708219  z = -0.035275 angstrom
           Maximum rank =  0   Radius =  0.650 angstrom
                   Q00  =  -0.138459

C          x =  2.029502  y =  2.587219  z = -2.081275 angstrom
           Maximum rank =  0   Radius =  0.650 angstrom
                   Q00  =  -0.121567

C          x =  2.829502  y =  2.753219  z = -0.944275 angstrom
           Maximum rank =  0   Radius =  0.650 angstrom
                   Q00  =  -0.012602

O          x =  0.589502  y =  1.193219  z = -3.394275 angstrom
           Maximum rank =  0   Radius =  0.650 angstrom
                   Q00  =  -0.680596

H          x =  1.078502  y = -0.630781  z = -1.575275 angstrom
           Maximum rank =  0   Radius =  0.325 angstrom
                   Q00  =   0.071981

H          x =  2.449502  y = -0.314781  z =  0.437725 angstrom
           Maximum rank =  0   Radius =  0.325 angstrom
                   Q00  =   0.067974

H          x =  0.158502  y =  0.332219  z = -3.396275 angstrom
           Maximum rank =  0   Radius =  0.325 angstrom
                   Q00  =   0.410776

H          x =  1.902502  y =  3.396219  z = -2.786275 angstrom
           Maximum rank =  0   Radius =  0.325 angstrom
                   Q00  =   0.082857

H          x =  3.346502  y =  1.398219  z =  2.022725 angstrom
           Maximum rank =  0   Radius =  0.325 angstrom
                   Q00  =   0.092739

H          x =  3.907502  y =  2.956219  z =  1.448725 angstrom
           Maximum rank =  0   Radius =  0.325 angstrom
                   Q00  =   0.098574

H          x =  3.323502  y =  3.700219  z = -0.780275 angstrom
           Maximum rank =  0   Radius =  0.325 angstrom
                   Q00  =   0.065825

H          x =  4.877125  y =  1.505192  z =  1.137685 angstrom
           Maximum rank =  0   Radius =  0.325 angstrom
                   Q00  =   0.100071

C          x = -0.812498  y = -1.093781  z =  3.745725 angstrom
           Maximum rank =  0   Radius =  0.650 angstrom
                   Q00  =  -0.190625

C          x = -1.472498  y = -1.287781  z =  0.000725 angstrom
           Maximum rank =  0   Radius =  0.650 angstrom
                   Q00  =  -0.115298

C          x = -2.794498  y = -1.726781  z = -0.026275 angstrom
           Maximum rank =  0   Radius =  0.650 angstrom
                   Q00  =   0.321667

C          x = -0.835498  y = -1.082781  z =  1.224725 angstrom
           Maximum rank =  0   Radius =  0.650 angstrom
                   Q00  =   0.053717

C          x = -1.511498  y = -1.306781  z =  2.428725 angstrom
           Maximum rank =  0   Radius =  0.650 angstrom
                   Q00  =  -0.142684

C          x = -3.479498  y = -1.966781  z =  1.166725 angstrom
           Maximum rank =  0   Radius =  0.650 angstrom
                   Q00  =  -0.177293

C          x = -2.836498  y = -1.757781  z =  2.387725 angstrom
           Maximum rank =  0   Radius =  0.650 angstrom
                   Q00  =  -0.019395

O          x = -3.420498  y = -1.944781  z = -1.221275 angstrom
           Maximum rank =  0   Radius =  0.650 angstrom
                   Q00  =  -0.688846

H          x = -0.961498  y = -1.107781  z = -0.930275 angstrom
           Maximum rank =  0   Radius =  0.325 angstrom
                   Q00  =   0.052305

H          x =  0.193502  y = -0.749781  z =  1.243725 angstrom
           Maximum rank =  0   Radius =  0.325 angstrom
                   Q00  =   0.061970

H          x = -4.505498  y = -2.305781  z =  1.147725 angstrom
           Maximum rank =  0   Radius =  0.325 angstrom
                   Q00  =   0.072670

H          x = -4.337498  y = -2.217781  z = -1.104275 angstrom
           Maximum rank =  0   Radius =  0.325 angstrom
                   Q00  =   0.408085

H          x = -1.521498  y = -0.694781  z =  4.473725 angstrom
           Maximum rank =  0   Radius =  0.325 angstrom
                   Q00  =   0.097939

H          x = -0.032498  y = -0.344781  z =  3.602725 angstrom
           Maximum rank =  0   Radius =  0.325 angstrom
                   Q00  =   0.095724

H          x = -3.372498  y = -1.935781  z =  3.310725 angstrom
           Maximum rank =  0   Radius =  0.325 angstrom
                   Q00  =   0.069618

H          x = -0.356988  y = -2.013410  z =  4.141696 angstrom
           Maximum rank =  0   Radius =  0.325 angstrom
                   Q00  =   0.099704

Total multipoles referred to origin at
           x =   0.000000,  y =    0.000000,  z =    0.000000 angstrom
                   Q00  =  -0.000000

Finished at 23:55:3 on 26 Apr 2020

  DMA results are available in the Python driver through the
	  variable('DMA DISTRIBUTED MULTIPOLES')
  and
	  variable('DMA TOTAL MULTIPOLES')
  commands.

    Psi4 stopped on: Sunday, 26 April 2020 11:55PM
    Psi4 wall time for execution: 0:21:24.90

*** Psi4 exiting successfully. Buy a developer a beer!
