                               Psi4 1.3.2 release

  ==> Input File <==

--------------------------------------------------------------------------
import numpy as np
set {scf_type pk
basis cc-pvdz
d_convergence 10
gdma_switch   0
gdma_limit    0
gdma_origin   [ 0.0,  0.0,  0.0 ]
}
molecule test {
    units Angstrom
    0 1
    --
    0 1
    C                2.034387760502900     2.099314391368162    -1.269787093816177
    C                2.922387760502900     2.731314391368162    -2.297787093816176
    C                1.296387760502900     2.981314391368162    -0.311787093816177
    H                1.304387760502900     1.478314391368162    -1.787787093816177
    H                2.711387760502900     1.428314391368162    -0.744787093816177
    H                3.246387760502900     1.903314391368162    -2.931787093816177
    H                1.904387760502900     3.843314391368162    -0.135787093816177
    H                0.359387760502900     3.305314391368162    -0.766787093816176
    H                3.818228760502900     3.190854391368162    -1.854737093816176
    H                2.407712760502900     3.435989391368162    -2.967517093816176
    H                1.088850760502900     2.518346391368162     0.664222906183824
    C               -3.380612239497100     0.277314391368162     0.977212906183824
    C               -0.073612239497100    -0.973685608631838    -0.281787093816177
    C               -1.015612239497100    -0.825685608631838     0.765212906183824
    C               -2.153612239497100    -0.120685608631838     0.238212906183823
    C               -1.845612239497100     0.144314391368162    -1.063787093816177
    C                1.142387760502900    -1.615685608631838    -0.110787093816177
    C                1.427387760502900    -2.130685608631838     1.141212906183823
    C               -0.703612239497100    -1.356685608631838     2.025212906183823
    C                0.512387760502900    -2.005685608631838     2.200212906183824
    N               -0.620612239497100    -0.376685608631838    -1.389787093816176
    H               -0.213612239497100    -0.340685608631838    -2.318787093816176
    H                1.839387760502900    -1.720685608631838    -0.932787093816176
    H               -2.495612239497100     0.675314391368162    -1.751787093816177
    H                2.367387760502901    -2.643685608631838     1.307212906183823
    H               -1.400612239497100    -1.257685608631838     2.839212906183824
    H               -3.779612239497100     1.181314391368162     0.514212906183824
    H               -3.032612239497100     0.572314391368162     1.968212906183823
    H                0.760387760502900    -2.418685608631838     3.171212906183823
    H               -4.199512239497100    -0.448840208631838     1.087212906183823

}
e, wfn = energy('scf', return_wfn=True)
gdma(wfn)
dmavals = variable('DMA DISTRIBUTED MULTIPOLES')
charges = np.array(dmavals)
print(charges)
np.save('SSI-030GLN-034TRP-1-dimer.npy', np.array(charges))--------------------------------------------------------------------------

*** tstart() called on ds3
*** at Tue Apr 28 12:02:36 2020

   => Loading Basis Set <=

    Name: CC-PVDZ
    Role: ORBITAL
    Keyword: BASIS
    atoms 1-3, 12-20  entry C          line   138 file /theoryfs2/ds/metcalf/miniconda2/envs/tf2gpu/share/psi4/basis/cc-pvdz.gbs
    atoms 4-11, 22-30 entry H          line    22 file /theoryfs2/ds/metcalf/miniconda2/envs/tf2gpu/share/psi4/basis/cc-pvdz.gbs
    atoms 21          entry N          line   168 file /theoryfs2/ds/metcalf/miniconda2/envs/tf2gpu/share/psi4/basis/cc-pvdz.gbs

         ---------------------------------------------------------
                                   SCF
               by Justin Turney, Rob Parrish, Andy Simmonett
                          and Daniel G. A. Smith
                              RHF Reference
                        1 Threads,    500 MiB Core
         ---------------------------------------------------------

  ==> Geometry <==

    Molecular point group: c1
    Full point group: C1

    Geometry (in Angstrom), charge = 0, multiplicity = 1:

       Center              X                  Y                   Z               Mass
    ------------   -----------------  -----------------  -----------------  -----------------
         C            2.034387760503     2.099314391368    -1.269787093816    12.000000000000
         C            2.922387760503     2.731314391368    -2.297787093816    12.000000000000
         C            1.296387760503     2.981314391368    -0.311787093816    12.000000000000
         H            1.304387760503     1.478314391368    -1.787787093816     1.007825032230
         H            2.711387760503     1.428314391368    -0.744787093816     1.007825032230
         H            3.246387760503     1.903314391368    -2.931787093816     1.007825032230
         H            1.904387760503     3.843314391368    -0.135787093816     1.007825032230
         H            0.359387760503     3.305314391368    -0.766787093816     1.007825032230
         H            3.818228760503     3.190854391368    -1.854737093816     1.007825032230
         H            2.407712760503     3.435989391368    -2.967517093816     1.007825032230
         H            1.088850760503     2.518346391368     0.664222906184     1.007825032230
         C           -3.380612239497     0.277314391368     0.977212906184    12.000000000000
         C           -0.073612239497    -0.973685608632    -0.281787093816    12.000000000000
         C           -1.015612239497    -0.825685608632     0.765212906184    12.000000000000
         C           -2.153612239497    -0.120685608632     0.238212906184    12.000000000000
         C           -1.845612239497     0.144314391368    -1.063787093816    12.000000000000
         C            1.142387760503    -1.615685608632    -0.110787093816    12.000000000000
         C            1.427387760503    -2.130685608632     1.141212906184    12.000000000000
         C           -0.703612239497    -1.356685608632     2.025212906184    12.000000000000
         C            0.512387760503    -2.005685608632     2.200212906184    12.000000000000
         N           -0.620612239497    -0.376685608632    -1.389787093816    14.003074004430
         H           -0.213612239497    -0.340685608632    -2.318787093816     1.007825032230
         H            1.839387760503    -1.720685608632    -0.932787093816     1.007825032230
         H           -2.495612239497     0.675314391368    -1.751787093816     1.007825032230
         H            2.367387760503    -2.643685608632     1.307212906184     1.007825032230
         H           -1.400612239497    -1.257685608632     2.839212906184     1.007825032230
         H           -3.779612239497     1.181314391368     0.514212906184     1.007825032230
         H           -3.032612239497     0.572314391368     1.968212906184     1.007825032230
         H            0.760387760503    -2.418685608632     3.171212906184     1.007825032230
         H           -4.199512239497    -0.448840208632     1.087212906184     1.007825032230

  Running in c1 symmetry.

  Rotational constants: A =      0.03108  B =      0.01671  C =      0.01315 [cm^-1]
  Rotational constants: A =    931.73981  B =    500.96117  C =    394.30467 [MHz]
  Nuclear repulsion =  756.523512594424005

  Charge       = 0
  Multiplicity = 1
  Electrons    = 96
  Nalpha       = 48
  Nbeta        = 48

  ==> Algorithm <==

  SCF Algorithm Type is PK.
  DIIS enabled.
  MOM disabled.
  Fractional occupation disabled.
  Guess Type is SAD.
  Energy threshold   = 1.00e-06
  Density threshold  = 1.00e-10
  Integral threshold = 0.00e+00

  ==> Primary Basis <==

  Basis Set: CC-PVDZ
    Blend: CC-PVDZ
    Number of shells: 129
    Number of basis function: 267
    Number of Cartesian functions: 280
    Spherical Harmonics?: true
    Max angular momentum: 2

  ==> Pre-Iterations <==

   -------------------------------------------------------
    Irrep   Nso     Nmo     Nalpha   Nbeta   Ndocc  Nsocc
   -------------------------------------------------------
     A        267     267       0       0       0       0
   -------------------------------------------------------
    Total     267     267      48      48      48       0
   -------------------------------------------------------

  ==> Integral Setup <==

  Using integral reordering PK algorithm.
  Sizing the integral batches needed.
  Building batch lookup table.
   Calculation information:
      Number of atoms:                  30
      Number of AO shells:             129
      Number of primitives:            371
      Number of atomic orbitals:       280
      Number of basis functions:       267

      Integral cutoff                 1.00e-12
      Number of threads:                 1

	Batch   1 pq = [       0,    9405] index = [             0,44231715] size =     44231715
	Batch   2 pq = [    9405,   13301] index = [      44231715,88464951] size =     44233236
	Batch   3 pq = [   13301,   16290] index = [      88464951,132690195] size =     44225244
	Batch   4 pq = [   16290,   18810] index = [     132690195,176917455] size =     44227260
	Batch   5 pq = [   18810,   21030] index = [     176917455,221140965] size =     44223510
	Batch   6 pq = [   21030,   23037] index = [     221140965,265363203] size =     44222238
	Batch   7 pq = [   23037,   24883] index = [     265363203,309594286] size =     44231083
	Batch   8 pq = [   24883,   26601] index = [     309594286,353819901] size =     44225615
	Batch   9 pq = [   26601,   28214] index = [     353819901,398029005] size =     44209104
	Batch  10 pq = [   28214,   29740] index = [     398029005,442248670] size =     44219665
	Batch  11 pq = [   29740,   31191] index = [     442248670,486454836] size =     44206166
	Batch  12 pq = [   31191,   32578] index = [     486454836,530679331] size =     44224495
	Batch  13 pq = [   32578,   33908] index = [     530679331,574893186] size =     44213855
	Batch  14 pq = [   33908,   35188] index = [     574893186,619115266] size =     44222080
	Batch  15 pq = [   35188,   35778] index = [     619115266,640050531] size =     20935265
  Task number: 58
  Buffer size: 11059200
  Buffer per thread: 2
  We computed 37178520 shell quartets total.
  Whereas there are 35158305 unique shell quartets.
     5.75 percent of shell quartets recomputed by reordering.

  ==> DiskJK: Disk-Based J/K Matrices <==

    J tasked:                  Yes
    K tasked:                  Yes
    wK tasked:                  No
    Memory [MiB]:              375
    Schwarz Cutoff:          1E-12

    OpenMP threads:              1

  Minimum eigenvalue in the overlap matrix is 2.3706650570E-04.
  Using Symmetric Orthogonalization.

  SCF Guess: Superposition of Atomic Densities via on-the-fly atomic UHF.

  ==> Iterations <==

                        Total Energy        Delta E     RMS |[F,P]|

   @RHF iter SAD:  -518.17664639679765   -5.18177e+02   0.00000e+00
   @RHF iter   1:  -518.47794531750242   -3.01299e-01   2.53933e-03 DIIS
   @RHF iter   2:  -518.74216385055411   -2.64219e-01   1.14694e-03 DIIS
   @RHF iter   3:  -518.79156417445824   -4.94003e-02   2.87875e-04 DIIS
   @RHF iter   4:  -518.79577450476563   -4.21033e-03   1.32817e-04 DIIS
   @RHF iter   5:  -518.79647720462242   -7.02700e-04   1.98707e-05 DIIS
   @RHF iter   6:  -518.79650803220102   -3.08276e-05   8.59255e-06 DIIS
   @RHF iter   7:  -518.79651398751128   -5.95531e-06   3.28718e-06 DIIS
   @RHF iter   8:  -518.79651539548433   -1.40797e-06   1.38905e-06 DIIS
   @RHF iter   9:  -518.79651570279736   -3.07313e-07   5.94071e-07 DIIS
   @RHF iter  10:  -518.79651576403739   -6.12400e-08   2.56851e-07 DIIS
   @RHF iter  11:  -518.79651577867139   -1.46340e-08   1.08432e-07 DIIS
   @RHF iter  12:  -518.79651578108962   -2.41823e-09   3.91545e-08 DIIS
   @RHF iter  13:  -518.79651578130586   -2.16232e-10   1.09652e-08 DIIS
   @RHF iter  14:  -518.79651578131904   -1.31877e-11   4.32003e-09 DIIS
   @RHF iter  15:  -518.79651578132996   -1.09139e-11   1.80206e-09 DIIS
   @RHF iter  16:  -518.79651578131825    1.17097e-11   9.05515e-10 DIIS
   @RHF iter  17:  -518.79651578131973   -1.47793e-12   4.30928e-10 DIIS
   @RHF iter  18:  -518.79651578132723   -7.50333e-12   1.68248e-10 DIIS
   @RHF iter  19:  -518.79651578132643    7.95808e-13   6.10574e-11 DIIS
  Energy and wave function converged.

  ==> Post-Iterations <==

    Orbital Energies [Eh]
    ---------------------

    Doubly Occupied:

       1A    -15.602574     2A    -11.264665     3A    -11.263153
       4A    -11.230760     5A    -11.229755     6A    -11.229232
       7A    -11.226395     8A    -11.221882     9A    -11.220780
      10A    -11.217825    11A    -11.215124    12A    -11.210126
      13A    -11.205145    14A     -1.296750    15A     -1.129133
      16A     -1.074857    17A     -1.059566    18A     -0.998526
      19A     -0.987822    20A     -0.932439    21A     -0.929230
      22A     -0.839473    23A     -0.804196    24A     -0.789870
      25A     -0.754116    26A     -0.721210    27A     -0.662522
      28A     -0.641507    29A     -0.628635    30A     -0.605111
      31A     -0.597064    32A     -0.591353    33A     -0.588579
      34A     -0.567418    35A     -0.555273    36A     -0.549026
      37A     -0.538596    38A     -0.535745    39A     -0.525128
      40A     -0.492418    41A     -0.476266    42A     -0.472743
      43A     -0.464804    44A     -0.458316    45A     -0.454251
      46A     -0.372138    47A     -0.296308    48A     -0.275004

    Virtual:

      49A      0.125701    50A      0.163975    51A      0.169643
      52A      0.187619    53A      0.196554    54A      0.200272
      55A      0.216139    56A      0.228352    57A      0.229700
      58A      0.235600    59A      0.249088    60A      0.259386
      61A      0.265276    62A      0.271080    63A      0.274208
      64A      0.281271    65A      0.290519    66A      0.300171
      67A      0.303532    68A      0.337425    69A      0.376459
      70A      0.382854    71A      0.390825    72A      0.408552
      73A      0.421966    74A      0.440365    75A      0.447001
      76A      0.471435    77A      0.480553    78A      0.498742
      79A      0.509319    80A      0.573942    81A      0.592987
      82A      0.598880    83A      0.607118    84A      0.620779
      85A      0.625206    86A      0.635309    87A      0.643288
      88A      0.659691    89A      0.675855    90A      0.694428
      91A      0.711148    92A      0.721061    93A      0.727315
      94A      0.737035    95A      0.741306    96A      0.747771
      97A      0.753450    98A      0.767021    99A      0.774558
     100A      0.775896   101A      0.787241   102A      0.791414
     103A      0.807877   104A      0.823994   105A      0.841405
     106A      0.853035   107A      0.868391   108A      0.875408
     109A      0.883579   110A      0.886741   111A      0.893102
     112A      0.897247   113A      0.901007   114A      0.904333
     115A      0.908624   116A      0.910379   117A      0.916104
     118A      0.926478   119A      0.931771   120A      0.938605
     121A      0.952121   122A      0.959472   123A      0.961466
     124A      0.977693   125A      0.986525   126A      0.997897
     127A      1.003100   128A      1.018340   129A      1.056188
     130A      1.096421   131A      1.113551   132A      1.130285
     133A      1.133291   134A      1.134784   135A      1.139746
     136A      1.157085   137A      1.168707   138A      1.183445
     139A      1.209453   140A      1.224933   141A      1.229222
     142A      1.236977   143A      1.251805   144A      1.256547
     145A      1.288291   146A      1.292623   147A      1.302768
     148A      1.329890   149A      1.332069   150A      1.366152
     151A      1.370035   152A      1.396049   153A      1.419135
     154A      1.445176   155A      1.471575   156A      1.484422
     157A      1.509232   158A      1.517308   159A      1.545483
     160A      1.575819   161A      1.604406   162A      1.620716
     163A      1.643977   164A      1.659107   165A      1.667525
     166A      1.683557   167A      1.690653   168A      1.692532
     169A      1.718031   170A      1.727615   171A      1.742396
     172A      1.765182   173A      1.772885   174A      1.791876
     175A      1.808210   176A      1.817992   177A      1.824130
     178A      1.852665   179A      1.859359   180A      1.878278
     181A      1.885265   182A      1.891809   183A      1.895874
     184A      1.902945   185A      1.918827   186A      1.927138
     187A      1.930254   188A      1.933243   189A      1.943256
     190A      1.954518   191A      1.957467   192A      1.979206
     193A      1.988084   194A      1.994240   195A      2.007179
     196A      2.009440   197A      2.013505   198A      2.016448
     199A      2.026776   200A      2.048523   201A      2.059970
     202A      2.071747   203A      2.084768   204A      2.097053
     205A      2.104111   206A      2.113221   207A      2.118211
     208A      2.122441   209A      2.139214   210A      2.150277
     211A      2.167113   212A      2.172907   213A      2.179257
     214A      2.222233   215A      2.231340   216A      2.262368
     217A      2.267970   218A      2.293903   219A      2.303829
     220A      2.319945   221A      2.328624   222A      2.335236
     223A      2.348223   224A      2.369974   225A      2.374791
     226A      2.401188   227A      2.415920   228A      2.453092
     229A      2.471652   230A      2.488156   231A      2.538045
     232A      2.551319   233A      2.589793   234A      2.598261
     235A      2.612028   236A      2.625129   237A      2.631507
     238A      2.664219   239A      2.675124   240A      2.683708
     241A      2.702664   242A      2.756362   243A      2.765286
     244A      2.768487   245A      2.779148   246A      2.791294
     247A      2.801318   248A      2.816743   249A      2.837360
     250A      2.843084   251A      2.872658   252A      2.897808
     253A      2.914247   254A      2.944699   255A      2.947610
     256A      2.968986   257A      3.004227   258A      3.024879
     259A      3.061624   260A      3.072985   261A      3.092676
     262A      3.122110   263A      3.206786   264A      3.304293
     265A      3.379208   266A      3.746785   267A      3.952187

    Final Occupation by Irrep:
              A
    DOCC [    48 ]

  @RHF Final Energy:  -518.79651578132643

   => Energetics <=

    Nuclear Repulsion Energy =            756.5235125944240053
    One-Electron Energy =               -2202.6344386655382550
    Two-Electron Energy =                 927.3144102897877019
    Total Energy =                       -518.7965157813264341

Computation Completed

Properties will be evaluated at   0.000000,   0.000000,   0.000000 [a0]

Properties computed using the SCF density matrix

  Nuclear Dipole Moment: [e a0]
     X:     6.2700      Y:    13.7842      Z:    -4.3468

  Electronic Dipole Moment: [e a0]
     X:    -6.3675      Y:   -13.6178      Z:     3.6658

  Dipole Moment: [e a0]
     X:    -0.0974      Y:     0.1664      Z:    -0.6810     Total:     0.7077

  Dipole Moment: [D]
     X:    -0.2476      Y:     0.4229      Z:    -1.7309     Total:     1.7989

*** tstop() called on ds3 at Tue Apr 28 12:09:46 2020
Module time:
	user time   =     293.11 seconds =       4.89 minutes
	system time =     103.28 seconds =       1.72 minutes
	total time  =        430 seconds =       7.17 minutes
Total time:
	user time   =     293.11 seconds =       4.89 minutes
	system time =     103.28 seconds =       1.72 minutes
	total time  =        430 seconds =       7.17 minutes
                                     G D M A

                                 by Anthony Stone

                           version 2.2.06, 22 June 2011

               Distributed Multipoles from Gaussian wavefunctions

Starting at 12:9:46 on 28 Apr 2020

Using SCF density matrix from file ./SSI/SSI-030GLN-034TRP-1-dimer.test.31828.fchk

                         Distributed Multipole Analysis

Standard DMA

Positions and radii in angstrom
Multipole moments in atomic units, ea_0^k for rank k

C          x =  2.034388  y =  2.099314  z = -1.269787 angstrom
           Maximum rank =  0   Radius =  0.650 angstrom
                   Q00  =  -0.069930

C          x =  2.922388  y =  2.731314  z = -2.297787 angstrom
           Maximum rank =  0   Radius =  0.650 angstrom
                   Q00  =  -0.250842

C          x =  1.296388  y =  2.981314  z = -0.311787 angstrom
           Maximum rank =  0   Radius =  0.650 angstrom
                   Q00  =  -0.211596

H          x =  1.304388  y =  1.478314  z = -1.787787 angstrom
           Maximum rank =  0   Radius =  0.325 angstrom
                   Q00  =   0.016060

H          x =  2.711388  y =  1.428314  z = -0.744787 angstrom
           Maximum rank =  0   Radius =  0.325 angstrom
                   Q00  =   0.039461

H          x =  3.246388  y =  1.903314  z = -2.931787 angstrom
           Maximum rank =  0   Radius =  0.325 angstrom
                   Q00  =   0.075063

H          x =  1.904388  y =  3.843314  z = -0.135787 angstrom
           Maximum rank =  0   Radius =  0.325 angstrom
                   Q00  =   0.067927

H          x =  0.359388  y =  3.305314  z = -0.766787 angstrom
           Maximum rank =  0   Radius =  0.325 angstrom
                   Q00  =   0.078968

H          x =  3.818229  y =  3.190854  z = -1.854737 angstrom
           Maximum rank =  0   Radius =  0.325 angstrom
                   Q00  =   0.081110

H          x =  2.407713  y =  3.435989  z = -2.967517 angstrom
           Maximum rank =  0   Radius =  0.325 angstrom
                   Q00  =   0.070299

H          x =  1.088851  y =  2.518346  z =  0.664223 angstrom
           Maximum rank =  0   Radius =  0.325 angstrom
                   Q00  =   0.095793

C          x = -3.380612  y =  0.277314  z =  0.977213 angstrom
           Maximum rank =  0   Radius =  0.650 angstrom
                   Q00  =  -0.209699

C          x = -0.073612  y = -0.973686  z = -0.281787 angstrom
           Maximum rank =  0   Radius =  0.650 angstrom
                   Q00  =   0.290441

C          x = -1.015612  y = -0.825686  z =  0.765213 angstrom
           Maximum rank =  0   Radius =  0.650 angstrom
                   Q00  =  -0.053013

C          x = -2.153612  y = -0.120686  z =  0.238213 angstrom
           Maximum rank =  0   Radius =  0.650 angstrom
                   Q00  =  -0.120919

C          x = -1.845612  y =  0.144314  z = -1.063787 angstrom
           Maximum rank =  0   Radius =  0.650 angstrom
                   Q00  =   0.070328

C          x =  1.142388  y = -1.615686  z = -0.110787 angstrom
           Maximum rank =  0   Radius =  0.650 angstrom
                   Q00  =  -0.116204

C          x =  1.427388  y = -2.130686  z =  1.141213 angstrom
           Maximum rank =  0   Radius =  0.650 angstrom
                   Q00  =  -0.080359

C          x = -0.703612  y = -1.356686  z =  2.025213 angstrom
           Maximum rank =  0   Radius =  0.650 angstrom
                   Q00  =  -0.099009

C          x =  0.512388  y = -2.005686  z =  2.200213 angstrom
           Maximum rank =  0   Radius =  0.650 angstrom
                   Q00  =  -0.077763

N          x = -0.620612  y = -0.376686  z = -1.389787 angstrom
           Maximum rank =  0   Radius =  0.650 angstrom
                   Q00  =  -0.487358

H          x = -0.213612  y = -0.340686  z = -2.318787 angstrom
           Maximum rank =  0   Radius =  0.325 angstrom
                   Q00  =   0.220753

H          x =  1.839388  y = -1.720686  z = -0.932787 angstrom
           Maximum rank =  0   Radius =  0.325 angstrom
                   Q00  =   0.073570

H          x = -2.495612  y =  0.675314  z = -1.751787 angstrom
           Maximum rank =  0   Radius =  0.325 angstrom
                   Q00  =   0.098911

H          x =  2.367388  y = -2.643686  z =  1.307213 angstrom
           Maximum rank =  0   Radius =  0.325 angstrom
                   Q00  =   0.065031

H          x = -1.400612  y = -1.257686  z =  2.839213 angstrom
           Maximum rank =  0   Radius =  0.325 angstrom
                   Q00  =   0.070132

H          x = -3.779612  y =  1.181314  z =  0.514213 angstrom
           Maximum rank =  0   Radius =  0.325 angstrom
                   Q00  =   0.102842

H          x = -3.032612  y =  0.572314  z =  1.968213 angstrom
           Maximum rank =  0   Radius =  0.325 angstrom
                   Q00  =   0.098522

H          x =  0.760388  y = -2.418686  z =  3.171213 angstrom
           Maximum rank =  0   Radius =  0.325 angstrom
                   Q00  =   0.060453

H          x = -4.199512  y = -0.448840  z =  1.087213 angstrom
           Maximum rank =  0   Radius =  0.325 angstrom
                   Q00  =   0.101029

Total multipoles referred to origin at
           x =   0.000000,  y =    0.000000,  z =    0.000000 angstrom
                   Q00  =  -0.000000

Finished at 12:9:46 on 28 Apr 2020

  DMA results are available in the Python driver through the
	  variable('DMA DISTRIBUTED MULTIPOLES')
  and
	  variable('DMA TOTAL MULTIPOLES')
  commands.

    Psi4 stopped on: Tuesday, 28 April 2020 12:09PM
    Psi4 wall time for execution: 0:07:10.03

*** Psi4 exiting successfully. Buy a developer a beer!
