                               Psi4 1.3.2 release

  ==> Input File <==

--------------------------------------------------------------------------
import numpy as np
set {scf_type pk
basis cc-pvdz
d_convergence 10
gdma_switch   0
gdma_limit    0
gdma_origin   [ 0.0,  0.0,  0.0 ]
}
molecule test {
    units Angstrom
    0 1
    --
    0 1
    C                0.157473308828494    -0.621052952561741    -1.001481892497952
    C               -0.080526691171506    -1.609052952561741    -2.129481892497953
    C               -1.054526691171506    -0.399052952561741    -0.152481892497952
    C               -2.001526691171506     0.554947047438259    -0.548481892497952
    C               -1.283526691171506    -1.144052952561741     0.992518107502048
    C               -3.126526691171506     0.808947047438259     0.217518107502048
    C               -2.433526691171506    -0.913052952561741     1.767518107502048
    C               -3.354526691171506     0.078947047438259     1.374518107502048
    H                0.965473308828494    -0.988052952561741    -0.370481892497952
    H                0.472473308828494     0.331947047438259    -1.427481892497952
    H               -0.861526691171506    -1.205052952561741    -2.772481892497952
    H               -1.840526691171506     1.120947047438259    -1.455481892497952
    H               -0.573526691171506    -1.900052952561741     1.297518107502048
    H               -3.839526691171506     1.558947047438259    -0.092481892497952
    H               -2.607526691171506    -1.489052952561741     2.666518107502048
    H               -4.236526691171505     0.265947047438259     1.971518107502048
    H               -0.346226691171506    -2.616422952561741    -1.776481892497952
    H                0.831453308828494    -1.721872952561741    -2.734091892497953
    C                3.272473308828494     1.095947047438259    -0.009481892497952
    C                4.297473308828494     2.242947047438259     0.162518107502048
    C                3.979473308828494    -0.228052952561741    -0.246481892497952
    H                2.652473308828494     1.024947047438259     0.884518107502048
    H                2.619473308828494     1.269947047438259    -0.862481892497952
    H                5.100473308828494     2.080947047438259    -0.559481892497952
    H                4.692473308828496    -0.429052952561741     0.549518107502048
    H                3.252473308828495    -1.038052952561741    -0.282481892497952
    H                4.514473308828495    -0.196052952561741    -1.195481892497952
    H                3.826203308828494     3.206787047438259    -0.080211892497952
    H                4.759803308828495     2.301887047438259     1.158898107502048

}
e, wfn = energy('scf', return_wfn=True)
gdma(wfn)
dmavals = variable('DMA DISTRIBUTED MULTIPOLES')
charges = np.array(dmavals)
print(charges)
np.save('SSI-022PHE-027ILE-1-dimer.npy', np.array(charges))--------------------------------------------------------------------------

*** tstart() called on ds3
*** at Mon Apr 27 08:14:14 2020

   => Loading Basis Set <=

    Name: CC-PVDZ
    Role: ORBITAL
    Keyword: BASIS
    atoms 1-8, 19-21  entry C          line   138 file /theoryfs2/ds/metcalf/miniconda2/envs/tf2gpu/share/psi4/basis/cc-pvdz.gbs
    atoms 9-18, 22-29 entry H          line    22 file /theoryfs2/ds/metcalf/miniconda2/envs/tf2gpu/share/psi4/basis/cc-pvdz.gbs

         ---------------------------------------------------------
                                   SCF
               by Justin Turney, Rob Parrish, Andy Simmonett
                          and Daniel G. A. Smith
                              RHF Reference
                        1 Threads,    500 MiB Core
         ---------------------------------------------------------

  ==> Geometry <==

    Molecular point group: c1
    Full point group: C1

    Geometry (in Angstrom), charge = 0, multiplicity = 1:

       Center              X                  Y                   Z               Mass
    ------------   -----------------  -----------------  -----------------  -----------------
         C            0.157473308828    -0.621052952562    -1.001481892498    12.000000000000
         C           -0.080526691172    -1.609052952562    -2.129481892498    12.000000000000
         C           -1.054526691172    -0.399052952562    -0.152481892498    12.000000000000
         C           -2.001526691172     0.554947047438    -0.548481892498    12.000000000000
         C           -1.283526691172    -1.144052952562     0.992518107502    12.000000000000
         C           -3.126526691172     0.808947047438     0.217518107502    12.000000000000
         C           -2.433526691172    -0.913052952562     1.767518107502    12.000000000000
         C           -3.354526691172     0.078947047438     1.374518107502    12.000000000000
         H            0.965473308828    -0.988052952562    -0.370481892498     1.007825032230
         H            0.472473308828     0.331947047438    -1.427481892498     1.007825032230
         H           -0.861526691172    -1.205052952562    -2.772481892498     1.007825032230
         H           -1.840526691172     1.120947047438    -1.455481892498     1.007825032230
         H           -0.573526691172    -1.900052952562     1.297518107502     1.007825032230
         H           -3.839526691172     1.558947047438    -0.092481892498     1.007825032230
         H           -2.607526691172    -1.489052952562     2.666518107502     1.007825032230
         H           -4.236526691172     0.265947047438     1.971518107502     1.007825032230
         H           -0.346226691172    -2.616422952562    -1.776481892498     1.007825032230
         H            0.831453308828    -1.721872952562    -2.734091892498     1.007825032230
         C            3.272473308828     1.095947047438    -0.009481892498    12.000000000000
         C            4.297473308828     2.242947047438     0.162518107502    12.000000000000
         C            3.979473308828    -0.228052952562    -0.246481892498    12.000000000000
         H            2.652473308828     1.024947047438     0.884518107502     1.007825032230
         H            2.619473308828     1.269947047438    -0.862481892498     1.007825032230
         H            5.100473308828     2.080947047438    -0.559481892498     1.007825032230
         H            4.692473308828    -0.429052952562     0.549518107502     1.007825032230
         H            3.252473308828    -1.038052952562    -0.282481892498     1.007825032230
         H            4.514473308828    -0.196052952562    -1.195481892498     1.007825032230
         H            3.826203308828     3.206787047438    -0.080211892498     1.007825032230
         H            4.759803308828     2.301887047438     1.158898107502     1.007825032230

  Running in c1 symmetry.

  Rotational constants: A =      0.05091  B =      0.01310  C =      0.01213 [cm^-1]
  Rotational constants: A =   1526.27111  B =    392.68444  C =    363.77971 [MHz]
  Nuclear repulsion =  563.542211870910251

  Charge       = 0
  Multiplicity = 1
  Electrons    = 84
  Nalpha       = 42
  Nbeta        = 42

  ==> Algorithm <==

  SCF Algorithm Type is PK.
  DIIS enabled.
  MOM disabled.
  Fractional occupation disabled.
  Guess Type is SAD.
  Energy threshold   = 1.00e-06
  Density threshold  = 1.00e-10
  Integral threshold = 0.00e+00

  ==> Primary Basis <==

  Basis Set: CC-PVDZ
    Blend: CC-PVDZ
    Number of shells: 120
    Number of basis function: 244
    Number of Cartesian functions: 255
    Spherical Harmonics?: true
    Max angular momentum: 2

  ==> Pre-Iterations <==

   -------------------------------------------------------
    Irrep   Nso     Nmo     Nalpha   Nbeta   Ndocc  Nsocc
   -------------------------------------------------------
     A        244     244       0       0       0       0
   -------------------------------------------------------
    Total     244     244      42      42      42       0
   -------------------------------------------------------

  ==> Integral Setup <==

  Using integral reordering PK algorithm.
  Sizing the integral batches needed.
  Building batch lookup table.
   Calculation information:
      Number of atoms:                  29
      Number of AO shells:             120
      Number of primitives:            332
      Number of atomic orbitals:       255
      Number of basis functions:       244

      Integral cutoff                 1.00e-12
      Number of threads:                 1

	Batch   1 pq = [       0,    9405] index = [             0,44231715] size =     44231715
	Batch   2 pq = [    9405,   13301] index = [      44231715,88464951] size =     44233236
	Batch   3 pq = [   13301,   16290] index = [      88464951,132690195] size =     44225244
	Batch   4 pq = [   16290,   18810] index = [     132690195,176917455] size =     44227260
	Batch   5 pq = [   18810,   21030] index = [     176917455,221140965] size =     44223510
	Batch   6 pq = [   21030,   23037] index = [     221140965,265363203] size =     44222238
	Batch   7 pq = [   23037,   24883] index = [     265363203,309594286] size =     44231083
	Batch   8 pq = [   24883,   26601] index = [     309594286,353819901] size =     44225615
	Batch   9 pq = [   26601,   28214] index = [     353819901,398029005] size =     44209104
	Batch  10 pq = [   28214,   29740] index = [     398029005,442248670] size =     44219665
	Batch  11 pq = [   29740,   29890] index = [     442248670,446720995] size =      4472325
  Task number: 41
  Buffer size: 11059200
  Buffer per thread: 2
  We computed 22848397 shell quartets total.
  Whereas there are 26357430 unique shell quartets.

  ==> DiskJK: Disk-Based J/K Matrices <==

    J tasked:                  Yes
    K tasked:                  Yes
    wK tasked:                  No
    Memory [MiB]:              375
    Schwarz Cutoff:          1E-12

    OpenMP threads:              1

  Minimum eigenvalue in the overlap matrix is 3.1745187649E-04.
  Using Symmetric Orthogonalization.

  SCF Guess: Superposition of Atomic Densities via on-the-fly atomic UHF.

  ==> Iterations <==

                        Total Energy        Delta E     RMS |[F,P]|

   @RHF iter SAD:  -425.89279502659213   -4.25893e+02   0.00000e+00
   @RHF iter   1:  -426.77945406148160   -8.86659e-01   2.60532e-03 DIIS
   @RHF iter   2:  -427.02064189505518   -2.41188e-01   1.10019e-03 DIIS
   @RHF iter   3:  -427.05991777505739   -3.92759e-02   2.41608e-04 DIIS
   @RHF iter   4:  -427.06316858789501   -3.25081e-03   5.99889e-05 DIIS
   @RHF iter   5:  -427.06330006076166   -1.31473e-04   1.99511e-05 DIIS
   @RHF iter   6:  -427.06331575013115   -1.56894e-05   4.23048e-06 DIIS
   @RHF iter   7:  -427.06331665794090   -9.07810e-07   1.13676e-06 DIIS
   @RHF iter   8:  -427.06331673937495   -8.14341e-08   3.82168e-07 DIIS
   @RHF iter   9:  -427.06331675747941   -1.81045e-08   1.85972e-07 DIIS
   @RHF iter  10:  -427.06331676308565   -5.60624e-09   9.63545e-08 DIIS
   @RHF iter  11:  -427.06331676468460   -1.59895e-09   3.33240e-08 DIIS
   @RHF iter  12:  -427.06331676484024   -1.55637e-10   1.34879e-08 DIIS
   @RHF iter  13:  -427.06331676485541   -1.51772e-11   4.58491e-09 DIIS
   @RHF iter  14:  -427.06331676485752   -2.10321e-12   1.37804e-09 DIIS
   @RHF iter  15:  -427.06331676485701    5.11591e-13   5.33335e-10 DIIS
   @RHF iter  16:  -427.06331676485684    1.70530e-13   2.47043e-10 DIIS
   @RHF iter  17:  -427.06331676485684    0.00000e+00   1.00308e-10 DIIS
   @RHF iter  18:  -427.06331676485939   -2.55795e-12   3.66357e-11 DIIS
  Energy and wave function converged.

  ==> Post-Iterations <==

    Orbital Energies [Eh]
    ---------------------

    Doubly Occupied:

       1A    -11.238788     2A    -11.236321     3A    -11.233958
       4A    -11.232293     5A    -11.231523     6A    -11.229486
       7A    -11.227016     8A    -11.222413     9A    -11.220362
      10A    -11.218174    11A    -11.214238    12A     -1.152842
      13A     -1.065058    14A     -1.053003    15A     -1.010433
      16A     -0.981242    17A     -0.922757    18A     -0.861775
      19A     -0.824761    20A     -0.799922    21A     -0.784909
      22A     -0.689848    23A     -0.641519    24A     -0.635166
      25A     -0.624771    26A     -0.598420    27A     -0.589148
      28A     -0.585753    29A     -0.576861    30A     -0.548319
      31A     -0.544404    32A     -0.530459    33A     -0.515818
      34A     -0.499651    35A     -0.482929    36A     -0.478065
      37A     -0.472573    38A     -0.471060    39A     -0.467516
      40A     -0.462667    41A     -0.331982    42A     -0.319679

    Virtual:

      43A      0.134404    44A      0.140408    45A      0.171946
      46A      0.189201    47A      0.203317    48A      0.204881
      49A      0.224375    50A      0.227844    51A      0.232459
      52A      0.244778    53A      0.247737    54A      0.260146
      55A      0.263704    56A      0.273328    57A      0.282371
      58A      0.296542    59A      0.299242    60A      0.302986
      61A      0.336345    62A      0.347256    63A      0.355443
      64A      0.386584    65A      0.405784    66A      0.423422
      67A      0.440162    68A      0.450819    69A      0.472440
      70A      0.491351    71A      0.504649    72A      0.569212
      73A      0.575954    74A      0.591589    75A      0.600238
      76A      0.602346    77A      0.620155    78A      0.623603
      79A      0.633539    80A      0.653094    81A      0.681178
      82A      0.692969    83A      0.712199    84A      0.718355
      85A      0.731483    86A      0.739705    87A      0.746609
      88A      0.753067    89A      0.763277    90A      0.764359
      91A      0.784466    92A      0.799032    93A      0.811201
      94A      0.830543    95A      0.837505    96A      0.857053
      97A      0.865928    98A      0.872167    99A      0.873823
     100A      0.886057   101A      0.890942   102A      0.893347
     103A      0.897184   104A      0.901387   105A      0.905650
     106A      0.912265   107A      0.920935   108A      0.922837
     109A      0.928508   110A      0.941421   111A      0.947171
     112A      0.955654   113A      0.961313   114A      0.973574
     115A      0.983644   116A      0.998077   117A      1.012567
     118A      1.014094   119A      1.051612   120A      1.102290
     121A      1.112644   122A      1.123122   123A      1.129711
     124A      1.142381   125A      1.144998   126A      1.165516
     127A      1.184166   128A      1.212653   129A      1.223509
     130A      1.244394   131A      1.247581   132A      1.252654
     133A      1.291212   134A      1.300413   135A      1.311726
     136A      1.323068   137A      1.376986   138A      1.417782
     139A      1.423967   140A      1.438553   141A      1.443073
     142A      1.479636   143A      1.511878   144A      1.535736
     145A      1.556800   146A      1.593054   147A      1.618429
     148A      1.654740   149A      1.677706   150A      1.683440
     151A      1.689396   152A      1.708687   153A      1.723192
     154A      1.735250   155A      1.742649   156A      1.761874
     157A      1.775636   158A      1.844933   159A      1.850355
     160A      1.853629   161A      1.857569   162A      1.869371
     163A      1.873987   164A      1.884324   165A      1.898792
     166A      1.903005   167A      1.906460   168A      1.918179
     169A      1.920847   170A      1.924261   171A      1.931292
     172A      1.942503   173A      1.950295   174A      1.951654
     175A      1.957552   176A      1.966055   177A      1.971645
     178A      1.984730   179A      1.989696   180A      1.993958
     181A      2.003957   182A      2.008585   183A      2.025650
     184A      2.029745   185A      2.053168   186A      2.056637
     187A      2.070100   188A      2.072033   189A      2.108093
     190A      2.132437   191A      2.148093   192A      2.153408
     193A      2.157363   194A      2.159934   195A      2.170576
     196A      2.173044   197A      2.189629   198A      2.236947
     199A      2.248880   200A      2.273857   201A      2.283939
     202A      2.303019   203A      2.309437   204A      2.317442
     205A      2.322176   206A      2.339878   207A      2.365355
     208A      2.404110   209A      2.458875   210A      2.465151
     211A      2.481494   212A      2.501097   213A      2.510245
     214A      2.539343   215A      2.549473   216A      2.571562
     217A      2.584622   218A      2.608540   219A      2.644635
     220A      2.654305   221A      2.741132   222A      2.752598
     223A      2.758771   224A      2.769612   225A      2.775697
     226A      2.782662   227A      2.795459   228A      2.801489
     229A      2.842112   230A      2.852241   231A      2.877177
     232A      2.900948   233A      2.927093   234A      2.955623
     235A      2.972849   236A      2.982334   237A      2.991504
     238A      3.026103   239A      3.050368   240A      3.068633
     241A      3.195053   242A      3.200034   243A      3.304700
     244A      3.960961

    Final Occupation by Irrep:
              A
    DOCC [    42 ]

  @RHF Final Energy:  -427.06331676485939

   => Energetics <=

    Nuclear Repulsion Energy =            563.5422118709102506
    One-Electron Energy =               -1693.1552937832020689
    Two-Electron Energy =                 702.5497651474323675
    Total Energy =                       -427.0633167648594508

Computation Completed

Properties will be evaluated at   0.000000,   0.000000,   0.000000 [a0]

Properties computed using the SCF density matrix

  Nuclear Dipole Moment: [e a0]
     X:    18.1699      Y:     1.4799      Z:    -4.7629

  Electronic Dipole Moment: [e a0]
     X:   -18.1064      Y:    -1.4964      Z:     4.6889

  Dipole Moment: [e a0]
     X:     0.0635      Y:    -0.0165      Z:    -0.0741     Total:     0.0990

  Dipole Moment: [D]
     X:     0.1614      Y:    -0.0420      Z:    -0.1883     Total:     0.2515

*** tstop() called on ds3 at Mon Apr 27 08:24:24 2020
Module time:
	user time   =     159.36 seconds =       2.66 minutes
	system time =      72.79 seconds =       1.21 minutes
	total time  =        610 seconds =      10.17 minutes
Total time:
	user time   =     159.36 seconds =       2.66 minutes
	system time =      72.79 seconds =       1.21 minutes
	total time  =        610 seconds =      10.17 minutes
                                     G D M A

                                 by Anthony Stone

                           version 2.2.06, 22 June 2011

               Distributed Multipoles from Gaussian wavefunctions

Starting at 8:24:24 on 27 Apr 2020

Using SCF density matrix from file ./SSI/SSI-022PHE-027ILE-1-dimer.test.782.fchk

                         Distributed Multipole Analysis

Standard DMA

Positions and radii in angstrom
Multipole moments in atomic units, ea_0^k for rank k

C          x =  0.157473  y = -0.621053  z = -1.001482 angstrom
           Maximum rank =  0   Radius =  0.650 angstrom
                   Q00  =  -0.024800

C          x = -0.080527  y = -1.609053  z = -2.129482 angstrom
           Maximum rank =  0   Radius =  0.650 angstrom
                   Q00  =  -0.238336

C          x = -1.054527  y = -0.399053  z = -0.152482 angstrom
           Maximum rank =  0   Radius =  0.650 angstrom
                   Q00  =  -0.107218

C          x = -2.001527  y =  0.554947  z = -0.548482 angstrom
           Maximum rank =  0   Radius =  0.650 angstrom
                   Q00  =   0.004772

C          x = -1.283527  y = -1.144053  z =  0.992518 angstrom
           Maximum rank =  0   Radius =  0.650 angstrom
                   Q00  =  -0.089474

C          x = -3.126527  y =  0.808947  z =  0.217518 angstrom
           Maximum rank =  0   Radius =  0.650 angstrom
                   Q00  =  -0.078466

C          x = -2.433527  y = -0.913053  z =  1.767518 angstrom
           Maximum rank =  0   Radius =  0.650 angstrom
                   Q00  =  -0.058440

C          x = -3.354527  y =  0.078947  z =  1.374518 angstrom
           Maximum rank =  0   Radius =  0.650 angstrom
                   Q00  =  -0.090642

H          x =  0.965473  y = -0.988053  z = -0.370482 angstrom
           Maximum rank =  0   Radius =  0.325 angstrom
                   Q00  =   0.065014

H          x =  0.472473  y =  0.331947  z = -1.427482 angstrom
           Maximum rank =  0   Radius =  0.325 angstrom
                   Q00  =   0.065810

H          x = -0.861527  y = -1.205053  z = -2.772482 angstrom
           Maximum rank =  0   Radius =  0.325 angstrom
                   Q00  =   0.082607

H          x = -1.840527  y =  1.120947  z = -1.455482 angstrom
           Maximum rank =  0   Radius =  0.325 angstrom
                   Q00  =   0.053320

H          x = -0.573527  y = -1.900053  z =  1.297518 angstrom
           Maximum rank =  0   Radius =  0.325 angstrom
                   Q00  =   0.057202

H          x = -3.839527  y =  1.558947  z = -0.092482 angstrom
           Maximum rank =  0   Radius =  0.325 angstrom
                   Q00  =   0.063720

H          x = -2.607527  y = -1.489053  z =  2.666518 angstrom
           Maximum rank =  0   Radius =  0.325 angstrom
                   Q00  =   0.068531

H          x = -4.236527  y =  0.265947  z =  1.971518 angstrom
           Maximum rank =  0   Radius =  0.325 angstrom
                   Q00  =   0.063157

H          x = -0.346227  y = -2.616423  z = -1.776482 angstrom
           Maximum rank =  0   Radius =  0.325 angstrom
                   Q00  =   0.085246

H          x =  0.831453  y = -1.721873  z = -2.734092 angstrom
           Maximum rank =  0   Radius =  0.325 angstrom
                   Q00  =   0.077723

C          x =  3.272473  y =  1.095947  z = -0.009482 angstrom
           Maximum rank =  0   Radius =  0.650 angstrom
                   Q00  =  -0.081318

C          x =  4.297473  y =  2.242947  z =  0.162518 angstrom
           Maximum rank =  0   Radius =  0.650 angstrom
                   Q00  =  -0.250755

C          x =  3.979473  y = -0.228053  z = -0.246482 angstrom
           Maximum rank =  0   Radius =  0.650 angstrom
                   Q00  =  -0.242210

H          x =  2.652473  y =  1.024947  z =  0.884518 angstrom
           Maximum rank =  0   Radius =  0.325 angstrom
                   Q00  =   0.052975

H          x =  2.619473  y =  1.269947  z = -0.862482 angstrom
           Maximum rank =  0   Radius =  0.325 angstrom
                   Q00  =   0.050138

H          x =  5.100473  y =  2.080947  z = -0.559482 angstrom
           Maximum rank =  0   Radius =  0.325 angstrom
                   Q00  =   0.071012

H          x =  4.692473  y = -0.429053  z =  0.549518 angstrom
           Maximum rank =  0   Radius =  0.325 angstrom
                   Q00  =   0.075957

H          x =  3.252473  y = -1.038053  z = -0.282482 angstrom
           Maximum rank =  0   Radius =  0.325 angstrom
                   Q00  =   0.079221

H          x =  4.514473  y = -0.196053  z = -1.195482 angstrom
           Maximum rank =  0   Radius =  0.325 angstrom
                   Q00  =   0.075545

H          x =  3.826203  y =  3.206787  z = -0.080212 angstrom
           Maximum rank =  0   Radius =  0.325 angstrom
                   Q00  =   0.083251

H          x =  4.759803  y =  2.301887  z =  1.158898 angstrom
           Maximum rank =  0   Radius =  0.325 angstrom
                   Q00  =   0.086458

Total multipoles referred to origin at
           x =   0.000000,  y =    0.000000,  z =    0.000000 angstrom
                   Q00  =  -0.000000

Finished at 8:24:24 on 27 Apr 2020

  DMA results are available in the Python driver through the
	  variable('DMA DISTRIBUTED MULTIPOLES')
  and
	  variable('DMA TOTAL MULTIPOLES')
  commands.

    Psi4 stopped on: Monday, 27 April 2020 08:24AM
    Psi4 wall time for execution: 0:10:10.54

*** Psi4 exiting successfully. Buy a developer a beer!
