                               Psi4 1.3.2 release

  ==> Input File <==

--------------------------------------------------------------------------
import numpy as np
set {scf_type pk
basis cc-pvdz
d_convergence 10
gdma_switch   0
gdma_limit    0
gdma_origin   [ 0.0,  0.0,  0.0 ]
}
molecule test {
    units Angstrom
    0 1
    --
    0 1
    C                1.321836683011133    -0.763827485404183    -0.440833080370555
    C                2.063836683011133    -2.093827485404183    -0.355833080370555
    C                2.052836683011133     0.371172514595817     0.219166919629445
    C                2.704836683011133     1.324172514595817    -0.563833080370555
    C                2.136836683011133     0.451172514595817     1.621166919629445
    C                3.444836683011133     2.349172514595817     0.031166919629445
    C                2.873836683011133     1.472172514595817     2.229166919629445
    C                3.535836683011133     2.428172514595817     1.434166919629445
    H                1.113836683011133    -0.523827485404183    -1.484833080370555
    H                0.365836683011133    -0.859827485404183     0.072166919629445
    H                2.256836683011133    -2.247827485404183     0.702166919629445
    H                2.587836683011133     1.281172514595817    -1.632833080370555
    H                1.642836683011133    -0.288827485404183     2.230166919629445
    H                3.933836683011133     3.091172514595817    -0.584833080370555
    H                2.939836683011133     1.520172514595817     3.308166919629445
    H                4.107836683011134     3.221172514595817     1.898166919629445
    H                3.010406683011134    -2.050557485404183    -0.914513080370555
    H                1.430516683011133    -2.934397485404183    -0.675743080370555
    C               -4.244163316988867    -2.783827485404183    -0.465833080370555
    C               -2.238163316988866    -1.196827485404183    -0.982833080370555
    C               -3.498163316988867    -1.470827485404183    -0.550833080370555
    C               -3.234163316988867     0.719172514595817    -0.558833080370555
    N               -2.098163316988867     0.176172514595817    -0.976833080370555
    N               -4.102163316988867    -0.254827485404183    -0.291833080370555
    H               -1.525163316988867    -1.909827485404183    -1.361833080370555
    H               -1.285163316988867     0.718172514595817    -1.267833080370555
    H               -4.702163316988866    -2.943827485404183    -1.443833080370555
    H               -5.056163316988866    -2.690827485404183     0.257166919629445
    H               -3.429163316988867     1.783172514595817    -0.488833080370555
    H               -3.638023316988867    -3.670167485404183    -0.227093080370555

}
e, wfn = energy('scf', return_wfn=True)
gdma(wfn)
dmavals = variable('DMA DISTRIBUTED MULTIPOLES')
charges = np.array(dmavals)
print(charges)
np.save('SSI-037PHE-048HIE-1-dimer.npy', np.array(charges))--------------------------------------------------------------------------

*** tstart() called on ds3
*** at Mon Apr 27 13:28:09 2020

   => Loading Basis Set <=

    Name: CC-PVDZ
    Role: ORBITAL
    Keyword: BASIS
    atoms 1-8, 19-22  entry C          line   138 file /theoryfs2/ds/metcalf/miniconda2/envs/tf2gpu/share/psi4/basis/cc-pvdz.gbs
    atoms 9-18, 25-30 entry H          line    22 file /theoryfs2/ds/metcalf/miniconda2/envs/tf2gpu/share/psi4/basis/cc-pvdz.gbs
    atoms 23-24       entry N          line   168 file /theoryfs2/ds/metcalf/miniconda2/envs/tf2gpu/share/psi4/basis/cc-pvdz.gbs

         ---------------------------------------------------------
                                   SCF
               by Justin Turney, Rob Parrish, Andy Simmonett
                          and Daniel G. A. Smith
                              RHF Reference
                        1 Threads,    500 MiB Core
         ---------------------------------------------------------

  ==> Geometry <==

    Molecular point group: c1
    Full point group: C1

    Geometry (in Angstrom), charge = 0, multiplicity = 1:

       Center              X                  Y                   Z               Mass
    ------------   -----------------  -----------------  -----------------  -----------------
         C            1.321836683011    -0.763827485404    -0.440833080371    12.000000000000
         C            2.063836683011    -2.093827485404    -0.355833080371    12.000000000000
         C            2.052836683011     0.371172514596     0.219166919629    12.000000000000
         C            2.704836683011     1.324172514596    -0.563833080371    12.000000000000
         C            2.136836683011     0.451172514596     1.621166919629    12.000000000000
         C            3.444836683011     2.349172514596     0.031166919629    12.000000000000
         C            2.873836683011     1.472172514596     2.229166919629    12.000000000000
         C            3.535836683011     2.428172514596     1.434166919629    12.000000000000
         H            1.113836683011    -0.523827485404    -1.484833080371     1.007825032230
         H            0.365836683011    -0.859827485404     0.072166919629     1.007825032230
         H            2.256836683011    -2.247827485404     0.702166919629     1.007825032230
         H            2.587836683011     1.281172514596    -1.632833080371     1.007825032230
         H            1.642836683011    -0.288827485404     2.230166919629     1.007825032230
         H            3.933836683011     3.091172514596    -0.584833080371     1.007825032230
         H            2.939836683011     1.520172514596     3.308166919629     1.007825032230
         H            4.107836683011     3.221172514596     1.898166919629     1.007825032230
         H            3.010406683011    -2.050557485404    -0.914513080371     1.007825032230
         H            1.430516683011    -2.934397485404    -0.675743080371     1.007825032230
         C           -4.244163316989    -2.783827485404    -0.465833080371    12.000000000000
         C           -2.238163316989    -1.196827485404    -0.982833080371    12.000000000000
         C           -3.498163316989    -1.470827485404    -0.550833080371    12.000000000000
         C           -3.234163316989     0.719172514596    -0.558833080371    12.000000000000
         N           -2.098163316989     0.176172514596    -0.976833080371    14.003074004430
         N           -4.102163316989    -0.254827485404    -0.291833080371    14.003074004430
         H           -1.525163316989    -1.909827485404    -1.361833080371     1.007825032230
         H           -1.285163316989     0.718172514596    -1.267833080371     1.007825032230
         H           -4.702163316989    -2.943827485404    -1.443833080371     1.007825032230
         H           -5.056163316989    -2.690827485404     0.257166919629     1.007825032230
         H           -3.429163316989     1.783172514596    -0.488833080371     1.007825032230
         H           -3.638023316989    -3.670167485404    -0.227093080371     1.007825032230

  Running in c1 symmetry.

  Rotational constants: A =      0.04241  B =      0.00828  C =      0.00769 [cm^-1]
  Rotational constants: A =   1271.46254  B =    248.24604  C =    230.48541 [MHz]
  Nuclear repulsion =  788.436790661890882

  Charge       = 0
  Multiplicity = 1
  Electrons    = 102
  Nalpha       = 51
  Nbeta        = 51

  ==> Algorithm <==

  SCF Algorithm Type is PK.
  DIIS enabled.
  MOM disabled.
  Fractional occupation disabled.
  Guess Type is SAD.
  Energy threshold   = 1.00e-06
  Density threshold  = 1.00e-10
  Integral threshold = 0.00e+00

  ==> Primary Basis <==

  Basis Set: CC-PVDZ
    Blend: CC-PVDZ
    Number of shells: 132
    Number of basis function: 276
    Number of Cartesian functions: 290
    Spherical Harmonics?: true
    Max angular momentum: 2

  ==> Pre-Iterations <==

   -------------------------------------------------------
    Irrep   Nso     Nmo     Nalpha   Nbeta   Ndocc  Nsocc
   -------------------------------------------------------
     A        276     276       0       0       0       0
   -------------------------------------------------------
    Total     276     276      51      51      51       0
   -------------------------------------------------------

  ==> Integral Setup <==

  Using integral reordering PK algorithm.
  Sizing the integral batches needed.
  Building batch lookup table.
   Calculation information:
      Number of atoms:                  30
      Number of AO shells:             132
      Number of primitives:            388
      Number of atomic orbitals:       290
      Number of basis functions:       276

      Integral cutoff                 1.00e-12
      Number of threads:                 1

	Batch   1 pq = [       0,    9405] index = [             0,44231715] size =     44231715
	Batch   2 pq = [    9405,   13301] index = [      44231715,88464951] size =     44233236
	Batch   3 pq = [   13301,   16290] index = [      88464951,132690195] size =     44225244
	Batch   4 pq = [   16290,   18810] index = [     132690195,176917455] size =     44227260
	Batch   5 pq = [   18810,   21030] index = [     176917455,221140965] size =     44223510
	Batch   6 pq = [   21030,   23037] index = [     221140965,265363203] size =     44222238
	Batch   7 pq = [   23037,   24883] index = [     265363203,309594286] size =     44231083
	Batch   8 pq = [   24883,   26601] index = [     309594286,353819901] size =     44225615
	Batch   9 pq = [   26601,   28214] index = [     353819901,398029005] size =     44209104
	Batch  10 pq = [   28214,   29740] index = [     398029005,442248670] size =     44219665
	Batch  11 pq = [   29740,   31191] index = [     442248670,486454836] size =     44206166
	Batch  12 pq = [   31191,   32578] index = [     486454836,530679331] size =     44224495
	Batch  13 pq = [   32578,   33908] index = [     530679331,574893186] size =     44213855
	Batch  14 pq = [   33908,   35188] index = [     574893186,619115266] size =     44222080
	Batch  15 pq = [   35188,   36423] index = [     619115266,663335676] size =     44220410
	Batch  16 pq = [   36423,   37617] index = [     663335676,707538153] size =     44202477
	Batch  17 pq = [   37617,   38226] index = [     707538153,730632651] size =     23094498
  Task number: 67
  Buffer size: 11059200
  Buffer per thread: 2
  We computed 32974760 shell quartets total.
  Whereas there are 38531031 unique shell quartets.

  ==> DiskJK: Disk-Based J/K Matrices <==

    J tasked:                  Yes
    K tasked:                  Yes
    wK tasked:                  No
    Memory [MiB]:              375
    Schwarz Cutoff:          1E-12

    OpenMP threads:              1

  Minimum eigenvalue in the overlap matrix is 3.3203127275E-04.
  Using Symmetric Orthogonalization.

  SCF Guess: Superposition of Atomic Densities via on-the-fly atomic UHF.

  ==> Iterations <==

                        Total Energy        Delta E     RMS |[F,P]|

   @RHF iter SAD:  -571.61621305217068   -5.71616e+02   0.00000e+00
   @RHF iter   1:  -572.35911049497884   -7.42897e-01   2.41799e-03 DIIS
   @RHF iter   2:  -572.60882312817546   -2.49713e-01   1.15448e-03 DIIS
   @RHF iter   3:  -572.65816401863265   -4.93409e-02   3.16093e-04 DIIS
   @RHF iter   4:  -572.66289781385410   -4.73380e-03   1.31952e-04 DIIS
   @RHF iter   5:  -572.66361750809006   -7.19694e-04   1.84198e-05 DIIS
   @RHF iter   6:  -572.66364288626551   -2.53782e-05   7.91334e-06 DIIS
   @RHF iter   7:  -572.66364692126649   -4.03500e-06   2.76998e-06 DIIS
   @RHF iter   8:  -572.66364777865920   -8.57393e-07   1.22974e-06 DIIS
   @RHF iter   9:  -572.66364798212328   -2.03464e-07   5.14542e-07 DIIS
   @RHF iter  10:  -572.66364801600082   -3.38775e-08   1.69003e-07 DIIS
   @RHF iter  11:  -572.66364802001590   -4.01508e-09   6.42433e-08 DIIS
   @RHF iter  12:  -572.66364802055159   -5.35692e-10   2.75521e-08 DIIS
   @RHF iter  13:  -572.66364802065243   -1.00840e-10   9.33534e-09 DIIS
   @RHF iter  14:  -572.66364802066369   -1.12550e-11   4.11854e-09 DIIS
   @RHF iter  15:  -572.66364802066948   -5.79803e-12   1.65704e-09 DIIS
   @RHF iter  16:  -572.66364802066846    1.02318e-12   6.94847e-10 DIIS
   @RHF iter  17:  -572.66364802066892   -4.54747e-13   3.06210e-10 DIIS
   @RHF iter  18:  -572.66364802066823    6.82121e-13   1.14746e-10 DIIS
   @RHF iter  19:  -572.66364802066846   -2.27374e-13   5.01944e-11 DIIS
  Energy and wave function converged.

  ==> Post-Iterations <==

    Orbital Energies [Eh]
    ---------------------

    Doubly Occupied:

       1A    -15.619743     2A    -15.527335     3A    -11.291296
       4A    -11.248272     5A    -11.246264     6A    -11.245456
       7A    -11.244992     8A    -11.243374     9A    -11.242005
      10A    -11.239532    11A    -11.238211    12A    -11.236411
      13A    -11.229822    14A    -11.225266    15A     -1.338674
      16A     -1.156048    17A     -1.150092    18A     -1.069680
      19A     -1.027152    20A     -1.016514    21A     -0.986025
      22A     -0.940187    23A     -0.869096    24A     -0.830084
      25A     -0.813832    26A     -0.791793    27A     -0.759651
      28A     -0.740557    29A     -0.695410    30A     -0.646864
      31A     -0.642386    32A     -0.607984    33A     -0.602446
      34A     -0.599690    35A     -0.593092    36A     -0.592117
      37A     -0.584724    38A     -0.550145    39A     -0.549087
      40A     -0.536645    41A     -0.524124    42A     -0.522016
      43A     -0.506000    44A     -0.485645    45A     -0.483414
      46A     -0.475937    47A     -0.408176    48A     -0.375653
      49A     -0.338074    50A     -0.325600    51A     -0.307634

    Virtual:

      52A      0.125713    53A      0.131457    54A      0.162595
      55A      0.182863    56A      0.186804    57A      0.188072
      58A      0.206979    59A      0.209502    60A      0.221808
      61A      0.226838    62A      0.227546    63A      0.243411
      64A      0.248514    65A      0.261648    66A      0.271355
      67A      0.276049    68A      0.288900    69A      0.298996
      70A      0.306929    71A      0.312515    72A      0.341372
      73A      0.361619    74A      0.388351    75A      0.399954
      76A      0.410963    77A      0.427703    78A      0.441297
      79A      0.463142    80A      0.466854    81A      0.480813
      82A      0.493246    83A      0.502054    84A      0.569618
      85A      0.594299    86A      0.599067    87A      0.612758
      88A      0.621464    89A      0.631269    90A      0.641283
      91A      0.657709    92A      0.668010    93A      0.678114
      94A      0.690061    95A      0.702454    96A      0.708727
      97A      0.713448    98A      0.721298    99A      0.731789
     100A      0.734523   101A      0.736448   102A      0.743201
     103A      0.752070   104A      0.763650   105A      0.770534
     106A      0.790079   107A      0.793793   108A      0.812387
     109A      0.818170   110A      0.838118   111A      0.844233
     112A      0.855563   113A      0.863793   114A      0.870182
     115A      0.880383   116A      0.882955   117A      0.888597
     118A      0.891638   119A      0.900058   120A      0.906771
     121A      0.908655   122A      0.921315   123A      0.926743
     124A      0.931581   125A      0.939747   126A      0.949994
     127A      0.961084   128A      0.971254   129A      0.981065
     130A      0.990033   131A      0.994603   132A      1.025170
     133A      1.040004   134A      1.069492   135A      1.086915
     136A      1.099336   137A      1.104009   138A      1.114590
     139A      1.127369   140A      1.138966   141A      1.140957
     142A      1.143740   143A      1.152911   144A      1.180292
     145A      1.185410   146A      1.212209   147A      1.230385
     148A      1.236682   149A      1.241296   150A      1.275274
     151A      1.279339   152A      1.285150   153A      1.296562
     154A      1.297890   155A      1.305642   156A      1.308261
     157A      1.319043   158A      1.354942   159A      1.401052
     160A      1.421209   161A      1.435088   162A      1.441448
     163A      1.449747   164A      1.479091   165A      1.508028
     166A      1.515739   167A      1.526175   168A      1.564625
     169A      1.592078   170A      1.606470   171A      1.637140
     172A      1.667609   173A      1.681311   174A      1.695952
     175A      1.699773   176A      1.708328   177A      1.714719
     178A      1.736262   179A      1.747996   180A      1.756599
     181A      1.776120   182A      1.810412   183A      1.827491
     184A      1.834195   185A      1.842522   186A      1.849960
     187A      1.863262   188A      1.872023   189A      1.878587
     190A      1.893098   191A      1.902057   192A      1.905417
     193A      1.918618   194A      1.920372   195A      1.923670
     196A      1.931860   197A      1.938756   198A      1.941400
     199A      1.945303   200A      1.952841   201A      1.965768
     202A      1.971711   203A      1.978576   204A      1.984791
     205A      2.004294   206A      2.010897   207A      2.023292
     208A      2.040480   209A      2.050572   210A      2.066159
     211A      2.068767   212A      2.081186   213A      2.097694
     214A      2.110137   215A      2.139094   216A      2.141224
     217A      2.145007   218A      2.153589   219A      2.166375
     220A      2.176754   221A      2.202236   222A      2.215708
     223A      2.224094   224A      2.239304   225A      2.243928
     226A      2.268529   227A      2.293742   228A      2.303673
     229A      2.307923   230A      2.325699   231A      2.347362
     232A      2.366991   233A      2.375730   234A      2.430056
     235A      2.445036   236A      2.458983   237A      2.476049
     238A      2.479473   239A      2.488974   240A      2.518218
     241A      2.541465   242A      2.554870   243A      2.590334
     244A      2.612199   245A      2.627420   246A      2.691146
     247A      2.719999   248A      2.732562   249A      2.744706
     250A      2.757047   251A      2.765880   252A      2.766745
     253A      2.780009   254A      2.792449   255A      2.797391
     256A      2.826869   257A      2.831604   258A      2.844842
     259A      2.857805   260A      2.898092   261A      2.904188
     262A      2.929658   263A      2.962783   264A      2.966956
     265A      2.971279   266A      3.014585   267A      3.041288
     268A      3.072850   269A      3.165817   270A      3.170587
     271A      3.180325   272A      3.236981   273A      3.285526
     274A      3.466930   275A      3.787225   276A      3.933514

    Final Occupation by Irrep:
              A
    DOCC [    51 ]

  @RHF Final Energy:  -572.66364802066846

   => Energetics <=

    Nuclear Repulsion Energy =            788.4367906618908819
    One-Electron Energy =               -2339.1604205533626555
    Two-Electron Energy =                 978.0599818708033126
    Total Energy =                       -572.6636480206684610

Computation Completed

Properties will be evaluated at   0.000000,   0.000000,   0.000000 [a0]

Properties computed using the SCF density matrix

  Nuclear Dipole Moment: [e a0]
     X:     3.5371      Y:    -7.9728      Z:    -1.5096

  Electronic Dipole Moment: [e a0]
     X:    -2.3560      Y:     8.1987      Z:     1.0527

  Dipole Moment: [e a0]
     X:     1.1811      Y:     0.2258      Z:    -0.4568     Total:     1.2863

  Dipole Moment: [D]
     X:     3.0020      Y:     0.5740      Z:    -1.1612     Total:     3.2695

*** tstop() called on ds3 at Mon Apr 27 13:35:14 2020
Module time:
	user time   =     299.12 seconds =       4.99 minutes
	system time =     126.26 seconds =       2.10 minutes
	total time  =        425 seconds =       7.08 minutes
Total time:
	user time   =     299.12 seconds =       4.99 minutes
	system time =     126.26 seconds =       2.10 minutes
	total time  =        425 seconds =       7.08 minutes
                                     G D M A

                                 by Anthony Stone

                           version 2.2.06, 22 June 2011

               Distributed Multipoles from Gaussian wavefunctions

Starting at 13:35:14 on 27 Apr 2020

Using SCF density matrix from file ./SSI/SSI-037PHE-048HIE-1-dimer.test.6739.fchk

                         Distributed Multipole Analysis

Standard DMA

Positions and radii in angstrom
Multipole moments in atomic units, ea_0^k for rank k

C          x =  1.321837  y = -0.763827  z = -0.440833 angstrom
           Maximum rank =  0   Radius =  0.650 angstrom
                   Q00  =  -0.055802

C          x =  2.063837  y = -2.093827  z = -0.355833 angstrom
           Maximum rank =  0   Radius =  0.650 angstrom
                   Q00  =  -0.221605

C          x =  2.052837  y =  0.371173  z =  0.219167 angstrom
           Maximum rank =  0   Radius =  0.650 angstrom
                   Q00  =  -0.103720

C          x =  2.704837  y =  1.324173  z = -0.563833 angstrom
           Maximum rank =  0   Radius =  0.650 angstrom
                   Q00  =  -0.003219

C          x =  2.136837  y =  0.451173  z =  1.621167 angstrom
           Maximum rank =  0   Radius =  0.650 angstrom
                   Q00  =  -0.072706

C          x =  3.444837  y =  2.349173  z =  0.031167 angstrom
           Maximum rank =  0   Radius =  0.650 angstrom
                   Q00  =  -0.087238

C          x =  2.873837  y =  1.472173  z =  2.229167 angstrom
           Maximum rank =  0   Radius =  0.650 angstrom
                   Q00  =  -0.068419

C          x =  3.535837  y =  2.428173  z =  1.434167 angstrom
           Maximum rank =  0   Radius =  0.650 angstrom
                   Q00  =  -0.090970

H          x =  1.113837  y = -0.523827  z = -1.484833 angstrom
           Maximum rank =  0   Radius =  0.325 angstrom
                   Q00  =   0.048134

H          x =  0.365837  y = -0.859827  z =  0.072167 angstrom
           Maximum rank =  0   Radius =  0.325 angstrom
                   Q00  =   0.072185

H          x =  2.256837  y = -2.247827  z =  0.702167 angstrom
           Maximum rank =  0   Radius =  0.325 angstrom
                   Q00  =   0.082328

H          x =  2.587837  y =  1.281173  z = -1.632833 angstrom
           Maximum rank =  0   Radius =  0.325 angstrom
                   Q00  =   0.055170

H          x =  1.642837  y = -0.288827  z =  2.230167 angstrom
           Maximum rank =  0   Radius =  0.325 angstrom
                   Q00  =   0.063337

H          x =  3.933837  y =  3.091173  z = -0.584833 angstrom
           Maximum rank =  0   Radius =  0.325 angstrom
                   Q00  =   0.068880

H          x =  2.939837  y =  1.520173  z =  3.308167 angstrom
           Maximum rank =  0   Radius =  0.325 angstrom
                   Q00  =   0.071142

H          x =  4.107837  y =  3.221173  z =  1.898167 angstrom
           Maximum rank =  0   Radius =  0.325 angstrom
                   Q00  =   0.068091

H          x =  3.010407  y = -2.050557  z = -0.914513 angstrom
           Maximum rank =  0   Radius =  0.325 angstrom
                   Q00  =   0.086935

H          x =  1.430517  y = -2.934397  z = -0.675743 angstrom
           Maximum rank =  0   Radius =  0.325 angstrom
                   Q00  =   0.084478

C          x = -4.244163  y = -2.783827  z = -0.465833 angstrom
           Maximum rank =  0   Radius =  0.650 angstrom
                   Q00  =  -0.203757

C          x = -2.238163  y = -1.196827  z = -0.982833 angstrom
           Maximum rank =  0   Radius =  0.650 angstrom
                   Q00  =  -0.006494

C          x = -3.498163  y = -1.470827  z = -0.550833 angstrom
           Maximum rank =  0   Radius =  0.650 angstrom
                   Q00  =   0.231637

C          x = -3.234163  y =  0.719173  z = -0.558833 angstrom
           Maximum rank =  0   Radius =  0.650 angstrom
                   Q00  =   0.466527

N          x = -2.098163  y =  0.176173  z = -0.976833 angstrom
           Maximum rank =  0   Radius =  0.650 angstrom
                   Q00  =  -0.477987

N          x = -4.102163  y = -0.254827  z = -0.291833 angstrom
           Maximum rank =  0   Radius =  0.650 angstrom
                   Q00  =  -0.775842

H          x = -1.525163  y = -1.909827  z = -1.361833 angstrom
           Maximum rank =  0   Radius =  0.325 angstrom
                   Q00  =   0.098166

H          x = -1.285163  y =  0.718173  z = -1.267833 angstrom
           Maximum rank =  0   Radius =  0.325 angstrom
                   Q00  =   0.225639

H          x = -4.702163  y = -2.943827  z = -1.443833 angstrom
           Maximum rank =  0   Radius =  0.325 angstrom
                   Q00  =   0.102776

H          x = -5.056163  y = -2.690827  z =  0.257167 angstrom
           Maximum rank =  0   Radius =  0.325 angstrom
                   Q00  =   0.122390

H          x = -3.429163  y =  1.783173  z = -0.488833 angstrom
           Maximum rank =  0   Radius =  0.325 angstrom
                   Q00  =   0.124538

H          x = -3.638023  y = -3.670167  z = -0.227093 angstrom
           Maximum rank =  0   Radius =  0.325 angstrom
                   Q00  =   0.095406

Total multipoles referred to origin at
           x =   0.000000,  y =    0.000000,  z =    0.000000 angstrom
                   Q00  =  -0.000000

Finished at 13:35:14 on 27 Apr 2020

  DMA results are available in the Python driver through the
	  variable('DMA DISTRIBUTED MULTIPOLES')
  and
	  variable('DMA TOTAL MULTIPOLES')
  commands.

    Psi4 stopped on: Monday, 27 April 2020 01:35PM
    Psi4 wall time for execution: 0:07:04.62

*** Psi4 exiting successfully. Buy a developer a beer!
