                               Psi4 1.3.2 release

  ==> Input File <==

--------------------------------------------------------------------------
import numpy as np
set {scf_type pk
basis cc-pvdz
d_convergence 10
gdma_switch   0
gdma_limit    0
gdma_origin   [ 0.0,  0.0,  0.0 ]
}
molecule test {
    units Angstrom
    -1 1
    --
    -1 1
    C               -0.791713149187873    -1.291404199965127     2.345227704538274
    C               -0.124713149187873    -1.932404199965126     1.139227704538275
    O                0.369286850812127    -1.180404199965127     0.266227704538275
    O               -0.106713149187873    -3.178404199965127     1.054227704538275
    H               -1.467713149187873    -0.514404199965127     1.985227704538274
    H               -0.036713149187873    -0.799404199965127     2.957227704538274
    H               -1.370633149187873    -2.016844199965127     2.935638704538274
    C                0.457286850812127     1.672595800034874    -1.279772295461725
    C               -0.718713149187873     1.279595800034873    -2.184772295461725
    C                0.812286850812127     3.142595800034873    -1.459772295461725
    O                0.118286850812127     1.430595800034874     0.081227704538275
    H                1.328286850812127     1.067595800034874    -1.526772295461726
    H               -1.571713149187873     1.883595800034874    -1.882772295461725
    H               -0.072713149187873     3.732595800034873    -1.682772295461725
    H                1.223286850812127     3.545595800034874    -0.543772295461725
    H                1.540286850812127     3.257595800034873    -2.260772295461726
    H                0.185286850812127     0.451595800034873     0.194227704538275
    H               -0.984323149187873     0.222435800034873    -2.036872295461726
    H               -0.465143149187873     1.458245800034873    -3.240132295461725

}
e, wfn = energy('scf', return_wfn=True)
gdma(wfn)
dmavals = variable('DMA DISTRIBUTED MULTIPOLES')
charges = np.array(dmavals)
print(charges)
np.save('SSI-124ASP-132THR-1-dimer.npy', np.array(charges))--------------------------------------------------------------------------

*** tstart() called on ds3
*** at Mon Apr 27 18:35:12 2020

   => Loading Basis Set <=

    Name: CC-PVDZ
    Role: ORBITAL
    Keyword: BASIS
    atoms 1-2, 8-10  entry C          line   138 file /theoryfs2/ds/metcalf/miniconda2/envs/tf2gpu/share/psi4/basis/cc-pvdz.gbs
    atoms 3-4, 11    entry O          line   198 file /theoryfs2/ds/metcalf/miniconda2/envs/tf2gpu/share/psi4/basis/cc-pvdz.gbs
    atoms 5-7, 12-19 entry H          line    22 file /theoryfs2/ds/metcalf/miniconda2/envs/tf2gpu/share/psi4/basis/cc-pvdz.gbs

         ---------------------------------------------------------
                                   SCF
               by Justin Turney, Rob Parrish, Andy Simmonett
                          and Daniel G. A. Smith
                              RHF Reference
                        1 Threads,    500 MiB Core
         ---------------------------------------------------------

  ==> Geometry <==

    Molecular point group: c1
    Full point group: C1

    Geometry (in Angstrom), charge = -1, multiplicity = 1:

       Center              X                  Y                   Z               Mass
    ------------   -----------------  -----------------  -----------------  -----------------
         C           -0.791713149188    -1.291404199965     2.345227704538    12.000000000000
         C           -0.124713149188    -1.932404199965     1.139227704538    12.000000000000
         O            0.369286850812    -1.180404199965     0.266227704538    15.994914619570
         O           -0.106713149188    -3.178404199965     1.054227704538    15.994914619570
         H           -1.467713149188    -0.514404199965     1.985227704538     1.007825032230
         H           -0.036713149188    -0.799404199965     2.957227704538     1.007825032230
         H           -1.370633149188    -2.016844199965     2.935638704538     1.007825032230
         C            0.457286850812     1.672595800035    -1.279772295462    12.000000000000
         C           -0.718713149188     1.279595800035    -2.184772295462    12.000000000000
         C            0.812286850812     3.142595800035    -1.459772295462    12.000000000000
         O            0.118286850812     1.430595800035     0.081227704538    15.994914619570
         H            1.328286850812     1.067595800035    -1.526772295462     1.007825032230
         H           -1.571713149188     1.883595800035    -1.882772295462     1.007825032230
         H           -0.072713149188     3.732595800035    -1.682772295462     1.007825032230
         H            1.223286850812     3.545595800035    -0.543772295462     1.007825032230
         H            1.540286850812     3.257595800035    -2.260772295462     1.007825032230
         H            0.185286850812     0.451595800035     0.194227704538     1.007825032230
         H           -0.984323149188     0.222435800035    -2.036872295462     1.007825032230
         H           -0.465143149188     1.458245800035    -3.240132295462     1.007825032230

  Running in c1 symmetry.

  Rotational constants: A =      0.14610  B =      0.02357  C =      0.02210 [cm^-1]
  Rotational constants: A =   4379.90062  B =    706.72749  C =    662.46904 [MHz]
  Nuclear repulsion =  374.593369667598211

  Charge       = -1
  Multiplicity = 1
  Electrons    = 66
  Nalpha       = 33
  Nbeta        = 33

  ==> Algorithm <==

  SCF Algorithm Type is PK.
  DIIS enabled.
  MOM disabled.
  Fractional occupation disabled.
  Guess Type is SAD.
  Energy threshold   = 1.00e-06
  Density threshold  = 1.00e-10
  Integral threshold = 0.00e+00

  ==> Primary Basis <==

  Basis Set: CC-PVDZ
    Blend: CC-PVDZ
    Number of shells: 81
    Number of basis function: 167
    Number of Cartesian functions: 175
    Spherical Harmonics?: true
    Max angular momentum: 2

  ==> Pre-Iterations <==

   -------------------------------------------------------
    Irrep   Nso     Nmo     Nalpha   Nbeta   Ndocc  Nsocc
   -------------------------------------------------------
     A        167     167       0       0       0       0
   -------------------------------------------------------
    Total     167     167      33      33      33       0
   -------------------------------------------------------

  ==> Integral Setup <==

  Using integral reordering PK algorithm.
  Sizing the integral batches needed.
  Building batch lookup table.
   Calculation information:
      Number of atoms:                  19
      Number of AO shells:              81
      Number of primitives:            231
      Number of atomic orbitals:       175
      Number of basis functions:       167

      Integral cutoff                 1.00e-12
      Number of threads:                 1

	Batch   1 pq = [       0,    9405] index = [             0,44231715] size =     44231715
	Batch   2 pq = [    9405,   13301] index = [      44231715,88464951] size =     44233236
	Batch   3 pq = [   13301,   14028] index = [      88464951,98399406] size =      9934455
  Task number: 9
  Buffer size: 11059200
  Buffer per thread: 2
  We computed 4347592 shell quartets total.
  Whereas there are 5516181 unique shell quartets.

  ==> DiskJK: Disk-Based J/K Matrices <==

    J tasked:                  Yes
    K tasked:                  Yes
    wK tasked:                  No
    Memory [MiB]:              375
    Schwarz Cutoff:          1E-12

    OpenMP threads:              1

  Minimum eigenvalue in the overlap matrix is 4.3550398773E-03.
  Using Symmetric Orthogonalization.

  SCF Guess: Superposition of Atomic Densities via on-the-fly atomic UHF.

  ==> Iterations <==

                        Total Energy        Delta E     RMS |[F,P]|

   @RHF iter SAD:  -418.70130592890405   -4.18701e+02   0.00000e+00
   @RHF iter   1:  -420.09318494243246   -1.39188e+00   4.68216e-03 DIIS
   @RHF iter   2:  -420.33134814716249   -2.38163e-01   2.54060e-03 DIIS
   @RHF iter   3:  -420.39675123863714   -6.54031e-02   4.07006e-04 DIIS
   @RHF iter   4:  -420.39984291756912   -3.09168e-03   1.57813e-04 DIIS
   @RHF iter   5:  -420.40028411427170   -4.41197e-04   3.05492e-05 DIIS
   @RHF iter   6:  -420.40030163774310   -1.75235e-05   1.36666e-05 DIIS
   @RHF iter   7:  -420.40030461829639   -2.98055e-06   3.09534e-06 DIIS
   @RHF iter   8:  -420.40030496831582   -3.50019e-07   1.53926e-06 DIIS
   @RHF iter   9:  -420.40030503826097   -6.99451e-08   6.16207e-07 DIIS
   @RHF iter  10:  -420.40030505373483   -1.54739e-08   2.03227e-07 DIIS
   @RHF iter  11:  -420.40030505528904   -1.55421e-09   6.74153e-08 DIIS
   @RHF iter  12:  -420.40030505542114   -1.32104e-10   1.95045e-08 DIIS
   @RHF iter  13:  -420.40030505543621   -1.50635e-11   4.83009e-09 DIIS
   @RHF iter  14:  -420.40030505543729   -1.08002e-12   1.27102e-09 DIIS
   @RHF iter  15:  -420.40030505543928   -1.98952e-12   3.56248e-10 DIIS
   @RHF iter  16:  -420.40030505543911    1.70530e-13   1.09093e-10 DIIS
   @RHF iter  17:  -420.40030505543621    2.89901e-12   4.15620e-11 DIIS
  Energy and wave function converged.

  ==> Post-Iterations <==

    Orbital Energies [Eh]
    ---------------------

    Doubly Occupied:

       1A    -20.365649     2A    -20.294413     3A    -20.281719
       4A    -11.141666     5A    -11.136836     6A    -11.098940
       7A    -11.091346     8A    -11.062243     9A     -1.184388
      10A     -1.172551    11A     -1.065613    12A     -0.906983
      13A     -0.811543    14A     -0.810555    15A     -0.656785
      16A     -0.556034    17A     -0.518400    18A     -0.481578
      19A     -0.462540    20A     -0.437790    21A     -0.427641
      22A     -0.424958    23A     -0.422736    24A     -0.400627
      25A     -0.382576    26A     -0.369729    27A     -0.362828
      28A     -0.328278    29A     -0.320817    30A     -0.269011
      31A     -0.212209    32A     -0.196705    33A     -0.191288

    Virtual:

      34A      0.300817    35A      0.343810    36A      0.346909
      37A      0.355367    38A      0.373047    39A      0.385606
      40A      0.389943    41A      0.402570    42A      0.408532
      43A      0.420329    44A      0.466367    45A      0.493483
      46A      0.508161    47A      0.541595    48A      0.562637
      49A      0.622305    50A      0.672872    51A      0.709814
      52A      0.722422    53A      0.745782    54A      0.778782
      55A      0.806079    56A      0.810006    57A      0.838035
      58A      0.884154    59A      0.904423    60A      0.925714
      61A      0.936133    62A      0.942922    63A      0.972802
      64A      0.980769    65A      0.992891    66A      1.013290
      67A      1.014810    68A      1.018191    69A      1.023021
      70A      1.034205    71A      1.043265    72A      1.049704
      73A      1.058516    74A      1.071880    75A      1.082056
      76A      1.116452    77A      1.144354    78A      1.199331
      79A      1.241036    80A      1.269457    81A      1.301876
      82A      1.328618    83A      1.333838    84A      1.383466
      85A      1.435756    86A      1.490213    87A      1.533614
      88A      1.553928    89A      1.560916    90A      1.564837
      91A      1.606482    92A      1.626558    93A      1.658862
      94A      1.686999    95A      1.693037    96A      1.714209
      97A      1.723567    98A      1.752746    99A      1.803700
     100A      1.807627   101A      1.830530   102A      1.836227
     103A      1.844164   104A      1.855998   105A      1.913074
     106A      1.975406   107A      1.990768   108A      2.014064
     109A      2.032463   110A      2.039056   111A      2.060908
     112A      2.076124   113A      2.084337   114A      2.094327
     115A      2.101844   116A      2.123320   117A      2.131439
     118A      2.136660   119A      2.171495   120A      2.186821
     121A      2.195029   122A      2.215215   123A      2.251239
     124A      2.284516   125A      2.304105   126A      2.368942
     127A      2.384540   128A      2.401631   129A      2.410439
     130A      2.430313   131A      2.451890   132A      2.510724
     133A      2.564000   134A      2.622265   135A      2.640489
     136A      2.652304   137A      2.680481   138A      2.692991
     139A      2.717436   140A      2.740833   141A      2.755027
     142A      2.885117   143A      2.904363   144A      2.910032
     145A      2.929871   146A      2.931338   147A      2.958441
     148A      2.965319   149A      2.971662   150A      2.989683
     151A      3.036664   152A      3.118206   153A      3.212980
     154A      3.264616   155A      3.298228   156A      3.483623
     157A      3.522062   158A      3.570500   159A      3.610119
     160A      3.670209   161A      3.756819   162A      3.800859
     163A      3.818975   164A      4.027943   165A      4.086359
     166A      4.156441   167A      4.408905

    Final Occupation by Irrep:
              A
    DOCC [    33 ]

  @RHF Final Energy:  -420.40030505543621

   => Energetics <=

    Nuclear Repulsion Energy =            374.5933696675982105
    One-Electron Energy =               -1330.2934032005814515
    Two-Electron Energy =                 535.2997284775470916
    Total Energy =                       -420.4003050554362062

Computation Completed

Properties will be evaluated at   0.000000,   0.000000,   0.000000 [a0]

Properties computed using the SCF density matrix

  Nuclear Dipole Moment: [e a0]
     X:    -1.5842      Y:    11.5061      Z:    -4.7758

  Electronic Dipole Moment: [e a0]
     X:     1.3738      Y:    -8.8022      Z:     3.8954

  Dipole Moment: [e a0]
     X:    -0.2104      Y:     2.7039      Z:    -0.8804     Total:     2.8514

  Dipole Moment: [D]
     X:    -0.5348      Y:     6.8727      Z:    -2.2377     Total:     7.2476

*** tstop() called on ds3 at Mon Apr 27 18:35:58 2020
Module time:
	user time   =      32.09 seconds =       0.53 minutes
	system time =      15.21 seconds =       0.25 minutes
	total time  =         46 seconds =       0.77 minutes
Total time:
	user time   =      32.09 seconds =       0.53 minutes
	system time =      15.21 seconds =       0.25 minutes
	total time  =         46 seconds =       0.77 minutes
                                     G D M A

                                 by Anthony Stone

                           version 2.2.06, 22 June 2011

               Distributed Multipoles from Gaussian wavefunctions

Starting at 18:35:58 on 27 Apr 2020

Using SCF density matrix from file ./SSI/SSI-124ASP-132THR-1-dimer.test.24922.fchk

                         Distributed Multipole Analysis

Standard DMA

Positions and radii in angstrom
Multipole moments in atomic units, ea_0^k for rank k

C          x = -0.791713  y = -1.291404  z =  2.345228 angstrom
           Maximum rank =  0   Radius =  0.650 angstrom
                   Q00  =  -0.291516

C          x = -0.124713  y = -1.932404  z =  1.139228 angstrom
           Maximum rank =  0   Radius =  0.650 angstrom
                   Q00  =   0.944942

O          x =  0.369287  y = -1.180404  z =  0.266228 angstrom
           Maximum rank =  0   Radius =  0.650 angstrom
                   Q00  =  -0.950779

O          x = -0.106713  y = -3.178404  z =  1.054228 angstrom
           Maximum rank =  0   Radius =  0.650 angstrom
                   Q00  =  -0.899992

H          x = -1.467713  y = -0.514404  z =  1.985228 angstrom
           Maximum rank =  0   Radius =  0.325 angstrom
                   Q00  =   0.077566

H          x = -0.036713  y = -0.799404  z =  2.957228 angstrom
           Maximum rank =  0   Radius =  0.325 angstrom
                   Q00  =   0.085618

H          x = -1.370633  y = -2.016844  z =  2.935639 angstrom
           Maximum rank =  0   Radius =  0.325 angstrom
                   Q00  =   0.062409

C          x =  0.457287  y =  1.672596  z = -1.279772 angstrom
           Maximum rank =  0   Radius =  0.650 angstrom
                   Q00  =   0.221204

C          x = -0.718713  y =  1.279596  z = -2.184772 angstrom
           Maximum rank =  0   Radius =  0.650 angstrom
                   Q00  =  -0.239469

C          x =  0.812287  y =  3.142596  z = -1.459772 angstrom
           Maximum rank =  0   Radius =  0.650 angstrom
                   Q00  =  -0.257442

O          x =  0.118287  y =  1.430596  z =  0.081228 angstrom
           Maximum rank =  0   Radius =  0.650 angstrom
                   Q00  =  -0.716706

H          x =  1.328287  y =  1.067596  z = -1.526772 angstrom
           Maximum rank =  0   Radius =  0.325 angstrom
                   Q00  =   0.001965

H          x = -1.571713  y =  1.883596  z = -1.882772 angstrom
           Maximum rank =  0   Radius =  0.325 angstrom
                   Q00  =   0.064953

H          x = -0.072713  y =  3.732596  z = -1.682772 angstrom
           Maximum rank =  0   Radius =  0.325 angstrom
                   Q00  =   0.058698

H          x =  1.223287  y =  3.545596  z = -0.543772 angstrom
           Maximum rank =  0   Radius =  0.325 angstrom
                   Q00  =   0.089000

H          x =  1.540287  y =  3.257596  z = -2.260772 angstrom
           Maximum rank =  0   Radius =  0.325 angstrom
                   Q00  =   0.058932

H          x =  0.185287  y =  0.451596  z =  0.194228 angstrom
           Maximum rank =  0   Radius =  0.325 angstrom
                   Q00  =   0.548704

H          x = -0.984323  y =  0.222436  z = -2.036872 angstrom
           Maximum rank =  0   Radius =  0.325 angstrom
                   Q00  =   0.104699

H          x = -0.465143  y =  1.458246  z = -3.240132 angstrom
           Maximum rank =  0   Radius =  0.325 angstrom
                   Q00  =   0.037213

Total multipoles referred to origin at
           x =   0.000000,  y =    0.000000,  z =    0.000000 angstrom
                   Q00  =  -1.000000

Finished at 18:35:58 on 27 Apr 2020

  DMA results are available in the Python driver through the
	  variable('DMA DISTRIBUTED MULTIPOLES')
  and
	  variable('DMA TOTAL MULTIPOLES')
  commands.

    Psi4 stopped on: Monday, 27 April 2020 06:35PM
    Psi4 wall time for execution: 0:00:46.34

*** Psi4 exiting successfully. Buy a developer a beer!
