                               Psi4 1.3.2 release

  ==> Input File <==

--------------------------------------------------------------------------
import numpy as np
set {scf_type pk
basis cc-pvdz
d_convergence 10
gdma_switch   0
gdma_limit    0
gdma_origin   [ 0.0,  0.0,  0.0 ]
}
molecule test {
    units Angstrom
    0 1
    --
    0 1
    C               -0.587003296692227     2.043905560260765     0.804000558194061
    C               -0.872003296692227     1.425905560260765    -1.579999441805939
    N               -0.037003296692227     0.411905560260765    -1.464999441805939
    N               -1.154003296692227     2.201905560260764    -0.540999441805939
    N               -1.436003296692227     1.663905560260765    -2.747999441805939
    H                0.356996703307773     0.123905560260765    -0.568999441805939
    H                0.198996703307773    -0.145094439739235    -2.266999441805939
    H               -1.766003296692227     2.990905560260765    -0.696999441805939
    H               -2.062003296692227     2.445905560260765    -2.862999441805939
    H               -1.181003296692227     1.117905560260765    -3.554999441805939
    H               -0.624003296692227     2.996905560260764     1.336000558194061
    H                0.464996703307773     1.761905560260765     0.725000558194061
    H               -1.116483296692227     1.277425560260765     1.388946558194061
    C                0.161996703307773    -3.095094439739235     1.486000558194061
    C                1.072996703307773    -1.873094439739235     1.398000558194061
    O                1.175996703307773    -1.301094439739235     0.289000558194061
    O                1.666996703307773    -1.469094439739235     2.421000558194061
    H                0.367996703307773    -3.758094439739236     0.642000558194061
    H               -0.874003296692227    -2.766094439739236     1.391000558194061
    H                0.282026703307773    -3.675834439739235     2.412460558194061

}
e, wfn = energy('scf', return_wfn=True)
gdma(wfn)
dmavals = variable('DMA DISTRIBUTED MULTIPOLES')
charges = np.array(dmavals)
print(charges)
np.save('SSI-002ARG-006GLU-1-dimer.npy', np.array(charges))--------------------------------------------------------------------------

*** tstart() called on ds3
*** at Mon Apr 27 17:53:03 2020

   => Loading Basis Set <=

    Name: CC-PVDZ
    Role: ORBITAL
    Keyword: BASIS
    atoms 1-2, 14-15  entry C          line   138 file /theoryfs2/ds/metcalf/miniconda2/envs/tf2gpu/share/psi4/basis/cc-pvdz.gbs
    atoms 3-5         entry N          line   168 file /theoryfs2/ds/metcalf/miniconda2/envs/tf2gpu/share/psi4/basis/cc-pvdz.gbs
    atoms 6-13, 18-20 entry H          line    22 file /theoryfs2/ds/metcalf/miniconda2/envs/tf2gpu/share/psi4/basis/cc-pvdz.gbs
    atoms 16-17       entry O          line   198 file /theoryfs2/ds/metcalf/miniconda2/envs/tf2gpu/share/psi4/basis/cc-pvdz.gbs

         ---------------------------------------------------------
                                   SCF
               by Justin Turney, Rob Parrish, Andy Simmonett
                          and Daniel G. A. Smith
                              RHF Reference
                        1 Threads,    500 MiB Core
         ---------------------------------------------------------

  ==> Geometry <==

    Molecular point group: c1
    Full point group: C1

    Geometry (in Angstrom), charge = 0, multiplicity = 1:

       Center              X                  Y                   Z               Mass
    ------------   -----------------  -----------------  -----------------  -----------------
         C           -0.587003296692     2.043905560261     0.804000558194    12.000000000000
         C           -0.872003296692     1.425905560261    -1.579999441806    12.000000000000
         N           -0.037003296692     0.411905560261    -1.464999441806    14.003074004430
         N           -1.154003296692     2.201905560261    -0.540999441806    14.003074004430
         N           -1.436003296692     1.663905560261    -2.747999441806    14.003074004430
         H            0.356996703308     0.123905560261    -0.568999441806     1.007825032230
         H            0.198996703308    -0.145094439739    -2.266999441806     1.007825032230
         H           -1.766003296692     2.990905560261    -0.696999441806     1.007825032230
         H           -2.062003296692     2.445905560261    -2.862999441806     1.007825032230
         H           -1.181003296692     1.117905560261    -3.554999441806     1.007825032230
         H           -0.624003296692     2.996905560261     1.336000558194     1.007825032230
         H            0.464996703308     1.761905560261     0.725000558194     1.007825032230
         H           -1.116483296692     1.277425560261     1.388946558194     1.007825032230
         C            0.161996703308    -3.095094439739     1.486000558194    12.000000000000
         C            1.072996703308    -1.873094439739     1.398000558194    12.000000000000
         O            1.175996703308    -1.301094439739     0.289000558194    15.994914619570
         O            1.666996703308    -1.469094439739     2.421000558194    15.994914619570
         H            0.367996703308    -3.758094439739     0.642000558194     1.007825032230
         H           -0.874003296692    -2.766094439739     1.391000558194     1.007825032230
         H            0.282026703308    -3.675834439739     2.412460558194     1.007825032230

  Running in c1 symmetry.

  Rotational constants: A =      0.09212  B =      0.02006  C =      0.01787 [cm^-1]
  Rotational constants: A =   2761.82322  B =    601.28876  C =    535.68748 [MHz]
  Nuclear repulsion =  449.218658438018451

  Charge       = 0
  Multiplicity = 1
  Electrons    = 72
  Nalpha       = 36
  Nbeta        = 36

  ==> Algorithm <==

  SCF Algorithm Type is PK.
  DIIS enabled.
  MOM disabled.
  Fractional occupation disabled.
  Guess Type is SAD.
  Energy threshold   = 1.00e-06
  Density threshold  = 1.00e-10
  Integral threshold = 0.00e+00

  ==> Primary Basis <==

  Basis Set: CC-PVDZ
    Blend: CC-PVDZ
    Number of shells: 87
    Number of basis function: 181
    Number of Cartesian functions: 190
    Spherical Harmonics?: true
    Max angular momentum: 2

  ==> Pre-Iterations <==

   -------------------------------------------------------
    Irrep   Nso     Nmo     Nalpha   Nbeta   Ndocc  Nsocc
   -------------------------------------------------------
     A        181     181       0       0       0       0
   -------------------------------------------------------
    Total     181     181      36      36      36       0
   -------------------------------------------------------

  ==> Integral Setup <==

  Using integral reordering PK algorithm.
  Sizing the integral batches needed.
  Building batch lookup table.
   Calculation information:
      Number of atoms:                  20
      Number of AO shells:              87
      Number of primitives:            253
      Number of atomic orbitals:       190
      Number of basis functions:       181

      Integral cutoff                 1.00e-12
      Number of threads:                 1

	Batch   1 pq = [       0,    9405] index = [             0,44231715] size =     44231715
	Batch   2 pq = [    9405,   13301] index = [      44231715,88464951] size =     44233236
	Batch   3 pq = [   13301,   16471] index = [      88464951,135655156] size =     47190205
  Task number: 13
  Buffer size: 11059200
  Buffer per thread: 2
  We computed 5836608 shell quartets total.
  Whereas there are 7328706 unique shell quartets.

  ==> DiskJK: Disk-Based J/K Matrices <==

    J tasked:                  Yes
    K tasked:                  Yes
    wK tasked:                  No
    Memory [MiB]:              375
    Schwarz Cutoff:          1E-12

    OpenMP threads:              1

  Minimum eigenvalue in the overlap matrix is 3.9510474123E-03.
  Using Symmetric Orthogonalization.

  SCF Guess: Superposition of Atomic Densities via on-the-fly atomic UHF.

  ==> Iterations <==

                        Total Energy        Delta E     RMS |[F,P]|

   @RHF iter SAD:  -469.64235293612109   -4.69642e+02   0.00000e+00
   @RHF iter   1:  -470.66723276030245   -1.02488e+00   4.30813e-03 DIIS
   @RHF iter   2:  -470.90031562029947   -2.33083e-01   2.28468e-03 DIIS
   @RHF iter   3:  -470.96212192182753   -6.18063e-02   4.03771e-04 DIIS
   @RHF iter   4:  -470.96553977665803   -3.41785e-03   1.46848e-04 DIIS
   @RHF iter   5:  -470.96597342170617   -4.33645e-04   2.94183e-05 DIIS
   @RHF iter   6:  -470.96599816825460   -2.47465e-05   1.55105e-05 DIIS
   @RHF iter   7:  -470.96600295195043   -4.78370e-06   3.89447e-06 DIIS
   @RHF iter   8:  -470.96600369491193   -7.42962e-07   1.82563e-06 DIIS
   @RHF iter   9:  -470.96600381899918   -1.24087e-07   6.68398e-07 DIIS
   @RHF iter  10:  -470.96600384310614   -2.41070e-08   2.17863e-07 DIIS
   @RHF iter  11:  -470.96600384531166   -2.20552e-09   5.37864e-08 DIIS
   @RHF iter  12:  -470.96600384540676   -9.50990e-11   1.89864e-08 DIIS
   @RHF iter  13:  -470.96600384541711   -1.03455e-11   4.96991e-09 DIIS
   @RHF iter  14:  -470.96600384541773   -6.25278e-13   1.57923e-09 DIIS
   @RHF iter  15:  -470.96600384541807   -3.41061e-13   7.35908e-10 DIIS
   @RHF iter  16:  -470.96600384541745    6.25278e-13   2.99653e-10 DIIS
   @RHF iter  17:  -470.96600384541534    2.10321e-12   1.11314e-10 DIIS
   @RHF iter  18:  -470.96600384541932   -3.97904e-12   4.53324e-11 DIIS
  Energy and wave function converged.

  ==> Post-Iterations <==

    Orbital Energies [Eh]
    ---------------------

    Doubly Occupied:

       1A    -20.396661     2A    -20.380345     3A    -15.671705
       4A    -15.662393     5A    -15.630734     6A    -11.457796
       7A    -11.311414     8A    -11.241557     9A    -11.157378
      10A     -1.415922    11A     -1.279713    12A     -1.279101
      13A     -1.249553    14A     -1.163485    15A     -1.013061
      16A     -0.906881    17A     -0.903271    18A     -0.847394
      19A     -0.816661    20A     -0.732788    21A     -0.708431
      22A     -0.696954    23A     -0.668264    24A     -0.619920
      25A     -0.614163    26A     -0.591468    27A     -0.529853
      28A     -0.521892    29A     -0.519389    30A     -0.483054
      31A     -0.459821    32A     -0.456416    33A     -0.426981
      34A     -0.315326    35A     -0.294951    36A     -0.291616

    Virtual:

      37A      0.097912    38A      0.137513    39A      0.155375
      40A      0.160136    41A      0.196070    42A      0.216624
      43A      0.233580    44A      0.253475    45A      0.269697
      46A      0.289479    47A      0.310563    48A      0.323239
      49A      0.365576    50A      0.376868    51A      0.406076
      52A      0.453484    53A      0.460274    54A      0.470693
      55A      0.567774    56A      0.583116    57A      0.600315
      58A      0.633392    59A      0.641935    60A      0.653217
      61A      0.657819    62A      0.672800    63A      0.681829
      64A      0.709628    65A      0.724457    66A      0.768995
      67A      0.792596    68A      0.812096    69A      0.822975
      70A      0.836384    71A      0.850470    72A      0.858680
      73A      0.876348    74A      0.904673    75A      0.907647
      76A      0.920817    77A      0.928845    78A      0.935923
      79A      0.945156    80A      0.964421    81A      0.977970
      82A      0.998013    83A      1.016620    84A      1.027842
      85A      1.035934    86A      1.095634    87A      1.112666
      88A      1.148534    89A      1.177822    90A      1.226084
      91A      1.237527    92A      1.244569    93A      1.250929
      94A      1.279926    95A      1.299540    96A      1.322404
      97A      1.346568    98A      1.366262    99A      1.415577
     100A      1.455001   101A      1.459410   102A      1.476709
     103A      1.482748   104A      1.533468   105A      1.558178
     106A      1.607928   107A      1.611219   108A      1.623105
     109A      1.636034   110A      1.655211   111A      1.686229
     112A      1.719353   113A      1.737687   114A      1.742861
     115A      1.760783   116A      1.777238   117A      1.832501
     118A      1.845345   119A      1.872988   120A      1.890913
     121A      1.896460   122A      1.914219   123A      1.933991
     124A      1.946302   125A      1.969893   126A      1.976997
     127A      1.989837   128A      2.015228   129A      2.025508
     130A      2.067053   131A      2.105125   132A      2.137066
     133A      2.147410   134A      2.154008   135A      2.164539
     136A      2.212630   137A      2.266177   138A      2.269515
     139A      2.300267   140A      2.321271   141A      2.335214
     142A      2.374500   143A      2.396533   144A      2.406374
     145A      2.450918   146A      2.454267   147A      2.490212
     148A      2.504769   149A      2.548473   150A      2.575991
     151A      2.587965   152A      2.610410   153A      2.660216
     154A      2.700176   155A      2.724104   156A      2.731141
     157A      2.759415   158A      2.809755   159A      2.843467
     160A      2.860350   161A      2.879569   162A      2.893290
     163A      2.920813   164A      2.933630   165A      2.996744
     166A      3.006378   167A      3.111350   168A      3.137793
     169A      3.161677   170A      3.190998   171A      3.221365
     172A      3.231964   173A      3.306438   174A      3.513747
     175A      3.658598   176A      3.689063   177A      3.707962
     178A      3.799732   179A      3.945516   180A      3.971998
     181A      4.070374

    Final Occupation by Irrep:
              A
    DOCC [    36 ]

  @RHF Final Energy:  -470.96600384541932

   => Energetics <=

    Nuclear Repulsion Energy =            449.2186584380184513
    One-Electron Energy =               -1534.9367051350741349
    Two-Electron Energy =                 614.7520428516364746
    Total Energy =                       -470.9660038454193227

Computation Completed

Properties will be evaluated at   0.000000,   0.000000,   0.000000 [a0]

Properties computed using the SCF density matrix

  Nuclear Dipole Moment: [e a0]
     X:    -5.5590      Y:     2.1958      Z:    -1.9002

  Electronic Dipole Moment: [e a0]
     X:     1.7447      Y:     2.0783      Z:    -2.5479

  Dipole Moment: [e a0]
     X:    -3.8143      Y:     4.2741      Z:    -4.4482     Total:     7.2528

  Dipole Moment: [D]
     X:    -9.6950      Y:    10.8637      Z:   -11.3061     Total:    18.4348

*** tstop() called on ds3 at Mon Apr 27 17:54:36 2020
Module time:
	user time   =      42.77 seconds =       0.71 minutes
	system time =      19.21 seconds =       0.32 minutes
	total time  =         93 seconds =       1.55 minutes
Total time:
	user time   =      42.77 seconds =       0.71 minutes
	system time =      19.21 seconds =       0.32 minutes
	total time  =         93 seconds =       1.55 minutes
                                     G D M A

                                 by Anthony Stone

                           version 2.2.06, 22 June 2011

               Distributed Multipoles from Gaussian wavefunctions

Starting at 17:54:37 on 27 Apr 2020

Using SCF density matrix from file ./SSI/SSI-002ARG-006GLU-1-dimer.test.18368.fchk

                         Distributed Multipole Analysis

Standard DMA

Positions and radii in angstrom
Multipole moments in atomic units, ea_0^k for rank k

C          x = -0.587003  y =  2.043906  z =  0.804001 angstrom
           Maximum rank =  0   Radius =  0.650 angstrom
                   Q00  =  -0.114522

C          x = -0.872003  y =  1.425906  z = -1.579999 angstrom
           Maximum rank =  0   Radius =  0.650 angstrom
                   Q00  =   1.067425

N          x = -0.037003  y =  0.411906  z = -1.464999 angstrom
           Maximum rank =  0   Radius =  0.650 angstrom
                   Q00  =  -0.584123

N          x = -1.154003  y =  2.201906  z = -0.540999 angstrom
           Maximum rank =  0   Radius =  0.650 angstrom
                   Q00  =  -0.486743

N          x = -1.436003  y =  1.663906  z = -2.747999 angstrom
           Maximum rank =  0   Radius =  0.650 angstrom
                   Q00  =  -0.585584

H          x =  0.356997  y =  0.123906  z = -0.568999 angstrom
           Maximum rank =  0   Radius =  0.325 angstrom
                   Q00  =   0.317267

H          x =  0.198997  y = -0.145094  z = -2.266999 angstrom
           Maximum rank =  0   Radius =  0.325 angstrom
                   Q00  =   0.246204

H          x = -1.766003  y =  2.990906  z = -0.696999 angstrom
           Maximum rank =  0   Radius =  0.325 angstrom
                   Q00  =   0.203805

H          x = -2.062003  y =  2.445906  z = -2.862999 angstrom
           Maximum rank =  0   Radius =  0.325 angstrom
                   Q00  =   0.238706

H          x = -1.181003  y =  1.117906  z = -3.554999 angstrom
           Maximum rank =  0   Radius =  0.325 angstrom
                   Q00  =   0.250239

H          x = -0.624003  y =  2.996906  z =  1.336001 angstrom
           Maximum rank =  0   Radius =  0.325 angstrom
                   Q00  =   0.129634

H          x =  0.464997  y =  1.761906  z =  0.725001 angstrom
           Maximum rank =  0   Radius =  0.325 angstrom
                   Q00  =   0.136556

H          x = -1.116483  y =  1.277426  z =  1.388947 angstrom
           Maximum rank =  0   Radius =  0.325 angstrom
                   Q00  =   0.132437

C          x =  0.161997  y = -3.095094  z =  1.486001 angstrom
           Maximum rank =  0   Radius =  0.650 angstrom
                   Q00  =  -0.278005

C          x =  1.072997  y = -1.873094  z =  1.398001 angstrom
           Maximum rank =  0   Radius =  0.650 angstrom
                   Q00  =   0.937617

O          x =  1.175997  y = -1.301094  z =  0.289001 angstrom
           Maximum rank =  0   Radius =  0.650 angstrom
                   Q00  =  -0.957436

O          x =  1.666997  y = -1.469094  z =  2.421001 angstrom
           Maximum rank =  0   Radius =  0.650 angstrom
                   Q00  =  -0.883161

H          x =  0.367997  y = -3.758094  z =  0.642001 angstrom
           Maximum rank =  0   Radius =  0.325 angstrom
                   Q00  =   0.074024

H          x = -0.874003  y = -2.766094  z =  1.391001 angstrom
           Maximum rank =  0   Radius =  0.325 angstrom
                   Q00  =   0.072473

H          x =  0.282027  y = -3.675834  z =  2.412461 angstrom
           Maximum rank =  0   Radius =  0.325 angstrom
                   Q00  =   0.083183

Total multipoles referred to origin at
           x =   0.000000,  y =    0.000000,  z =    0.000000 angstrom
                   Q00  =  -0.000000

Finished at 17:54:37 on 27 Apr 2020

  DMA results are available in the Python driver through the
	  variable('DMA DISTRIBUTED MULTIPOLES')
  and
	  variable('DMA TOTAL MULTIPOLES')
  commands.

    Psi4 stopped on: Monday, 27 April 2020 05:54PM
    Psi4 wall time for execution: 0:01:33.73

*** Psi4 exiting successfully. Buy a developer a beer!
