                               Psi4 1.3.2 release

  ==> Input File <==

--------------------------------------------------------------------------
import numpy as np
set {scf_type pk
basis cc-pvdz
d_convergence 10
gdma_switch   0
gdma_limit    0
gdma_origin   [ 0.0,  0.0,  0.0 ]
}
molecule test {
    units Angstrom
    0 1
    --
    0 1
    C               -1.324628334970075    -0.451463869485284    -1.218230166328817
    C               -2.693628334970075    -1.129463869485285    -1.171230166328817
    C               -0.647628334970075    -0.351463869485285     0.117769833671183
    C                0.398371665029925    -1.210463869485284     0.443769833671183
    C               -1.064628334970075     0.598536130514715     1.049769833671183
    C                1.025371665029925    -1.122463869485284     1.688769833671183
    C               -0.443628334970075     0.694536130514716     2.295769833671183
    C                0.604371665029925    -0.166463869485284     2.616769833671183
    H               -0.687628334970075    -0.998463869485285    -1.913230166328817
    H               -1.442628334970075     0.559536130514716    -1.607230166328817
    H               -3.312628334970075    -0.572463869485284    -0.466230166328817
    H                0.715371665029925    -1.965463869485284    -0.260230166328817
    H               -1.893628334970076     1.248536130514716     0.820769833671183
    H                1.802371665029925    -1.827463869485284     1.928769833671183
    H               -0.788628334970075     1.419536130514716     3.019769833671183
    H                1.063371665029925    -0.095463869485284     3.587769833671183
    H               -2.597328334970075    -2.175933869485284    -0.846230166328817
    H               -3.172858334970075    -1.038383869485284    -2.157150166328817
    C                1.880371665029924     0.748536130514716    -2.699230166328817
    C                2.124371665029925     2.122536130514716    -2.088230166328817
    H                1.298371665029925     0.130536130514715    -2.020230166328817
    H                1.339371665029925     0.858536130514716    -3.637230166328817
    H                2.805371665029925     0.244536130514716    -2.947230166328817
    H                2.926371665029925     2.611536130514716    -2.641230166328817
    H                2.407121665029925     2.043796130514715    -1.028110166328817
    H                1.219841665029925     2.743816130514716    -2.164630166328817

}
e, wfn = energy('scf', return_wfn=True)
gdma(wfn)
dmavals = variable('DMA DISTRIBUTED MULTIPOLES')
charges = np.array(dmavals)
print(charges)
np.save('SSI-005PHE-163LEU-1-dimer.npy', np.array(charges))--------------------------------------------------------------------------

*** tstart() called on ds3
*** at Tue Apr 28 07:50:24 2020

   => Loading Basis Set <=

    Name: CC-PVDZ
    Role: ORBITAL
    Keyword: BASIS
    atoms 1-8, 19-20  entry C          line   138 file /theoryfs2/ds/metcalf/miniconda2/envs/tf2gpu/share/psi4/basis/cc-pvdz.gbs
    atoms 9-18, 21-26 entry H          line    22 file /theoryfs2/ds/metcalf/miniconda2/envs/tf2gpu/share/psi4/basis/cc-pvdz.gbs

         ---------------------------------------------------------
                                   SCF
               by Justin Turney, Rob Parrish, Andy Simmonett
                          and Daniel G. A. Smith
                              RHF Reference
                        1 Threads,    500 MiB Core
         ---------------------------------------------------------

  ==> Geometry <==

    Molecular point group: c1
    Full point group: C1

    Geometry (in Angstrom), charge = 0, multiplicity = 1:

       Center              X                  Y                   Z               Mass
    ------------   -----------------  -----------------  -----------------  -----------------
         C           -1.324628334970    -0.451463869485    -1.218230166329    12.000000000000
         C           -2.693628334970    -1.129463869485    -1.171230166329    12.000000000000
         C           -0.647628334970    -0.351463869485     0.117769833671    12.000000000000
         C            0.398371665030    -1.210463869485     0.443769833671    12.000000000000
         C           -1.064628334970     0.598536130515     1.049769833671    12.000000000000
         C            1.025371665030    -1.122463869485     1.688769833671    12.000000000000
         C           -0.443628334970     0.694536130515     2.295769833671    12.000000000000
         C            0.604371665030    -0.166463869485     2.616769833671    12.000000000000
         H           -0.687628334970    -0.998463869485    -1.913230166329     1.007825032230
         H           -1.442628334970     0.559536130515    -1.607230166329     1.007825032230
         H           -3.312628334970    -0.572463869485    -0.466230166329     1.007825032230
         H            0.715371665030    -1.965463869485    -0.260230166329     1.007825032230
         H           -1.893628334970     1.248536130515     0.820769833671     1.007825032230
         H            1.802371665030    -1.827463869485     1.928769833671     1.007825032230
         H           -0.788628334970     1.419536130515     3.019769833671     1.007825032230
         H            1.063371665030    -0.095463869485     3.587769833671     1.007825032230
         H           -2.597328334970    -2.175933869485    -0.846230166329     1.007825032230
         H           -3.172858334970    -1.038383869485    -2.157150166329     1.007825032230
         C            1.880371665030     0.748536130515    -2.699230166329    12.000000000000
         C            2.124371665030     2.122536130515    -2.088230166329    12.000000000000
         H            1.298371665030     0.130536130515    -2.020230166329     1.007825032230
         H            1.339371665030     0.858536130515    -3.637230166329     1.007825032230
         H            2.805371665030     0.244536130515    -2.947230166329     1.007825032230
         H            2.926371665030     2.611536130515    -2.641230166329     1.007825032230
         H            2.407121665030     2.043796130515    -1.028110166329     1.007825032230
         H            1.219841665030     2.743816130515    -2.164630166329     1.007825032230

  Running in c1 symmetry.

  Rotational constants: A =      0.04023  B =      0.02802  C =      0.02059 [cm^-1]
  Rotational constants: A =   1206.21186  B =    839.90007  C =    617.13460 [MHz]
  Nuclear repulsion =  498.265610317716437

  Charge       = 0
  Multiplicity = 1
  Electrons    = 76
  Nalpha       = 38
  Nbeta        = 38

  ==> Algorithm <==

  SCF Algorithm Type is PK.
  DIIS enabled.
  MOM disabled.
  Fractional occupation disabled.
  Guess Type is SAD.
  Energy threshold   = 1.00e-06
  Density threshold  = 1.00e-10
  Integral threshold = 0.00e+00

  ==> Primary Basis <==

  Basis Set: CC-PVDZ
    Blend: CC-PVDZ
    Number of shells: 108
    Number of basis function: 220
    Number of Cartesian functions: 230
    Spherical Harmonics?: true
    Max angular momentum: 2

  ==> Pre-Iterations <==

   -------------------------------------------------------
    Irrep   Nso     Nmo     Nalpha   Nbeta   Ndocc  Nsocc
   -------------------------------------------------------
     A        220     220       0       0       0       0
   -------------------------------------------------------
    Total     220     220      38      38      38       0
   -------------------------------------------------------

  ==> Integral Setup <==

  Using integral reordering PK algorithm.
  Sizing the integral batches needed.
  Building batch lookup table.
   Calculation information:
      Number of atoms:                  26
      Number of AO shells:             108
      Number of primitives:            300
      Number of atomic orbitals:       230
      Number of basis functions:       220

      Integral cutoff                 1.00e-12
      Number of threads:                 1

	Batch   1 pq = [       0,    9405] index = [             0,44231715] size =     44231715
	Batch   2 pq = [    9405,   13301] index = [      44231715,88464951] size =     44233236
	Batch   3 pq = [   13301,   16290] index = [      88464951,132690195] size =     44225244
	Batch   4 pq = [   16290,   18810] index = [     132690195,176917455] size =     44227260
	Batch   5 pq = [   18810,   21030] index = [     176917455,221140965] size =     44223510
	Batch   6 pq = [   21030,   23037] index = [     221140965,265363203] size =     44222238
	Batch   7 pq = [   23037,   24310] index = [     265363203,295500205] size =     30137002
  Task number: 27
  Buffer size: 11059200
  Buffer per thread: 2
  We computed 16904639 shell quartets total.
  Whereas there are 17325441 unique shell quartets.

  ==> DiskJK: Disk-Based J/K Matrices <==

    J tasked:                  Yes
    K tasked:                  Yes
    wK tasked:                  No
    Memory [MiB]:              375
    Schwarz Cutoff:          1E-12

    OpenMP threads:              1

  Minimum eigenvalue in the overlap matrix is 3.1433754293E-04.
  Using Symmetric Orthogonalization.

  SCF Guess: Superposition of Atomic Densities via on-the-fly atomic UHF.

  ==> Iterations <==

                        Total Energy        Delta E     RMS |[F,P]|

   @RHF iter SAD:  -386.89371607009218   -3.86894e+02   0.00000e+00
   @RHF iter   1:  -387.77569138186811   -8.81975e-01   2.72635e-03 DIIS
   @RHF iter   2:  -387.99026013614355   -2.14569e-01   1.13843e-03 DIIS
   @RHF iter   3:  -388.02452710313850   -3.42670e-02   2.49669e-04 DIIS
   @RHF iter   4:  -388.02737505518729   -2.84795e-03   6.26853e-05 DIIS
   @RHF iter   5:  -388.02749163251337   -1.16577e-04   2.14338e-05 DIIS
   @RHF iter   6:  -388.02750638281339   -1.47503e-05   3.91428e-06 DIIS
   @RHF iter   7:  -388.02750701753610   -6.34723e-07   1.15055e-06 DIIS
   @RHF iter   8:  -388.02750707075114   -5.32150e-08   3.02947e-07 DIIS
   @RHF iter   9:  -388.02750707804626   -7.29511e-09   1.27298e-07 DIIS
   @RHF iter  10:  -388.02750707993312   -1.88686e-09   6.98549e-08 DIIS
   @RHF iter  11:  -388.02750708058647   -6.53358e-10   2.46931e-08 DIIS
   @RHF iter  12:  -388.02750708066657   -8.00924e-11   1.05716e-08 DIIS
   @RHF iter  13:  -388.02750708067407   -7.50333e-12   4.42677e-09 DIIS
   @RHF iter  14:  -388.02750708067515   -1.08002e-12   1.18180e-09 DIIS
   @RHF iter  15:  -388.02750708067788   -2.72848e-12   3.72219e-10 DIIS
   @RHF iter  16:  -388.02750708067674    1.13687e-12   1.32765e-10 DIIS
   @RHF iter  17:  -388.02750708067555    1.19371e-12   6.18013e-11 DIIS
  Energy and wave function converged.

  ==> Post-Iterations <==

    Orbital Energies [Eh]
    ---------------------

    Doubly Occupied:

       1A    -11.237570     2A    -11.236850     3A    -11.236660
       4A    -11.232660     5A    -11.231313     6A    -11.231159
       7A    -11.227797     8A    -11.224056     9A    -11.213208
      10A    -11.209080    11A     -1.153634    12A     -1.064093
      13A     -1.014014    14A     -1.011467    15A     -0.982056
      16A     -0.862390    17A     -0.833177    18A     -0.825390
      19A     -0.785966    20A     -0.691665    21A     -0.640775
      22A     -0.635657    23A     -0.597742    24A     -0.592574
      25A     -0.589334    26A     -0.587794    27A     -0.577332
      28A     -0.540900    29A     -0.519221    30A     -0.501701
      31A     -0.499018    32A     -0.484211    33A     -0.480518
      34A     -0.476500    35A     -0.472501    36A     -0.468312
      37A     -0.331830    38A     -0.321776

    Virtual:

      39A      0.132794    40A      0.139221    41A      0.175643
      42A      0.192698    43A      0.203420    44A      0.206468
      45A      0.235532    46A      0.239442    47A      0.241583
      48A      0.250835    49A      0.260598    50A      0.264608
      51A      0.273430    52A      0.285515    53A      0.296310
      54A      0.306724    55A      0.312567    56A      0.336223
      57A      0.348470    58A      0.389510    59A      0.402391
      60A      0.431483    61A      0.449848    62A      0.465914
      63A      0.486962    64A      0.495738    65A      0.570890
      66A      0.581211    67A      0.597547    68A      0.604755
      69A      0.610231    70A      0.619998    71A      0.634861
      72A      0.657950    73A      0.684496    74A      0.690750
      75A      0.701767    76A      0.721006    77A      0.729394
      78A      0.740668    79A      0.741254    80A      0.745333
      81A      0.755487    82A      0.764281    83A      0.782524
      84A      0.802360    85A      0.838800    86A      0.843752
      87A      0.852552    88A      0.862481    89A      0.874842
      90A      0.879085    91A      0.887959    92A      0.890839
      93A      0.899727    94A      0.903520    95A      0.908532
      96A      0.913353    97A      0.923029    98A      0.937736
      99A      0.939253   100A      0.944434   101A      0.952793
     102A      0.958625   103A      0.971225   104A      0.992799
     105A      0.996924   106A      1.035638   107A      1.057570
     108A      1.088555   109A      1.115913   110A      1.122616
     111A      1.134026   112A      1.146054   113A      1.148779
     114A      1.161508   115A      1.187958   116A      1.217443
     117A      1.234143   118A      1.245728   119A      1.255322
     120A      1.290051   121A      1.300824   122A      1.305120
     123A      1.319542   124A      1.356388   125A      1.396188
     126A      1.431382   127A      1.462306   128A      1.486205
     129A      1.490836   130A      1.508030   131A      1.529909
     132A      1.587448   133A      1.605805   134A      1.620769
     135A      1.675224   136A      1.689956   137A      1.692725
     138A      1.704622   139A      1.729339   140A      1.753123
     141A      1.755380   142A      1.773389   143A      1.838708
     144A      1.845920   145A      1.857038   146A      1.870291
     147A      1.878449   148A      1.883923   149A      1.891707
     150A      1.898522   151A      1.903796   152A      1.912932
     153A      1.924154   154A      1.932193   155A      1.937283
     156A      1.940701   157A      1.952284   158A      1.958118
     159A      1.961791   160A      1.966383   161A      1.971779
     162A      1.973714   163A      1.985901   164A      2.007511
     165A      2.010445   166A      2.018300   167A      2.047089
     168A      2.065164   169A      2.071507   170A      2.096504
     171A      2.119460   172A      2.141323   173A      2.141649
     174A      2.154112   175A      2.157973   176A      2.173366
     177A      2.181637   178A      2.188674   179A      2.244215
     180A      2.254242   181A      2.271808   182A      2.306922
     183A      2.311892   184A      2.320486   185A      2.331710
     186A      2.350703   187A      2.377850   188A      2.439600
     189A      2.457529   190A      2.466328   191A      2.482752
     192A      2.490891   193A      2.522616   194A      2.545051
     195A      2.584522   196A      2.599924   197A      2.604606
     198A      2.644197   199A      2.743377   200A      2.763469
     201A      2.769102   202A      2.770796   203A      2.785478
     204A      2.803325   205A      2.817965   206A      2.841919
     207A      2.856349   208A      2.863400   209A      2.872112
     210A      2.910145   211A      2.958287   212A      2.981552
     213A      2.985447   214A      3.001850   215A      3.028294
     216A      3.054630   217A      3.187885   218A      3.207492
     219A      3.305099   220A      3.968268

    Final Occupation by Irrep:
              A
    DOCC [    38 ]

  @RHF Final Energy:  -388.02750708067555

   => Energetics <=

    Nuclear Repulsion Energy =            498.2656103177164368
    One-Electron Energy =               -1510.9424319934364576
    Two-Electron Energy =                 624.6493145950445296
    Total Energy =                       -388.0275070806754911

Computation Completed

Properties will be evaluated at   0.000000,   0.000000,   0.000000 [a0]

Properties computed using the SCF density matrix

  Nuclear Dipole Moment: [e a0]
     X:     1.5770      Y:     2.9875      Z:   -11.5608

  Electronic Dipole Moment: [e a0]
     X:    -1.6839      Y:    -3.0310      Z:    11.5199

  Dipole Moment: [e a0]
     X:    -0.1068      Y:    -0.0436      Z:    -0.0409     Total:     0.1224

  Dipole Moment: [D]
     X:    -0.2715      Y:    -0.1107      Z:    -0.1039     Total:     0.3111

*** tstop() called on ds3 at Tue Apr 28 07:54:59 2020
Module time:
	user time   =     113.59 seconds =       1.89 minutes
	system time =      40.70 seconds =       0.68 minutes
	total time  =        275 seconds =       4.58 minutes
Total time:
	user time   =     113.59 seconds =       1.89 minutes
	system time =      40.70 seconds =       0.68 minutes
	total time  =        275 seconds =       4.58 minutes
                                     G D M A

                                 by Anthony Stone

                           version 2.2.06, 22 June 2011

               Distributed Multipoles from Gaussian wavefunctions

Starting at 7:54:59 on 28 Apr 2020

Using SCF density matrix from file ./SSI/SSI-005PHE-163LEU-1-dimer.test.7417.fchk

                         Distributed Multipole Analysis

Standard DMA

Positions and radii in angstrom
Multipole moments in atomic units, ea_0^k for rank k

C          x = -1.324628  y = -0.451464  z = -1.218230 angstrom
           Maximum rank =  0   Radius =  0.650 angstrom
                   Q00  =  -0.042905

C          x = -2.693628  y = -1.129464  z = -1.171230 angstrom
           Maximum rank =  0   Radius =  0.650 angstrom
                   Q00  =  -0.219351

C          x = -0.647628  y = -0.351464  z =  0.117770 angstrom
           Maximum rank =  0   Radius =  0.650 angstrom
                   Q00  =  -0.107805

C          x =  0.398372  y = -1.210464  z =  0.443770 angstrom
           Maximum rank =  0   Radius =  0.650 angstrom
                   Q00  =  -0.044270

C          x = -1.064628  y =  0.598536  z =  1.049770 angstrom
           Maximum rank =  0   Radius =  0.650 angstrom
                   Q00  =  -0.027303

C          x =  1.025372  y = -1.122464  z =  1.688770 angstrom
           Maximum rank =  0   Radius =  0.650 angstrom
                   Q00  =  -0.079683

C          x = -0.443628  y =  0.694536  z =  2.295770 angstrom
           Maximum rank =  0   Radius =  0.650 angstrom
                   Q00  =  -0.069536

C          x =  0.604372  y = -0.166464  z =  2.616770 angstrom
           Maximum rank =  0   Radius =  0.650 angstrom
                   Q00  =  -0.095327

H          x = -0.687628  y = -0.998464  z = -1.913230 angstrom
           Maximum rank =  0   Radius =  0.325 angstrom
                   Q00  =   0.062960

H          x = -1.442628  y =  0.559536  z = -1.607230 angstrom
           Maximum rank =  0   Radius =  0.325 angstrom
                   Q00  =   0.067812

H          x = -3.312628  y = -0.572464  z = -0.466230 angstrom
           Maximum rank =  0   Radius =  0.325 angstrom
                   Q00  =   0.080086

H          x =  0.715372  y = -1.965464  z = -0.260230 angstrom
           Maximum rank =  0   Radius =  0.325 angstrom
                   Q00  =   0.058075

H          x = -1.893628  y =  1.248536  z =  0.820770 angstrom
           Maximum rank =  0   Radius =  0.325 angstrom
                   Q00  =   0.056300

H          x =  1.802372  y = -1.827464  z =  1.928770 angstrom
           Maximum rank =  0   Radius =  0.325 angstrom
                   Q00  =   0.066367

H          x = -0.788628  y =  1.419536  z =  3.019770 angstrom
           Maximum rank =  0   Radius =  0.325 angstrom
                   Q00  =   0.066023

H          x =  1.063372  y = -0.095464  z =  3.587770 angstrom
           Maximum rank =  0   Radius =  0.325 angstrom
                   Q00  =   0.062607

H          x = -2.597328  y = -2.175934  z = -0.846230 angstrom
           Maximum rank =  0   Radius =  0.325 angstrom
                   Q00  =   0.086881

H          x = -3.172858  y = -1.038384  z = -2.157150 angstrom
           Maximum rank =  0   Radius =  0.325 angstrom
                   Q00  =   0.083294

C          x =  1.880372  y =  0.748536  z = -2.699230 angstrom
           Maximum rank =  0   Radius =  0.650 angstrom
                   Q00  =  -0.249299

C          x =  2.124372  y =  2.122536  z = -2.088230 angstrom
           Maximum rank =  0   Radius =  0.650 angstrom
                   Q00  =  -0.225081

H          x =  1.298372  y =  0.130536  z = -2.020230 angstrom
           Maximum rank =  0   Radius =  0.325 angstrom
                   Q00  =   0.087708

H          x =  1.339372  y =  0.858536  z = -3.637230 angstrom
           Maximum rank =  0   Radius =  0.325 angstrom
                   Q00  =   0.070486

H          x =  2.805372  y =  0.244536  z = -2.947230 angstrom
           Maximum rank =  0   Radius =  0.325 angstrom
                   Q00  =   0.077124

H          x =  2.926372  y =  2.611536  z = -2.641230 angstrom
           Maximum rank =  0   Radius =  0.325 angstrom
                   Q00  =   0.074671

H          x =  2.407122  y =  2.043796  z = -1.028110 angstrom
           Maximum rank =  0   Radius =  0.325 angstrom
                   Q00  =   0.085073

H          x =  1.219842  y =  2.743816  z = -2.164630 angstrom
           Maximum rank =  0   Radius =  0.325 angstrom
                   Q00  =   0.075094

Total multipoles referred to origin at
           x =   0.000000,  y =    0.000000,  z =    0.000000 angstrom
                   Q00  =  -0.000000

Finished at 7:54:59 on 28 Apr 2020

  DMA results are available in the Python driver through the
	  variable('DMA DISTRIBUTED MULTIPOLES')
  and
	  variable('DMA TOTAL MULTIPOLES')
  commands.

    Psi4 stopped on: Tuesday, 28 April 2020 07:54AM
    Psi4 wall time for execution: 0:04:35.15

*** Psi4 exiting successfully. Buy a developer a beer!
