                               Psi4 1.3.2 release

  ==> Input File <==

--------------------------------------------------------------------------
import numpy as np
set {scf_type pk
basis cc-pvdz
d_convergence 10
gdma_switch   0
gdma_limit    0
gdma_origin   [ 0.0,  0.0,  0.0 ]
}
molecule test {
    units Angstrom
    0 1
    --
    0 1
    C                0.574712564563744     0.632066795338502     0.825546917471380
    C               -0.127287435436256     1.892066795338502     1.347546917471380
    C                1.996712564563744     0.398066795338502     1.276546917471379
    H               -0.031287435436256    -0.232933204661498     1.101546917471379
    H                0.605712564563744     0.710066795338502    -0.261453082528620
    H                0.529712564563744     2.758066795338502     1.269546917471379
    H               -0.402287435436256     1.743066795338502     2.392546917471379
    H                2.604712564563744     1.279066795338502     1.045546917471380
    H                2.011712564563744     0.240066795338502     2.360546917471379
    H               -1.024637435436256     2.042954795338502     0.729486917471380
    H                2.374122564563744    -0.489142904661498     0.746996917471380
    C               -1.702287435436256    -1.583933204661498    -1.148453082528620
    C               -0.704287435436256    -1.293933204661498    -2.239453082528620
    H               -2.311287435436256    -2.456933204661498    -1.373453082528620
    H               -1.145287435436256    -1.768933204661498    -0.232453082528620
    H               -2.305287435436256    -0.689933204661498    -1.035453082528620
    H                0.009712564563744    -2.116933204661497    -2.311453082528620
    H               -0.157287435436256    -0.398933204661498    -1.959453082528620
    H               -1.205577435436256    -1.147423704661498    -3.207563082528620

}
e, wfn = energy('scf', return_wfn=True)
gdma(wfn)
dmavals = variable('DMA DISTRIBUTED MULTIPOLES')
charges = np.array(dmavals)
print(charges)
np.save('SSI-126LYS-158ILE-1-dimer.npy', np.array(charges))--------------------------------------------------------------------------

*** tstart() called on ds3
*** at Sun Apr 26 22:44:32 2020

   => Loading Basis Set <=

    Name: CC-PVDZ
    Role: ORBITAL
    Keyword: BASIS
    atoms 1-3, 12-13  entry C          line   138 file /theoryfs2/ds/metcalf/miniconda2/envs/tf2gpu/share/psi4/basis/cc-pvdz.gbs
    atoms 4-11, 14-19 entry H          line    22 file /theoryfs2/ds/metcalf/miniconda2/envs/tf2gpu/share/psi4/basis/cc-pvdz.gbs

         ---------------------------------------------------------
                                   SCF
               by Justin Turney, Rob Parrish, Andy Simmonett
                          and Daniel G. A. Smith
                              RHF Reference
                        1 Threads,    500 MiB Core
         ---------------------------------------------------------

  ==> Geometry <==

    Molecular point group: c1
    Full point group: C1

    Geometry (in Angstrom), charge = 0, multiplicity = 1:

       Center              X                  Y                   Z               Mass
    ------------   -----------------  -----------------  -----------------  -----------------
         C            0.574712564564     0.632066795339     0.825546917471    12.000000000000
         C           -0.127287435436     1.892066795339     1.347546917471    12.000000000000
         C            1.996712564564     0.398066795339     1.276546917471    12.000000000000
         H           -0.031287435436    -0.232933204661     1.101546917471     1.007825032230
         H            0.605712564564     0.710066795339    -0.261453082529     1.007825032230
         H            0.529712564564     2.758066795339     1.269546917471     1.007825032230
         H           -0.402287435436     1.743066795339     2.392546917471     1.007825032230
         H            2.604712564564     1.279066795339     1.045546917471     1.007825032230
         H            2.011712564564     0.240066795339     2.360546917471     1.007825032230
         H           -1.024637435436     2.042954795339     0.729486917471     1.007825032230
         H            2.374122564564    -0.489142904661     0.746996917471     1.007825032230
         C           -1.702287435436    -1.583933204661    -1.148453082529    12.000000000000
         C           -0.704287435436    -1.293933204661    -2.239453082529    12.000000000000
         H           -2.311287435436    -2.456933204661    -1.373453082529     1.007825032230
         H           -1.145287435436    -1.768933204661    -0.232453082529     1.007825032230
         H           -2.305287435436    -0.689933204661    -1.035453082529     1.007825032230
         H            0.009712564564    -2.116933204661    -2.311453082529     1.007825032230
         H           -0.157287435436    -0.398933204661    -1.959453082529     1.007825032230
         H           -1.205577435436    -1.147423704661    -3.207563082529     1.007825032230

  Running in c1 symmetry.

  Rotational constants: A =      0.19638  B =      0.04714  C =      0.04199 [cm^-1]
  Rotational constants: A =   5887.33808  B =   1413.25322  C =   1258.78792 [MHz]
  Nuclear repulsion =  181.594774916452025

  Charge       = 0
  Multiplicity = 1
  Electrons    = 44
  Nalpha       = 22
  Nbeta        = 22

  ==> Algorithm <==

  SCF Algorithm Type is PK.
  DIIS enabled.
  MOM disabled.
  Fractional occupation disabled.
  Guess Type is SAD.
  Energy threshold   = 1.00e-06
  Density threshold  = 1.00e-10
  Integral threshold = 0.00e+00

  ==> Primary Basis <==

  Basis Set: CC-PVDZ
    Blend: CC-PVDZ
    Number of shells: 72
    Number of basis function: 140
    Number of Cartesian functions: 145
    Spherical Harmonics?: true
    Max angular momentum: 2

  ==> Pre-Iterations <==

   -------------------------------------------------------
    Irrep   Nso     Nmo     Nalpha   Nbeta   Ndocc  Nsocc
   -------------------------------------------------------
     A        140     140       0       0       0       0
   -------------------------------------------------------
    Total     140     140      22      22      22       0
   -------------------------------------------------------

  ==> Integral Setup <==

  Using integral reordering PK algorithm.
  Sizing the integral batches needed.
  Building batch lookup table.
   Calculation information:
      Number of atoms:                  19
      Number of AO shells:              72
      Number of primitives:            180
      Number of atomic orbitals:       145
      Number of basis functions:       140

      Integral cutoff                 1.00e-12
      Number of threads:                 1

	Batch   1 pq = [       0,    9405] index = [             0,44231715] size =     44231715
	Batch   2 pq = [    9405,    9870] index = [      44231715,48713385] size =      4481670
  Task number: 5
  Buffer size: 11059200
  Buffer per thread: 2
  We computed 3023077 shell quartets total.
  Whereas there are 3454506 unique shell quartets.

  ==> DiskJK: Disk-Based J/K Matrices <==

    J tasked:                  Yes
    K tasked:                  Yes
    wK tasked:                  No
    Memory [MiB]:              375
    Schwarz Cutoff:          1E-12

    OpenMP threads:              1

  Minimum eigenvalue in the overlap matrix is 5.1472008420E-03.
  Using Symmetric Orthogonalization.

  SCF Guess: Superposition of Atomic Densities via on-the-fly atomic UHF.

  ==> Iterations <==

                        Total Energy        Delta E     RMS |[F,P]|

   @RHF iter SAD:  -196.44997092038099   -1.96450e+02   0.00000e+00
   @RHF iter   1:  -197.30371273790041   -8.53742e-01   3.84893e-03 DIIS
   @RHF iter   2:  -197.46693329832172   -1.63221e-01   1.65128e-03 DIIS
   @RHF iter   3:  -197.49573988090964   -2.88066e-02   3.27691e-04 DIIS
   @RHF iter   4:  -197.49797118997355   -2.23131e-03   5.02654e-05 DIIS
   @RHF iter   5:  -197.49801127794237   -4.00880e-05   1.53568e-05 DIIS
   @RHF iter   6:  -197.49801487936199   -3.60142e-06   2.26059e-06 DIIS
   @RHF iter   7:  -197.49801497638634   -9.70244e-08   4.52241e-07 DIIS
   @RHF iter   8:  -197.49801498036115   -3.97480e-09   1.26515e-07 DIIS
   @RHF iter   9:  -197.49801498066608   -3.04937e-10   3.67806e-08 DIIS
   @RHF iter  10:  -197.49801498070156   -3.54703e-11   8.40969e-09 DIIS
   @RHF iter  11:  -197.49801498070380   -2.24532e-12   1.65406e-09 DIIS
   @RHF iter  12:  -197.49801498070394   -1.42109e-13   3.27749e-10 DIIS
   @RHF iter  13:  -197.49801498070332    6.25278e-13   6.10993e-11 DIIS
  Energy and wave function converged.

  ==> Post-Iterations <==

    Orbital Energies [Eh]
    ---------------------

    Doubly Occupied:

       1A    -11.217601     2A    -11.217119     3A    -11.216664
       4A    -11.214403     5A    -11.213097     6A     -1.055854
       7A     -1.025280     8A     -0.927998     9A     -0.833194
      10A     -0.792236    11A     -0.629466    12A     -0.606421
      13A     -0.603328    14A     -0.591391    15A     -0.556510
      16A     -0.535006    17A     -0.500960    18A     -0.488753
      19A     -0.484190    20A     -0.471918    21A     -0.465792
      22A     -0.459192

    Virtual:

      23A      0.167053    24A      0.198756    25A      0.212322
      26A      0.221470    27A      0.239653    28A      0.251409
      29A      0.258085    30A      0.266982    31A      0.275350
      32A      0.278823    33A      0.301176    34A      0.310634
      35A      0.350490    36A      0.361013    37A      0.372634
      38A      0.416045    39A      0.434001    40A      0.575019
      41A      0.578705    42A      0.595927    43A      0.603073
      44A      0.607936    45A      0.617448    46A      0.631652
      47A      0.655096    48A      0.701490    49A      0.775714
      50A      0.779645    51A      0.798464    52A      0.847942
      53A      0.860623    54A      0.877024    55A      0.887244
      56A      0.892346    57A      0.896652    58A      0.900674
      59A      0.907258    60A      0.913230    61A      0.918826
      62A      0.925433    63A      0.935116    64A      0.962491
      65A      0.974017    66A      0.977278    67A      0.998352
      68A      1.002225    69A      1.116840    70A      1.128040
      71A      1.140982    72A      1.152373    73A      1.205445
      74A      1.292966    75A      1.382635    76A      1.472000
      77A      1.473539    78A      1.488146    79A      1.501783
      80A      1.526218    81A      1.594154    82A      1.640924
      83A      1.664238    84A      1.676951    85A      1.686570
      86A      1.698303    87A      1.714876    88A      1.847022
      89A      1.851475    90A      1.865806    91A      1.878616
      92A      1.882346    93A      1.900228    94A      1.917545
      95A      1.921797    96A      1.947238    97A      1.948815
      98A      1.949472    99A      1.958949   100A      1.968082
     101A      1.984770   102A      1.987603   103A      1.999186
     104A      2.011666   105A      2.023121   106A      2.033492
     107A      2.056385   108A      2.111336   109A      2.131798
     110A      2.160366   111A      2.180952   112A      2.272148
     113A      2.284677   114A      2.296629   115A      2.313520
     116A      2.338681   117A      2.360860   118A      2.463931
     119A      2.475218   120A      2.497686   121A      2.531131
     122A      2.577013   123A      2.584124   124A      2.604205
     125A      2.623700   126A      2.635687   127A      2.754469
     128A      2.759563   129A      2.777284   130A      2.783229
     131A      2.806508   132A      2.816214   133A      2.847844
     134A      2.860909   135A      2.910895   136A      2.951713
     137A      2.964905   138A      2.967279   139A      2.980489
     140A      3.091166

    Final Occupation by Irrep:
              A
    DOCC [    22 ]

  @RHF Final Energy:  -197.49801498070332

   => Energetics <=

    Nuclear Repulsion Energy =            181.5947749164520246
    One-Electron Energy =                -623.9728371917963159
    Two-Electron Energy =                 244.8800472946409741
    Total Energy =                       -197.4980149807033172

Computation Completed

Properties will be evaluated at   0.000000,   0.000000,   0.000000 [a0]

Properties computed using the SCF density matrix

  Nuclear Dipole Moment: [e a0]
     X:    -0.4193      Y:    -0.4949      Z:    -0.6891

  Electronic Dipole Moment: [e a0]
     X:     0.4156      Y:     0.4858      Z:     0.6879

  Dipole Moment: [e a0]
     X:    -0.0037      Y:    -0.0091      Z:    -0.0012     Total:     0.0099

  Dipole Moment: [D]
     X:    -0.0094      Y:    -0.0231      Z:    -0.0032     Total:     0.0251

*** tstop() called on ds3 at Sun Apr 26 22:45:02 2020
Module time:
	user time   =      15.99 seconds =       0.27 minutes
	system time =       5.72 seconds =       0.10 minutes
	total time  =         30 seconds =       0.50 minutes
Total time:
	user time   =      15.99 seconds =       0.27 minutes
	system time =       5.72 seconds =       0.10 minutes
	total time  =         30 seconds =       0.50 minutes
                                     G D M A

                                 by Anthony Stone

                           version 2.2.06, 22 June 2011

               Distributed Multipoles from Gaussian wavefunctions

Starting at 22:45:2 on 26 Apr 2020

Using SCF density matrix from file ./SSI/SSI-126LYS-158ILE-1-dimer.test.18722.fchk

                         Distributed Multipole Analysis

Standard DMA

Positions and radii in angstrom
Multipole moments in atomic units, ea_0^k for rank k

C          x =  0.574713  y =  0.632067  z =  0.825547 angstrom
           Maximum rank =  0   Radius =  0.650 angstrom
                   Q00  =  -0.072381

C          x = -0.127287  y =  1.892067  z =  1.347547 angstrom
           Maximum rank =  0   Radius =  0.650 angstrom
                   Q00  =  -0.244353

C          x =  1.996713  y =  0.398067  z =  1.276547 angstrom
           Maximum rank =  0   Radius =  0.650 angstrom
                   Q00  =  -0.237846

H          x = -0.031287  y = -0.232933  z =  1.101547 angstrom
           Maximum rank =  0   Radius =  0.325 angstrom
                   Q00  =   0.044658

H          x =  0.605713  y =  0.710067  z = -0.261453 angstrom
           Maximum rank =  0   Radius =  0.325 angstrom
                   Q00  =   0.034524

H          x =  0.529713  y =  2.758067  z =  1.269547 angstrom
           Maximum rank =  0   Radius =  0.325 angstrom
                   Q00  =   0.078060

H          x = -0.402287  y =  1.743067  z =  2.392547 angstrom
           Maximum rank =  0   Radius =  0.325 angstrom
                   Q00  =   0.078418

H          x =  2.604713  y =  1.279067  z =  1.045547 angstrom
           Maximum rank =  0   Radius =  0.325 angstrom
                   Q00  =   0.076079

H          x =  2.011713  y =  0.240067  z =  2.360547 angstrom
           Maximum rank =  0   Radius =  0.325 angstrom
                   Q00  =   0.073347

H          x = -1.024637  y =  2.042955  z =  0.729487 angstrom
           Maximum rank =  0   Radius =  0.325 angstrom
                   Q00  =   0.087351

H          x =  2.374123  y = -0.489143  z =  0.746997 angstrom
           Maximum rank =  0   Radius =  0.325 angstrom
                   Q00  =   0.082642

C          x = -1.702287  y = -1.583933  z = -1.148453 angstrom
           Maximum rank =  0   Radius =  0.650 angstrom
                   Q00  =  -0.227739

C          x = -0.704287  y = -1.293933  z = -2.239453 angstrom
           Maximum rank =  0   Radius =  0.650 angstrom
                   Q00  =  -0.232211

H          x = -2.311287  y = -2.456933  z = -1.373453 angstrom
           Maximum rank =  0   Radius =  0.325 angstrom
                   Q00  =   0.079853

H          x = -1.145287  y = -1.768933  z = -0.232453 angstrom
           Maximum rank =  0   Radius =  0.325 angstrom
                   Q00  =   0.076654

H          x = -2.305287  y = -0.689933  z = -1.035453 angstrom
           Maximum rank =  0   Radius =  0.325 angstrom
                   Q00  =   0.074340

H          x =  0.009713  y = -2.116933  z = -2.311453 angstrom
           Maximum rank =  0   Radius =  0.325 angstrom
                   Q00  =   0.073381

H          x = -0.157287  y = -0.398933  z = -1.959453 angstrom
           Maximum rank =  0   Radius =  0.325 angstrom
                   Q00  =   0.079264

H          x = -1.205577  y = -1.147424  z = -3.207563 angstrom
           Maximum rank =  0   Radius =  0.325 angstrom
                   Q00  =   0.075958

Total multipoles referred to origin at
           x =   0.000000,  y =    0.000000,  z =    0.000000 angstrom
                   Q00  =  -0.000000

Finished at 22:45:2 on 26 Apr 2020

  DMA results are available in the Python driver through the
	  variable('DMA DISTRIBUTED MULTIPOLES')
  and
	  variable('DMA TOTAL MULTIPOLES')
  commands.

    Psi4 stopped on: Sunday, 26 April 2020 10:45PM
    Psi4 wall time for execution: 0:00:29.66

*** Psi4 exiting successfully. Buy a developer a beer!
