                               Psi4 1.3.2 release

  ==> Input File <==

--------------------------------------------------------------------------
import numpy as np
set {scf_type pk
basis cc-pvdz
d_convergence 10
gdma_switch   0
gdma_limit    0
gdma_origin   [ 0.0,  0.0,  0.0 ]
}
molecule test {
    units Angstrom
    0 1
    --
    0 1
    C               -0.919496196116981     3.452218234037356     2.301207380077849
    C                0.263503803883019    -0.121781765962644     1.774207380077850
    C               -0.085496196116981     1.203218234037357     1.530207380077850
    C                0.155503803883019    -0.643781765962644     3.056207380077849
    C               -0.554496196116981     2.015218234037357     2.561207380077849
    C               -0.297496196116981     0.162218234037356     4.092207380077848
    C               -0.649496196116981     1.486218234037356     3.845207380077849
    H                0.620503803883019    -0.744781765962644     0.966207380077849
    H                0.021503803883019     1.598218234037357     0.529207380077849
    H                0.415503803883019    -1.674781765962644     3.243207380077849
    H               -0.347496196116981    -0.238781765962644     5.092207380077848
    H               -0.159496196116981     3.882218234037356     1.648207380077849
    H               -0.883496196116981     4.001218234037356     3.242207380077849
    H               -0.987496196116981     2.105218234037356     4.665207380077849
    H               -1.905876196116981     3.596915234037356     1.836314380077849
    C                1.663503803883019     1.601218234037356    -2.042792619922151
    C                1.457503803883019    -0.870781765962644    -1.627792619922151
    C                0.934503803883019     0.290218234037356    -2.187792619922151
    C                0.794503803883019    -2.085781765962644    -1.760792619922151
    C               -0.402496196116981    -2.145781765962644    -2.463792619922151
    C               -0.260496196116981     0.216218234037356    -2.897792619922151
    C               -0.930496196116981    -0.994781765962644    -3.035792619922151
    O               -1.051496196116981    -3.335781765962644    -2.596792619922151
    H                2.388503803883019    -0.827781765962644    -1.072792619922151
    H                1.205503803883019    -2.980781765962644    -1.315792619922151
    H                2.164503803883020     1.609218234037356    -1.076792619922151
    H                0.944503803883019     2.422218234037356    -2.047792619922151
    H               -0.685496196116981     1.112218234037356    -3.336792619922151
    H               -0.571496196116981    -4.064781765962644    -2.186792619922151
    H               -1.866496196116981    -1.045781765962644    -3.575792619922151
    H                2.415113803883020     1.754711234037357    -2.831152619922151

}
e, wfn = energy('scf', return_wfn=True)
gdma(wfn)
dmavals = variable('DMA DISTRIBUTED MULTIPOLES')
charges = np.array(dmavals)
print(charges)
np.save('SSI-127PHE-183TYR-1-dimer.npy', np.array(charges))--------------------------------------------------------------------------

*** tstart() called on ds3
*** at Sun Apr 26 19:29:05 2020

   => Loading Basis Set <=

    Name: CC-PVDZ
    Role: ORBITAL
    Keyword: BASIS
    atoms 1-7, 16-22  entry C          line   138 file /theoryfs2/ds/metcalf/miniconda2/envs/tf2gpu/share/psi4/basis/cc-pvdz.gbs
    atoms 8-15, 24-31 entry H          line    22 file /theoryfs2/ds/metcalf/miniconda2/envs/tf2gpu/share/psi4/basis/cc-pvdz.gbs
    atoms 23          entry O          line   198 file /theoryfs2/ds/metcalf/miniconda2/envs/tf2gpu/share/psi4/basis/cc-pvdz.gbs

         ---------------------------------------------------------
                                   SCF
               by Justin Turney, Rob Parrish, Andy Simmonett
                          and Daniel G. A. Smith
                              RHF Reference
                        1 Threads,    500 MiB Core
         ---------------------------------------------------------

  ==> Geometry <==

    Molecular point group: c1
    Full point group: C1

    Geometry (in Angstrom), charge = 0, multiplicity = 1:

       Center              X                  Y                   Z               Mass
    ------------   -----------------  -----------------  -----------------  -----------------
         C           -0.919496196117     3.452218234037     2.301207380078    12.000000000000
         C            0.263503803883    -0.121781765963     1.774207380078    12.000000000000
         C           -0.085496196117     1.203218234037     1.530207380078    12.000000000000
         C            0.155503803883    -0.643781765963     3.056207380078    12.000000000000
         C           -0.554496196117     2.015218234037     2.561207380078    12.000000000000
         C           -0.297496196117     0.162218234037     4.092207380078    12.000000000000
         C           -0.649496196117     1.486218234037     3.845207380078    12.000000000000
         H            0.620503803883    -0.744781765963     0.966207380078     1.007825032230
         H            0.021503803883     1.598218234037     0.529207380078     1.007825032230
         H            0.415503803883    -1.674781765963     3.243207380078     1.007825032230
         H           -0.347496196117    -0.238781765963     5.092207380078     1.007825032230
         H           -0.159496196117     3.882218234037     1.648207380078     1.007825032230
         H           -0.883496196117     4.001218234037     3.242207380078     1.007825032230
         H           -0.987496196117     2.105218234037     4.665207380078     1.007825032230
         H           -1.905876196117     3.596915234037     1.836314380078     1.007825032230
         C            1.663503803883     1.601218234037    -2.042792619922    12.000000000000
         C            1.457503803883    -0.870781765963    -1.627792619922    12.000000000000
         C            0.934503803883     0.290218234037    -2.187792619922    12.000000000000
         C            0.794503803883    -2.085781765963    -1.760792619922    12.000000000000
         C           -0.402496196117    -2.145781765963    -2.463792619922    12.000000000000
         C           -0.260496196117     0.216218234037    -2.897792619922    12.000000000000
         C           -0.930496196117    -0.994781765963    -3.035792619922    12.000000000000
         O           -1.051496196117    -3.335781765963    -2.596792619922    15.994914619570
         H            2.388503803883    -0.827781765963    -1.072792619922     1.007825032230
         H            1.205503803883    -2.980781765963    -1.315792619922     1.007825032230
         H            2.164503803883     1.609218234037    -1.076792619922     1.007825032230
         H            0.944503803883     2.422218234037    -2.047792619922     1.007825032230
         H           -0.685496196117     1.112218234037    -3.336792619922     1.007825032230
         H           -0.571496196117    -4.064781765963    -2.186792619922     1.007825032230
         H           -1.866496196117    -1.045781765963    -3.575792619922     1.007825032230
         H            2.415113803883     1.754711234037    -2.831152619922     1.007825032230

  Running in c1 symmetry.

  Rotational constants: A =      0.02984  B =      0.00937  C =      0.00811 [cm^-1]
  Rotational constants: A =    894.69211  B =    280.86927  C =    242.99539 [MHz]
  Nuclear repulsion =  881.256999711294156

  Charge       = 0
  Multiplicity = 1
  Electrons    = 108
  Nalpha       = 54
  Nbeta        = 54

  ==> Algorithm <==

  SCF Algorithm Type is PK.
  DIIS enabled.
  MOM disabled.
  Fractional occupation disabled.
  Guess Type is SAD.
  Energy threshold   = 1.00e-06
  Density threshold  = 1.00e-10
  Integral threshold = 0.00e+00

  ==> Primary Basis <==

  Basis Set: CC-PVDZ
    Blend: CC-PVDZ
    Number of shells: 138
    Number of basis function: 290
    Number of Cartesian functions: 305
    Spherical Harmonics?: true
    Max angular momentum: 2

  ==> Pre-Iterations <==

   -------------------------------------------------------
    Irrep   Nso     Nmo     Nalpha   Nbeta   Ndocc  Nsocc
   -------------------------------------------------------
     A        290     290       0       0       0       0
   -------------------------------------------------------
    Total     290     290      54      54      54       0
   -------------------------------------------------------

  ==> Integral Setup <==

  Using integral reordering PK algorithm.
  Sizing the integral batches needed.
  Building batch lookup table.
   Calculation information:
      Number of atoms:                  31
      Number of AO shells:             138
      Number of primitives:            410
      Number of atomic orbitals:       305
      Number of basis functions:       290

      Integral cutoff                 1.00e-12
      Number of threads:                 1

	Batch   1 pq = [       0,    9405] index = [             0,44231715] size =     44231715
	Batch   2 pq = [    9405,   13301] index = [      44231715,88464951] size =     44233236
	Batch   3 pq = [   13301,   16290] index = [      88464951,132690195] size =     44225244
	Batch   4 pq = [   16290,   18810] index = [     132690195,176917455] size =     44227260
	Batch   5 pq = [   18810,   21030] index = [     176917455,221140965] size =     44223510
	Batch   6 pq = [   21030,   23037] index = [     221140965,265363203] size =     44222238
	Batch   7 pq = [   23037,   24883] index = [     265363203,309594286] size =     44231083
	Batch   8 pq = [   24883,   26601] index = [     309594286,353819901] size =     44225615
	Batch   9 pq = [   26601,   28214] index = [     353819901,398029005] size =     44209104
	Batch  10 pq = [   28214,   29740] index = [     398029005,442248670] size =     44219665
	Batch  11 pq = [   29740,   31191] index = [     442248670,486454836] size =     44206166
	Batch  12 pq = [   31191,   32578] index = [     486454836,530679331] size =     44224495
	Batch  13 pq = [   32578,   33908] index = [     530679331,574893186] size =     44213855
	Batch  14 pq = [   33908,   35188] index = [     574893186,619115266] size =     44222080
	Batch  15 pq = [   35188,   36423] index = [     619115266,663335676] size =     44220410
	Batch  16 pq = [   36423,   37617] index = [     663335676,707538153] size =     44202477
	Batch  17 pq = [   37617,   38775] index = [     707538153,751769700] size =     44231547
	Batch  18 pq = [   38775,   39899] index = [     751769700,795985050] size =     44215350
	Batch  19 pq = [   39899,   40992] index = [     795985050,840192528] size =     44207478
	Batch  20 pq = [   40992,   42057] index = [     840192528,884416653] size =     44224125
	Batch  21 pq = [   42057,   42195] index = [     884416653,890230110] size =      5813457
  Task number: 81
  Buffer size: 11059200
  Buffer per thread: 2
  We computed 43217474 shell quartets total.
  Whereas there are 45998436 unique shell quartets.

  ==> DiskJK: Disk-Based J/K Matrices <==

    J tasked:                  Yes
    K tasked:                  Yes
    wK tasked:                  No
    Memory [MiB]:              375
    Schwarz Cutoff:          1E-12

    OpenMP threads:              1

  Minimum eigenvalue in the overlap matrix is 2.8325452247E-04.
  Using Symmetric Orthogonalization.

  SCF Guess: Superposition of Atomic Densities via on-the-fly atomic UHF.

  ==> Iterations <==

                        Total Energy        Delta E     RMS |[F,P]|

   @RHF iter SAD:  -613.25668612486311   -6.13257e+02   0.00000e+00
   @RHF iter   1:  -614.06112862775774   -8.04443e-01   2.37935e-03 DIIS
   @RHF iter   2:  -614.33786702013072   -2.76738e-01   9.85134e-04 DIIS
   @RHF iter   3:  -614.37949395049282   -4.16269e-02   2.32345e-04 DIIS
   @RHF iter   4:  -614.38305056581885   -3.55662e-03   8.88616e-05 DIIS
   @RHF iter   5:  -614.38343849393755   -3.87928e-04   1.78217e-05 DIIS
   @RHF iter   6:  -614.38346029203024   -2.17981e-05   5.65549e-06 DIIS
   @RHF iter   7:  -614.38346266442909   -2.37240e-06   1.69181e-06 DIIS
   @RHF iter   8:  -614.38346296863358   -3.04204e-07   6.29717e-07 DIIS
   @RHF iter   9:  -614.38346301774448   -4.91109e-08   2.80116e-07 DIIS
   @RHF iter  10:  -614.38346302818536   -1.04409e-08   1.16219e-07 DIIS
   @RHF iter  11:  -614.38346303150638   -3.32102e-09   4.93795e-08 DIIS
   @RHF iter  12:  -614.38346303209710   -5.90717e-10   2.36045e-08 DIIS
   @RHF iter  13:  -614.38346303218657   -8.94715e-11   6.56680e-09 DIIS
   @RHF iter  14:  -614.38346303218759   -1.02318e-12   1.85379e-09 DIIS
   @RHF iter  15:  -614.38346303219998   -1.23919e-11   6.54002e-10 DIIS
   @RHF iter  16:  -614.38346303219532    4.66116e-12   2.61707e-10 DIIS
   @RHF iter  17:  -614.38346303219339    1.93268e-12   1.31712e-10 DIIS
   @RHF iter  18:  -614.38346303219328    1.13687e-13   6.19906e-11 DIIS
  Energy and wave function converged.

  ==> Post-Iterations <==

    Orbital Energies [Eh]
    ---------------------

    Doubly Occupied:

       1A    -20.584056     2A    -11.301080     3A    -11.241000
       4A    -11.240300     5A    -11.236453     6A    -11.235144
       7A    -11.234679     8A    -11.231969     9A    -11.230588
      10A    -11.229984    11A    -11.228136    12A    -11.226627
      13A    -11.226375    14A    -11.225561    15A    -11.224724
      16A     -1.400807    17A     -1.154905    18A     -1.148991
      19A     -1.041061    20A     -1.040512    21A     -1.021138
      22A     -1.006851    23A     -0.928908    24A     -0.928000
      25A     -0.847056    26A     -0.820628    27A     -0.804868
      28A     -0.791257    29A     -0.734314    30A     -0.687389
      31A     -0.670872    32A     -0.643110    33A     -0.627575
      34A     -0.625694    35A     -0.608857    36A     -0.590619
      37A     -0.589379    38A     -0.578674    39A     -0.574024
      40A     -0.570183    41A     -0.569156    42A     -0.558585
      43A     -0.531605    44A     -0.528520    45A     -0.500006
      46A     -0.486961    47A     -0.484032    48A     -0.481485
      49A     -0.477267    50A     -0.468168    51A     -0.341511
      52A     -0.327329    53A     -0.318731    54A     -0.304242

    Virtual:

      55A      0.126959    56A      0.139275    57A      0.145479
      58A      0.152998    59A      0.174647    60A      0.177608
      61A      0.197114    62A      0.202854    63A      0.215454
      64A      0.221279    65A      0.236575    66A      0.254132
      67A      0.257441    68A      0.261793    69A      0.265295
      70A      0.277632    71A      0.289299    72A      0.292554
      73A      0.299501    74A      0.318873    75A      0.367000
      76A      0.369444    77A      0.376184    78A      0.382526
      79A      0.428137    80A      0.455483    81A      0.460576
      82A      0.466929    83A      0.478337    84A      0.485324
      85A      0.497648    86A      0.502921    87A      0.511858
      88A      0.564020    89A      0.596398    90A      0.608256
      91A      0.634926    92A      0.643703    93A      0.659872
      94A      0.668135    95A      0.678781    96A      0.684364
      97A      0.690853    98A      0.697214    99A      0.705447
     100A      0.709956   101A      0.723573   102A      0.729391
     103A      0.733820   104A      0.743556   105A      0.745830
     106A      0.746368   107A      0.754738   108A      0.764894
     109A      0.767278   110A      0.774151   111A      0.776533
     112A      0.779246   113A      0.791665   114A      0.796766
     115A      0.825433   116A      0.835945   117A      0.847341
     118A      0.853424   119A      0.855677   120A      0.863809
     121A      0.874652   122A      0.881250   123A      0.882864
     124A      0.886391   125A      0.888144   126A      0.896428
     127A      0.910962   128A      0.916941   129A      0.924846
     130A      0.929605   131A      0.935038   132A      0.942193
     133A      0.950531   134A      0.959703   135A      0.973527
     136A      0.995041   137A      1.008273   138A      1.014526
     139A      1.023100   140A      1.051331   141A      1.073323
     142A      1.093778   143A      1.120887   144A      1.129244
     145A      1.134585   146A      1.145332   147A      1.148786
     148A      1.159500   149A      1.172733   150A      1.189289
     151A      1.208181   152A      1.221440   153A      1.243609
     154A      1.245956   155A      1.249109   156A      1.254580
     157A      1.264308   158A      1.270298   159A      1.283010
     160A      1.286338   161A      1.304893   162A      1.309673
     163A      1.312385   164A      1.324526   165A      1.340376
     166A      1.346510   167A      1.349971   168A      1.359041
     169A      1.367721   170A      1.394130   171A      1.425574
     172A      1.478787   173A      1.498846   174A      1.521868
     175A      1.532150   176A      1.537530   177A      1.552649
     178A      1.567784   179A      1.613518   180A      1.620148
     181A      1.623289   182A      1.680525   183A      1.694536
     184A      1.700010   185A      1.703535   186A      1.735183
     187A      1.738887   188A      1.749719   189A      1.755967
     190A      1.764127   191A      1.782993   192A      1.794053
     193A      1.802688   194A      1.806172   195A      1.819241
     196A      1.864838   197A      1.870284   198A      1.889488
     199A      1.895216   200A      1.898006   201A      1.906424
     202A      1.907775   203A      1.910472   204A      1.917545
     205A      1.926918   206A      1.928659   207A      1.946272
     208A      1.946801   209A      1.951005   210A      1.959082
     211A      1.968770   212A      1.975701   213A      1.985396
     214A      1.990288   215A      1.995809   216A      2.006653
     217A      2.038811   218A      2.044137   219A      2.052548
     220A      2.059874   221A      2.064681   222A      2.069307
     223A      2.074999   224A      2.088798   225A      2.116211
     226A      2.138452   227A      2.144665   228A      2.151182
     229A      2.158318   230A      2.165614   231A      2.179403
     232A      2.189560   233A      2.198430   234A      2.223336
     235A      2.230053   236A      2.260142   237A      2.263242
     238A      2.271718   239A      2.285860   240A      2.299124
     241A      2.302443   242A      2.317052   243A      2.327978
     244A      2.335204   245A      2.350640   246A      2.370425
     247A      2.426239   248A      2.453854   249A      2.469853
     250A      2.475563   251A      2.489466   252A      2.493743
     253A      2.517498   254A      2.535813   255A      2.540084
     256A      2.546501   257A      2.604742   258A      2.627925
     259A      2.647052   260A      2.742706   261A      2.749681
     262A      2.773537   263A      2.776669   264A      2.786218
     265A      2.791286   266A      2.797660   267A      2.799960
     268A      2.839067   269A      2.846184   270A      2.858650
     271A      2.877200   272A      2.910918   273A      2.968598
     274A      2.986145   275A      3.011205   276A      3.029533
     277A      3.033744   278A      3.089210   279A      3.111033
     280A      3.166243   281A      3.213393   282A      3.247090
     283A      3.279765   284A      3.316585   285A      3.347408
     286A      3.573883   287A      3.670194   288A      3.979001
     289A      3.980235   290A      4.189975

    Final Occupation by Irrep:
              A
    DOCC [    54 ]

  @RHF Final Energy:  -614.38346303219328

   => Energetics <=

    Nuclear Repulsion Energy =            881.2569997112941564
    One-Electron Energy =               -2581.8610326659190832
    Two-Electron Energy =                1086.2205699224316504
    Total Energy =                       -614.3834630321932764

Computation Completed

Properties will be evaluated at   0.000000,   0.000000,   0.000000 [a0]

Properties computed using the SCF density matrix

  Nuclear Dipole Moment: [e a0]
     X:     2.5901      Y:     9.8318      Z:     3.5303

  Electronic Dipole Moment: [e a0]
     X:    -2.1337      Y:    -9.8593      Z:    -3.3965

  Dipole Moment: [e a0]
     X:     0.4564      Y:    -0.0275      Z:     0.1337     Total:     0.4764

  Dipole Moment: [D]
     X:     1.1602      Y:    -0.0698      Z:     0.3399     Total:     1.2110

*** tstop() called on ds3 at Sun Apr 26 19:41:04 2020
Module time:
	user time   =     359.51 seconds =       5.99 minutes
	system time =     164.09 seconds =       2.73 minutes
	total time  =        719 seconds =      11.98 minutes
Total time:
	user time   =     359.51 seconds =       5.99 minutes
	system time =     164.09 seconds =       2.73 minutes
	total time  =        719 seconds =      11.98 minutes
                                     G D M A

                                 by Anthony Stone

                           version 2.2.06, 22 June 2011

               Distributed Multipoles from Gaussian wavefunctions

Starting at 19:41:4 on 26 Apr 2020

Using SCF density matrix from file ./SSI/SSI-127PHE-183TYR-1-dimer.test.7010.fchk

                         Distributed Multipole Analysis

Standard DMA

Positions and radii in angstrom
Multipole moments in atomic units, ea_0^k for rank k

C          x = -0.919496  y =  3.452218  z =  2.301207 angstrom
           Maximum rank =  0   Radius =  0.650 angstrom
                   Q00  =  -0.203822

C          x =  0.263504  y = -0.121782  z =  1.774207 angstrom
           Maximum rank =  0   Radius =  0.650 angstrom
                   Q00  =  -0.072513

C          x = -0.085496  y =  1.203218  z =  1.530207 angstrom
           Maximum rank =  0   Radius =  0.650 angstrom
                   Q00  =   0.005478

C          x =  0.155504  y = -0.643782  z =  3.056207 angstrom
           Maximum rank =  0   Radius =  0.650 angstrom
                   Q00  =  -0.078967

C          x = -0.554496  y =  2.015218  z =  2.561207 angstrom
           Maximum rank =  0   Radius =  0.650 angstrom
                   Q00  =  -0.098323

C          x = -0.297496  y =  0.162218  z =  4.092207 angstrom
           Maximum rank =  0   Radius =  0.650 angstrom
                   Q00  =  -0.059998

C          x = -0.649496  y =  1.486218  z =  3.845207 angstrom
           Maximum rank =  0   Radius =  0.650 angstrom
                   Q00  =  -0.089379

H          x =  0.620504  y = -0.744782  z =  0.966207 angstrom
           Maximum rank =  0   Radius =  0.325 angstrom
                   Q00  =   0.069126

H          x =  0.021504  y =  1.598218  z =  0.529207 angstrom
           Maximum rank =  0   Radius =  0.325 angstrom
                   Q00  =   0.053226

H          x =  0.415504  y = -1.674782  z =  3.243207 angstrom
           Maximum rank =  0   Radius =  0.325 angstrom
                   Q00  =   0.054677

H          x = -0.347496  y = -0.238782  z =  5.092207 angstrom
           Maximum rank =  0   Radius =  0.325 angstrom
                   Q00  =   0.062237

H          x = -0.159496  y =  3.882218  z =  1.648207 angstrom
           Maximum rank =  0   Radius =  0.325 angstrom
                   Q00  =   0.095974

H          x = -0.883496  y =  4.001218  z =  3.242207 angstrom
           Maximum rank =  0   Radius =  0.325 angstrom
                   Q00  =   0.096651

H          x = -0.987496  y =  2.105218  z =  4.665207 angstrom
           Maximum rank =  0   Radius =  0.325 angstrom
                   Q00  =   0.055593

H          x = -1.905876  y =  3.596915  z =  1.836314 angstrom
           Maximum rank =  0   Radius =  0.325 angstrom
                   Q00  =   0.105609

C          x =  1.663504  y =  1.601218  z = -2.042793 angstrom
           Maximum rank =  0   Radius =  0.650 angstrom
                   Q00  =  -0.192832

C          x =  1.457504  y = -0.870782  z = -1.627793 angstrom
           Maximum rank =  0   Radius =  0.650 angstrom
                   Q00  =   0.025057

C          x =  0.934504  y =  0.290218  z = -2.187793 angstrom
           Maximum rank =  0   Radius =  0.650 angstrom
                   Q00  =  -0.144160

C          x =  0.794504  y = -2.085782  z = -1.760793 angstrom
           Maximum rank =  0   Radius =  0.650 angstrom
                   Q00  =  -0.182617

C          x = -0.402496  y = -2.145782  z = -2.463793 angstrom
           Maximum rank =  0   Radius =  0.650 angstrom
                   Q00  =   0.321543

C          x = -0.260496  y =  0.216218  z = -2.897793 angstrom
           Maximum rank =  0   Radius =  0.650 angstrom
                   Q00  =  -0.013090

C          x = -0.930496  y = -0.994782  z = -3.035793 angstrom
           Maximum rank =  0   Radius =  0.650 angstrom
                   Q00  =  -0.120751

O          x = -1.051496  y = -3.335782  z = -2.596793 angstrom
           Maximum rank =  0   Radius =  0.650 angstrom
                   Q00  =  -0.677252

H          x =  2.388504  y = -0.827782  z = -1.072793 angstrom
           Maximum rank =  0   Radius =  0.325 angstrom
                   Q00  =   0.069925

H          x =  1.205504  y = -2.980782  z = -1.315793 angstrom
           Maximum rank =  0   Radius =  0.325 angstrom
                   Q00  =   0.071226

H          x =  2.164504  y =  1.609218  z = -1.076793 angstrom
           Maximum rank =  0   Radius =  0.325 angstrom
                   Q00  =   0.094612

H          x =  0.944504  y =  2.422218  z = -2.047793 angstrom
           Maximum rank =  0   Radius =  0.325 angstrom
                   Q00  =   0.093883

H          x = -0.685496  y =  1.112218  z = -3.336793 angstrom
           Maximum rank =  0   Radius =  0.325 angstrom
                   Q00  =   0.064166

H          x = -0.571496  y = -4.064782  z = -2.186793 angstrom
           Maximum rank =  0   Radius =  0.325 angstrom
                   Q00  =   0.407716

H          x = -1.866496  y = -1.045782  z = -3.575793 angstrom
           Maximum rank =  0   Radius =  0.325 angstrom
                   Q00  =   0.082278

H          x =  2.415114  y =  1.754711  z = -2.831153 angstrom
           Maximum rank =  0   Radius =  0.325 angstrom
                   Q00  =   0.104726

Total multipoles referred to origin at
           x =   0.000000,  y =    0.000000,  z =    0.000000 angstrom
                   Q00  =  -0.000000

Finished at 19:41:5 on 26 Apr 2020

  DMA results are available in the Python driver through the
	  variable('DMA DISTRIBUTED MULTIPOLES')
  and
	  variable('DMA TOTAL MULTIPOLES')
  commands.

    Psi4 stopped on: Sunday, 26 April 2020 07:41PM
    Psi4 wall time for execution: 0:11:59.71

*** Psi4 exiting successfully. Buy a developer a beer!
