                               Psi4 1.3.2 release

  ==> Input File <==

--------------------------------------------------------------------------
import numpy as np
set {scf_type pk
basis cc-pvdz
d_convergence 10
gdma_switch   0
gdma_limit    0
gdma_origin   [ 0.0,  0.0,  0.0 ]
}
molecule test {
    units Angstrom
    0 1
    --
    0 1
    C               -3.727138340743087    -1.826805445769031    -1.201381553101488
    C               -0.578138340743086    -0.132805445769031     0.010618446898512
    C               -1.911138340743087    -0.043805445769031    -0.451381553101488
    C               -2.372138340743086    -1.373805445769031    -0.712381553101488
    C               -1.315138340743087    -2.195805445769031    -0.431381553101488
    C                0.173861659256914     0.976194554230969     0.367618446898512
    C               -0.481138340743086     2.182194554230970     0.292618446898512
    C               -1.814138340743087     2.327194554230970    -0.158381553101488
    C               -2.544138340743087     1.209194554230969    -0.529381553101488
    N               -0.224138340743086    -1.454805445769031     0.003618446898512
    H                1.183861659256914     0.894194554230969     0.724618446898512
    H                0.053861659256914     3.075194554230970     0.588618446898512
    H                0.661861659256914    -1.838805445769031     0.334618446898512
    H               -2.269138340743087     3.309194554230969    -0.193381553101488
    H               -1.341138340743087    -3.278805445769030    -0.508381553101488
    H               -3.574138340743086     1.295194554230969    -0.845381553101488
    H               -4.500138340743086    -1.323805445769031    -0.619381553101488
    H               -3.814138340743087    -2.890805445769030    -0.975381553101488
    H               -3.922152340743086    -1.702770645769031    -2.276831553101488
    C                3.876861659256913     0.304194554230969     0.698618446898512
    C                4.557861659256913    -1.059805445769031     0.695618446898512
    C                4.849861659256913     1.401194554230969     1.131618446898512
    H                3.432861659256914     0.540194554230970    -0.267381553101488
    H                3.090861659256913     0.274194554230969     1.453618446898512
    H                5.061861659256913    -1.191805445769031     1.657618446898512
    H                5.368861659256914     1.109194554230969     2.045618446898512
    H                5.595861659256913     1.612194554230969     0.383618446898512
    H                5.311301659256913    -1.133438445769031    -0.102451553101488
    H                3.824491659256913    -1.878131145769031     0.645518446898512
    H                4.245641659256914     2.299036554230970     1.328598446898512

}
e, wfn = energy('scf', return_wfn=True)
gdma(wfn)
dmavals = variable('DMA DISTRIBUTED MULTIPOLES')
charges = np.array(dmavals)
print(charges)
np.save('SSI-035TRP-064ARG-1-dimer.npy', np.array(charges))--------------------------------------------------------------------------

*** tstart() called on ds3
*** at Tue Apr 28 21:13:28 2020

   => Loading Basis Set <=

    Name: CC-PVDZ
    Role: ORBITAL
    Keyword: BASIS
    atoms 1-9, 20-22   entry C          line   138 file /theoryfs2/ds/metcalf/miniconda2/envs/tf2gpu/share/psi4/basis/cc-pvdz.gbs
    atoms 10           entry N          line   168 file /theoryfs2/ds/metcalf/miniconda2/envs/tf2gpu/share/psi4/basis/cc-pvdz.gbs
    atoms 11-19, 23-30 entry H          line    22 file /theoryfs2/ds/metcalf/miniconda2/envs/tf2gpu/share/psi4/basis/cc-pvdz.gbs

         ---------------------------------------------------------
                                   SCF
               by Justin Turney, Rob Parrish, Andy Simmonett
                          and Daniel G. A. Smith
                              RHF Reference
                        1 Threads,    500 MiB Core
         ---------------------------------------------------------

  ==> Geometry <==

    Molecular point group: c1
    Full point group: C1

    Geometry (in Angstrom), charge = 0, multiplicity = 1:

       Center              X                  Y                   Z               Mass
    ------------   -----------------  -----------------  -----------------  -----------------
         C           -3.727138340743    -1.826805445769    -1.201381553101    12.000000000000
         C           -0.578138340743    -0.132805445769     0.010618446899    12.000000000000
         C           -1.911138340743    -0.043805445769    -0.451381553101    12.000000000000
         C           -2.372138340743    -1.373805445769    -0.712381553101    12.000000000000
         C           -1.315138340743    -2.195805445769    -0.431381553101    12.000000000000
         C            0.173861659257     0.976194554231     0.367618446899    12.000000000000
         C           -0.481138340743     2.182194554231     0.292618446899    12.000000000000
         C           -1.814138340743     2.327194554231    -0.158381553101    12.000000000000
         C           -2.544138340743     1.209194554231    -0.529381553101    12.000000000000
         N           -0.224138340743    -1.454805445769     0.003618446899    14.003074004430
         H            1.183861659257     0.894194554231     0.724618446899     1.007825032230
         H            0.053861659257     3.075194554231     0.588618446899     1.007825032230
         H            0.661861659257    -1.838805445769     0.334618446899     1.007825032230
         H           -2.269138340743     3.309194554231    -0.193381553101     1.007825032230
         H           -1.341138340743    -3.278805445769    -0.508381553101     1.007825032230
         H           -3.574138340743     1.295194554231    -0.845381553101     1.007825032230
         H           -4.500138340743    -1.323805445769    -0.619381553101     1.007825032230
         H           -3.814138340743    -2.890805445769    -0.975381553101     1.007825032230
         H           -3.922152340743    -1.702770645769    -2.276831553101     1.007825032230
         C            3.876861659257     0.304194554231     0.698618446899    12.000000000000
         C            4.557861659257    -1.059805445769     0.695618446899    12.000000000000
         C            4.849861659257     1.401194554231     1.131618446899    12.000000000000
         H            3.432861659257     0.540194554231    -0.267381553101     1.007825032230
         H            3.090861659257     0.274194554231     1.453618446899     1.007825032230
         H            5.061861659257    -1.191805445769     1.657618446899     1.007825032230
         H            5.368861659257     1.109194554231     2.045618446899     1.007825032230
         H            5.595861659257     1.612194554231     0.383618446899     1.007825032230
         H            5.311301659257    -1.133438445769    -0.102451553101     1.007825032230
         H            3.824491659257    -1.878131145769     0.645518446899     1.007825032230
         H            4.245641659257     2.299036554231     1.328598446899     1.007825032230

  Running in c1 symmetry.

  Rotational constants: A =      0.04182  B =      0.01145  C =      0.00909 [cm^-1]
  Rotational constants: A =   1253.69274  B =    343.39966  C =    272.46710 [MHz]
  Nuclear repulsion =  726.587008824871418

  Charge       = 0
  Multiplicity = 1
  Electrons    = 96
  Nalpha       = 48
  Nbeta        = 48

  ==> Algorithm <==

  SCF Algorithm Type is PK.
  DIIS enabled.
  MOM disabled.
  Fractional occupation disabled.
  Guess Type is SAD.
  Energy threshold   = 1.00e-06
  Density threshold  = 1.00e-10
  Integral threshold = 0.00e+00

  ==> Primary Basis <==

  Basis Set: CC-PVDZ
    Blend: CC-PVDZ
    Number of shells: 129
    Number of basis function: 267
    Number of Cartesian functions: 280
    Spherical Harmonics?: true
    Max angular momentum: 2

  ==> Pre-Iterations <==

   -------------------------------------------------------
    Irrep   Nso     Nmo     Nalpha   Nbeta   Ndocc  Nsocc
   -------------------------------------------------------
     A        267     267       0       0       0       0
   -------------------------------------------------------
    Total     267     267      48      48      48       0
   -------------------------------------------------------

  ==> Integral Setup <==

  Using integral reordering PK algorithm.
  Sizing the integral batches needed.
  Building batch lookup table.
   Calculation information:
      Number of atoms:                  30
      Number of AO shells:             129
      Number of primitives:            371
      Number of atomic orbitals:       280
      Number of basis functions:       267

      Integral cutoff                 1.00e-12
      Number of threads:                 1

	Batch   1 pq = [       0,    9405] index = [             0,44231715] size =     44231715
	Batch   2 pq = [    9405,   13301] index = [      44231715,88464951] size =     44233236
	Batch   3 pq = [   13301,   16290] index = [      88464951,132690195] size =     44225244
	Batch   4 pq = [   16290,   18810] index = [     132690195,176917455] size =     44227260
	Batch   5 pq = [   18810,   21030] index = [     176917455,221140965] size =     44223510
	Batch   6 pq = [   21030,   23037] index = [     221140965,265363203] size =     44222238
	Batch   7 pq = [   23037,   24883] index = [     265363203,309594286] size =     44231083
	Batch   8 pq = [   24883,   26601] index = [     309594286,353819901] size =     44225615
	Batch   9 pq = [   26601,   28214] index = [     353819901,398029005] size =     44209104
	Batch  10 pq = [   28214,   29740] index = [     398029005,442248670] size =     44219665
	Batch  11 pq = [   29740,   31191] index = [     442248670,486454836] size =     44206166
	Batch  12 pq = [   31191,   32578] index = [     486454836,530679331] size =     44224495
	Batch  13 pq = [   32578,   33908] index = [     530679331,574893186] size =     44213855
	Batch  14 pq = [   33908,   35188] index = [     574893186,619115266] size =     44222080
	Batch  15 pq = [   35188,   35778] index = [     619115266,640050531] size =     20935265
  Task number: 58
  Buffer size: 11059200
  Buffer per thread: 2
  We computed 28700534 shell quartets total.
  Whereas there are 35158305 unique shell quartets.

  ==> DiskJK: Disk-Based J/K Matrices <==

    J tasked:                  Yes
    K tasked:                  Yes
    wK tasked:                  No
    Memory [MiB]:              375
    Schwarz Cutoff:          1E-12

    OpenMP threads:              1

  Minimum eigenvalue in the overlap matrix is 2.3729898067E-04.
  Using Symmetric Orthogonalization.

  SCF Guess: Superposition of Atomic Densities via on-the-fly atomic UHF.

  ==> Iterations <==

                        Total Energy        Delta E     RMS |[F,P]|

   @RHF iter SAD:  -518.03759048580207   -5.18038e+02   0.00000e+00
   @RHF iter   1:  -518.49053282856789   -4.52942e-01   2.49973e-03 DIIS
   @RHF iter   2:  -518.74887301970523   -2.58340e-01   1.12138e-03 DIIS
   @RHF iter   3:  -518.79622635445367   -4.73533e-02   2.90537e-04 DIIS
   @RHF iter   4:  -518.80048639943448   -4.26004e-03   1.32384e-04 DIIS
   @RHF iter   5:  -518.80119035543908   -7.03956e-04   2.00517e-05 DIIS
   @RHF iter   6:  -518.80122283778553   -3.24823e-05   8.86210e-06 DIIS
   @RHF iter   7:  -518.80122958323477   -6.74545e-06   3.57477e-06 DIIS
   @RHF iter   8:  -518.80123130590482   -1.72267e-06   1.48496e-06 DIIS
   @RHF iter   9:  -518.80123167830800   -3.72403e-07   6.42419e-07 DIIS
   @RHF iter  10:  -518.80123175097617   -7.26682e-08   2.86836e-07 DIIS
   @RHF iter  11:  -518.80123176856614   -1.75900e-08   1.15135e-07 DIIS
   @RHF iter  12:  -518.80123177125472   -2.68858e-09   3.98463e-08 DIIS
   @RHF iter  13:  -518.80123177146606   -2.11344e-10   1.08133e-08 DIIS
   @RHF iter  14:  -518.80123177147766   -1.15961e-11   3.58990e-09 DIIS
   @RHF iter  15:  -518.80123177147698    6.82121e-13   1.46002e-09 DIIS
   @RHF iter  16:  -518.80123177147516    1.81899e-12   7.22233e-10 DIIS
   @RHF iter  17:  -518.80123177147414    1.02318e-12   3.43812e-10 DIIS
   @RHF iter  18:  -518.80123177147789   -3.75167e-12   1.50056e-10 DIIS
   @RHF iter  19:  -518.80123177148312   -5.22959e-12   5.53239e-11 DIIS
  Energy and wave function converged.

  ==> Post-Iterations <==

    Orbital Energies [Eh]
    ---------------------

    Doubly Occupied:

       1A    -15.600262     2A    -11.262719     3A    -11.261241
       4A    -11.229809     5A    -11.227870     6A    -11.227868
       7A    -11.227135     8A    -11.225665     9A    -11.225247
      10A    -11.220174    11A    -11.220122    12A    -11.218557
      13A    -11.217505    14A     -1.289877    15A     -1.126669
      16A     -1.071508    17A     -1.063445    18A     -0.998370
      19A     -0.982225    20A     -0.930350    21A     -0.928552
      22A     -0.835490    23A     -0.806756    24A     -0.801669
      25A     -0.752804    26A     -0.717632    27A     -0.658304
      28A     -0.638881    29A     -0.635474    30A     -0.606850
      31A     -0.598197    32A     -0.593594    33A     -0.588562
      34A     -0.560874    35A     -0.559731    36A     -0.551701
      37A     -0.535695    38A     -0.534953    39A     -0.521666
      40A     -0.494439    41A     -0.484718    42A     -0.479597
      43A     -0.470712    44A     -0.468519    45A     -0.458954
      46A     -0.373210    47A     -0.293185    48A     -0.273798

    Virtual:

      49A      0.127759    50A      0.148415    51A      0.171918
      52A      0.183394    53A      0.190183    54A      0.202867
      55A      0.216920    56A      0.220390    57A      0.229296
      58A      0.234140    59A      0.249342    60A      0.256753
      61A      0.268247    62A      0.272136    63A      0.282148
      64A      0.286219    65A      0.295105    66A      0.301281
      67A      0.313204    68A      0.332611    69A      0.375387
      70A      0.383057    71A      0.388906    72A      0.395308
      73A      0.412467    74A      0.436128    75A      0.452146
      76A      0.477987    77A      0.485166    78A      0.501911
      79A      0.510450    80A      0.580080    81A      0.587471
      82A      0.598920    83A      0.603634    84A      0.608639
      85A      0.624452    86A      0.639457    87A      0.647713
      88A      0.663948    89A      0.688025    90A      0.694844
      91A      0.717275    92A      0.721219    93A      0.737440
      94A      0.739022    95A      0.740662    96A      0.746920
      97A      0.751167    98A      0.766397    99A      0.774482
     100A      0.777893   101A      0.789299   102A      0.797214
     103A      0.804638   104A      0.807516   105A      0.833870
     106A      0.842817   107A      0.863243   108A      0.870343
     109A      0.878803   110A      0.881155   111A      0.888972
     112A      0.890981   113A      0.893783   114A      0.896690
     115A      0.901415   116A      0.903795   117A      0.909487
     118A      0.916617   119A      0.935268   120A      0.942360
     121A      0.949650   122A      0.952487   123A      0.965589
     124A      0.974156   125A      0.981598   126A      0.983413
     127A      1.035783   128A      1.049880   129A      1.064039
     130A      1.071323   131A      1.093253   132A      1.120486
     133A      1.126852   134A      1.139399   135A      1.148220
     136A      1.150684   137A      1.168990   138A      1.189089
     139A      1.211305   140A      1.226879   141A      1.232441
     142A      1.240529   143A      1.249236   144A      1.269867
     145A      1.281089   146A      1.298421   147A      1.324629
     148A      1.335232   149A      1.347937   150A      1.359312
     151A      1.365175   152A      1.394135   153A      1.408013
     154A      1.443315   155A      1.451370   156A      1.479944
     157A      1.515034   158A      1.542787   159A      1.554993
     160A      1.586005   161A      1.598935   162A      1.634212
     163A      1.641695   164A      1.646959   165A      1.655442
     166A      1.665807   167A      1.687570   168A      1.688314
     169A      1.701808   170A      1.703286   171A      1.741848
     172A      1.762761   173A      1.775808   174A      1.793734
     175A      1.810104   176A      1.820029   177A      1.831034
     178A      1.859818   179A      1.870650   180A      1.882432
     181A      1.884192   182A      1.894049   183A      1.901584
     184A      1.912948   185A      1.916101   186A      1.919934
     187A      1.925832   188A      1.933120   189A      1.939523
     190A      1.943315   191A      1.947463   192A      1.955847
     193A      1.968944   194A      1.971488   195A      1.983741
     196A      1.991921   197A      2.001251   198A      2.007416
     199A      2.010166   200A      2.020794   201A      2.053651
     202A      2.066363   203A      2.075045   204A      2.086853
     205A      2.096057   206A      2.103383   207A      2.106051
     208A      2.116136   209A      2.130304   210A      2.133509
     211A      2.155903   212A      2.157720   213A      2.170518
     214A      2.199889   215A      2.225698   216A      2.252942
     217A      2.277767   218A      2.286578   219A      2.310073
     220A      2.312570   221A      2.318213   222A      2.324364
     223A      2.333500   224A      2.357970   225A      2.363309
     226A      2.393061   227A      2.410757   228A      2.447620
     229A      2.468958   230A      2.492929   231A      2.532350
     232A      2.538904   233A      2.563283   234A      2.591963
     235A      2.607618   236A      2.613298   237A      2.623793
     238A      2.642544   239A      2.660830   240A      2.694025
     241A      2.700281   242A      2.747442   243A      2.766126
     244A      2.769297   245A      2.772648   246A      2.786762
     247A      2.788848   248A      2.804689   249A      2.816912
     250A      2.827734   251A      2.873538   252A      2.883118
     253A      2.895421   254A      2.911771   255A      2.948978
     256A      2.967259   257A      2.982904   258A      3.022448
     259A      3.045136   260A      3.061133   261A      3.085442
     262A      3.104055   263A      3.201254   264A      3.331112
     265A      3.362174   266A      3.739089   267A      3.950481

    Final Occupation by Irrep:
              A
    DOCC [    48 ]

  @RHF Final Energy:  -518.80123177148312

   => Energetics <=

    Nuclear Repulsion Energy =            726.5870088248714183
    One-Electron Energy =               -2142.6742060655292335
    Two-Electron Energy =                 897.2859654691746982
    Total Energy =                       -518.8012317714831170

Computation Completed

Properties will be evaluated at   0.000000,   0.000000,   0.000000 [a0]

Properties computed using the SCF density matrix

  Nuclear Dipole Moment: [e a0]
     X:    17.2599      Y:    -0.7737      Z:     3.1629

  Electronic Dipole Moment: [e a0]
     X:   -16.7760      Y:     0.1632      Z:    -2.9893

  Dipole Moment: [e a0]
     X:     0.4839      Y:    -0.6105      Z:     0.1736     Total:     0.7981

  Dipole Moment: [D]
     X:     1.2300      Y:    -1.5516      Z:     0.4413     Total:     2.0286

*** tstop() called on ds3 at Tue Apr 28 21:23:33 2020
Module time:
	user time   =     224.73 seconds =       3.75 minutes
	system time =      99.19 seconds =       1.65 minutes
	total time  =        605 seconds =      10.08 minutes
Total time:
	user time   =     224.73 seconds =       3.75 minutes
	system time =      99.19 seconds =       1.65 minutes
	total time  =        605 seconds =      10.08 minutes
                                     G D M A

                                 by Anthony Stone

                           version 2.2.06, 22 June 2011

               Distributed Multipoles from Gaussian wavefunctions

Starting at 21:23:34 on 28 Apr 2020

Using SCF density matrix from file ./SSI/SSI-035TRP-064ARG-1-dimer.test.15639.fchk

                         Distributed Multipole Analysis

Standard DMA

Positions and radii in angstrom
Multipole moments in atomic units, ea_0^k for rank k

C          x = -3.727138  y = -1.826805  z = -1.201382 angstrom
           Maximum rank =  0   Radius =  0.650 angstrom
                   Q00  =  -0.211580

C          x = -0.578138  y = -0.132805  z =  0.010618 angstrom
           Maximum rank =  0   Radius =  0.650 angstrom
                   Q00  =   0.235543

C          x = -1.911138  y = -0.043805  z = -0.451382 angstrom
           Maximum rank =  0   Radius =  0.650 angstrom
                   Q00  =  -0.059938

C          x = -2.372138  y = -1.373805  z = -0.712382 angstrom
           Maximum rank =  0   Radius =  0.650 angstrom
                   Q00  =  -0.120453

C          x = -1.315138  y = -2.195805  z = -0.431382 angstrom
           Maximum rank =  0   Radius =  0.650 angstrom
                   Q00  =   0.063426

C          x =  0.173862  y =  0.976195  z =  0.367618 angstrom
           Maximum rank =  0   Radius =  0.650 angstrom
                   Q00  =  -0.099220

C          x = -0.481138  y =  2.182195  z =  0.292618 angstrom
           Maximum rank =  0   Radius =  0.650 angstrom
                   Q00  =   0.003721

C          x = -1.814138  y =  2.327195  z = -0.158382 angstrom
           Maximum rank =  0   Radius =  0.650 angstrom
                   Q00  =  -0.115729

C          x = -2.544138  y =  1.209195  z = -0.529382 angstrom
           Maximum rank =  0   Radius =  0.650 angstrom
                   Q00  =  -0.089271

N          x = -0.224138  y = -1.454805  z =  0.003618 angstrom
           Maximum rank =  0   Radius =  0.650 angstrom
                   Q00  =  -0.496820

H          x =  1.183862  y =  0.894195  z =  0.724618 angstrom
           Maximum rank =  0   Radius =  0.325 angstrom
                   Q00  =   0.075969

H          x =  0.053862  y =  3.075195  z =  0.588618 angstrom
           Maximum rank =  0   Radius =  0.325 angstrom
                   Q00  =   0.055315

H          x =  0.661862  y = -1.838805  z =  0.334618 angstrom
           Maximum rank =  0   Radius =  0.325 angstrom
                   Q00  =   0.223970

H          x = -2.269138  y =  3.309195  z = -0.193382 angstrom
           Maximum rank =  0   Radius =  0.325 angstrom
                   Q00  =   0.060927

H          x = -1.341138  y = -3.278805  z = -0.508382 angstrom
           Maximum rank =  0   Radius =  0.325 angstrom
                   Q00  =   0.097080

H          x = -3.574138  y =  1.295195  z = -0.845382 angstrom
           Maximum rank =  0   Radius =  0.325 angstrom
                   Q00  =   0.071111

H          x = -4.500138  y = -1.323805  z = -0.619382 angstrom
           Maximum rank =  0   Radius =  0.325 angstrom
                   Q00  =   0.101189

H          x = -3.814138  y = -2.890805  z = -0.975382 angstrom
           Maximum rank =  0   Radius =  0.325 angstrom
                   Q00  =   0.101432

H          x = -3.922152  y = -1.702771  z = -2.276832 angstrom
           Maximum rank =  0   Radius =  0.325 angstrom
                   Q00  =   0.101095

C          x =  3.876862  y =  0.304195  z =  0.698618 angstrom
           Maximum rank =  0   Radius =  0.650 angstrom
                   Q00  =  -0.092961

C          x =  4.557862  y = -1.059805  z =  0.695618 angstrom
           Maximum rank =  0   Radius =  0.650 angstrom
                   Q00  =  -0.233066

C          x =  4.849862  y =  1.401195  z =  1.131618 angstrom
           Maximum rank =  0   Radius =  0.650 angstrom
                   Q00  =  -0.234108

H          x =  3.432862  y =  0.540195  z = -0.267382 angstrom
           Maximum rank =  0   Radius =  0.325 angstrom
                   Q00  =   0.058821

H          x =  3.090862  y =  0.274195  z =  1.453618 angstrom
           Maximum rank =  0   Radius =  0.325 angstrom
                   Q00  =   0.032586

H          x =  5.061862  y = -1.191805  z =  1.657618 angstrom
           Maximum rank =  0   Radius =  0.325 angstrom
                   Q00  =   0.075237

H          x =  5.368862  y =  1.109195  z =  2.045618 angstrom
           Maximum rank =  0   Radius =  0.325 angstrom
                   Q00  =   0.077000

H          x =  5.595862  y =  1.612195  z =  0.383618 angstrom
           Maximum rank =  0   Radius =  0.325 angstrom
                   Q00  =   0.084183

H          x =  5.311302  y = -1.133438  z = -0.102452 angstrom
           Maximum rank =  0   Radius =  0.325 angstrom
                   Q00  =   0.083741

H          x =  3.824492  y = -1.878131  z =  0.645518 angstrom
           Maximum rank =  0   Radius =  0.325 angstrom
                   Q00  =   0.071111

H          x =  4.245642  y =  2.299037  z =  1.328598 angstrom
           Maximum rank =  0   Radius =  0.325 angstrom
                   Q00  =   0.079689

Total multipoles referred to origin at
           x =   0.000000,  y =    0.000000,  z =    0.000000 angstrom
                   Q00  =  -0.000000

Finished at 21:23:34 on 28 Apr 2020

  DMA results are available in the Python driver through the
	  variable('DMA DISTRIBUTED MULTIPOLES')
  and
	  variable('DMA TOTAL MULTIPOLES')
  commands.

    Psi4 stopped on: Tuesday, 28 April 2020 09:23PM
    Psi4 wall time for execution: 0:10:05.65

*** Psi4 exiting successfully. Buy a developer a beer!
