                               Psi4 1.3.2 release

  ==> Input File <==

--------------------------------------------------------------------------
import numpy as np
set {scf_type pk
basis cc-pvdz
d_convergence 10
gdma_switch   0
gdma_limit    0
gdma_origin   [ 0.0,  0.0,  0.0 ]
}
molecule test {
    units Angstrom
    1 1
    --
    1 1
    C                0.900045064096842    -0.408269640659331    -2.295547617705919
    C                1.048045064096842    -1.894269640659331    -2.583547617705920
    N                1.777045064096842     0.380730359340669    -3.201547617705919
    H               -0.147954935903158    -0.121269640659331    -2.431547617705919
    H                1.170045064096842    -0.213269640659331    -1.250547617705919
    H                2.107045064096842    -2.163269640659331    -2.566547617705919
    H                0.641045064096842    -2.116269640659331    -3.572547617705919
    H                1.630045064096842     1.375730359340669    -3.085547617705919
    H                2.756045064096842     0.187730359340669    -3.033547617705919
    H                1.582045064096842     0.154730359340669    -4.181547617705919
    H                0.516575064096842    -2.488649640659331    -1.825751617705919
    C               -0.842954935903158     3.086730359340669     0.465452382294081
    C               -1.624954935903158     0.691730359340669     0.398452382294081
    C               -0.686954935903158     1.630730359340669     0.819452382294081
    C               -1.485954935903158    -0.649269640659331     0.737452382294080
    C                0.401045064096842     1.204730359340669     1.572452382294080
    C               -0.390954935903158    -1.063269640659331     1.498452382294081
    C                0.550045064096842    -0.136269640659331     1.915452382294080
    O               -0.242954935903158    -2.377269640659331     1.842452382294081
    H               -2.474954935903158     1.006730359340669    -0.192547617705919
    H               -2.198954935903158    -1.371269640659331     0.367452382294081
    H               -1.709954935903158     3.206730359340670    -0.185547617705919
    H                0.038045064096842     3.397730359340669    -0.097547617705919
    H                1.142045064096842     1.921730359340669     1.901452382294081
    H                1.395045064096842    -0.461269640659331     2.505452382294081
    H               -0.928954935903158    -2.937269640659331     1.446452382294080
    H               -0.959784935903158     3.738980359340669     1.343472382294081

}
e, wfn = energy('scf', return_wfn=True)
gdma(wfn)
dmavals = variable('DMA DISTRIBUTED MULTIPOLES')
charges = np.array(dmavals)
print(charges)
np.save('SSI-030LYS-078TYR-2-dimer.npy', np.array(charges))--------------------------------------------------------------------------

*** tstart() called on ds3
*** at Tue Apr 28 10:02:58 2020

   => Loading Basis Set <=

    Name: CC-PVDZ
    Role: ORBITAL
    Keyword: BASIS
    atoms 1-2, 12-18  entry C          line   138 file /theoryfs2/ds/metcalf/miniconda2/envs/tf2gpu/share/psi4/basis/cc-pvdz.gbs
    atoms 3           entry N          line   168 file /theoryfs2/ds/metcalf/miniconda2/envs/tf2gpu/share/psi4/basis/cc-pvdz.gbs
    atoms 4-11, 20-27 entry H          line    22 file /theoryfs2/ds/metcalf/miniconda2/envs/tf2gpu/share/psi4/basis/cc-pvdz.gbs
    atoms 19          entry O          line   198 file /theoryfs2/ds/metcalf/miniconda2/envs/tf2gpu/share/psi4/basis/cc-pvdz.gbs

         ---------------------------------------------------------
                                   SCF
               by Justin Turney, Rob Parrish, Andy Simmonett
                          and Daniel G. A. Smith
                              RHF Reference
                        1 Threads,    500 MiB Core
         ---------------------------------------------------------

  ==> Geometry <==

    Molecular point group: c1
    Full point group: C1

    Geometry (in Angstrom), charge = 1, multiplicity = 1:

       Center              X                  Y                   Z               Mass
    ------------   -----------------  -----------------  -----------------  -----------------
         C            0.900045064097    -0.408269640659    -2.295547617706    12.000000000000
         C            1.048045064097    -1.894269640659    -2.583547617706    12.000000000000
         N            1.777045064097     0.380730359341    -3.201547617706    14.003074004430
         H           -0.147954935903    -0.121269640659    -2.431547617706     1.007825032230
         H            1.170045064097    -0.213269640659    -1.250547617706     1.007825032230
         H            2.107045064097    -2.163269640659    -2.566547617706     1.007825032230
         H            0.641045064097    -2.116269640659    -3.572547617706     1.007825032230
         H            1.630045064097     1.375730359341    -3.085547617706     1.007825032230
         H            2.756045064097     0.187730359341    -3.033547617706     1.007825032230
         H            1.582045064097     0.154730359341    -4.181547617706     1.007825032230
         H            0.516575064097    -2.488649640659    -1.825751617706     1.007825032230
         C           -0.842954935903     3.086730359341     0.465452382294    12.000000000000
         C           -1.624954935903     0.691730359341     0.398452382294    12.000000000000
         C           -0.686954935903     1.630730359341     0.819452382294    12.000000000000
         C           -1.485954935903    -0.649269640659     0.737452382294    12.000000000000
         C            0.401045064097     1.204730359341     1.572452382294    12.000000000000
         C           -0.390954935903    -1.063269640659     1.498452382294    12.000000000000
         C            0.550045064097    -0.136269640659     1.915452382294    12.000000000000
         O           -0.242954935903    -2.377269640659     1.842452382294    15.994914619570
         H           -2.474954935903     1.006730359341    -0.192547617706     1.007825032230
         H           -2.198954935903    -1.371269640659     0.367452382294     1.007825032230
         H           -1.709954935903     3.206730359341    -0.185547617706     1.007825032230
         H            0.038045064097     3.397730359341    -0.097547617706     1.007825032230
         H            1.142045064097     1.921730359341     1.901452382294     1.007825032230
         H            1.395045064097    -0.461269640659     2.505452382294     1.007825032230
         H           -0.928954935903    -2.937269640659     1.446452382294     1.007825032230
         H           -0.959784935903     3.738980359341     1.343472382294     1.007825032230

  Running in c1 symmetry.

  Rotational constants: A =      0.03449  B =      0.02300  C =      0.01645 [cm^-1]
  Rotational constants: A =   1033.96706  B =    689.62405  C =    493.26794 [MHz]
  Nuclear repulsion =  604.803055150845580

  Charge       = 1
  Multiplicity = 1
  Electrons    = 84
  Nalpha       = 42
  Nbeta        = 42

  ==> Algorithm <==

  SCF Algorithm Type is PK.
  DIIS enabled.
  MOM disabled.
  Fractional occupation disabled.
  Guess Type is SAD.
  Energy threshold   = 1.00e-06
  Density threshold  = 1.00e-10
  Integral threshold = 0.00e+00

  ==> Primary Basis <==

  Basis Set: CC-PVDZ
    Blend: CC-PVDZ
    Number of shells: 114
    Number of basis function: 234
    Number of Cartesian functions: 245
    Spherical Harmonics?: true
    Max angular momentum: 2

  ==> Pre-Iterations <==

   -------------------------------------------------------
    Irrep   Nso     Nmo     Nalpha   Nbeta   Ndocc  Nsocc
   -------------------------------------------------------
     A        234     234       0       0       0       0
   -------------------------------------------------------
    Total     234     234      42      42      42       0
   -------------------------------------------------------

  ==> Integral Setup <==

  Using integral reordering PK algorithm.
  Sizing the integral batches needed.
  Building batch lookup table.
   Calculation information:
      Number of atoms:                  27
      Number of AO shells:             114
      Number of primitives:            322
      Number of atomic orbitals:       245
      Number of basis functions:       234

      Integral cutoff                 1.00e-12
      Number of threads:                 1

	Batch   1 pq = [       0,    9405] index = [             0,44231715] size =     44231715
	Batch   2 pq = [    9405,   13301] index = [      44231715,88464951] size =     44233236
	Batch   3 pq = [   13301,   16290] index = [      88464951,132690195] size =     44225244
	Batch   4 pq = [   16290,   18810] index = [     132690195,176917455] size =     44227260
	Batch   5 pq = [   18810,   21030] index = [     176917455,221140965] size =     44223510
	Batch   6 pq = [   21030,   23037] index = [     221140965,265363203] size =     44222238
	Batch   7 pq = [   23037,   24883] index = [     265363203,309594286] size =     44231083
	Batch   8 pq = [   24883,   26601] index = [     309594286,353819901] size =     44225615
	Batch   9 pq = [   26601,   27495] index = [     353819901,378001260] size =     24181359
  Task number: 35
  Buffer size: 11059200
  Buffer per thread: 2
  We computed 21082541 shell quartets total.
  Whereas there are 21487290 unique shell quartets.

  ==> DiskJK: Disk-Based J/K Matrices <==

    J tasked:                  Yes
    K tasked:                  Yes
    wK tasked:                  No
    Memory [MiB]:              375
    Schwarz Cutoff:          1E-12

    OpenMP threads:              1

  Minimum eigenvalue in the overlap matrix is 3.2065919159E-04.
  Using Symmetric Orthogonalization.

  SCF Guess: Superposition of Atomic Densities via on-the-fly atomic UHF.

  ==> Iterations <==

                        Total Energy        Delta E     RMS |[F,P]|

   @RHF iter SAD:  -478.51767424947889   -4.78518e+02   0.00000e+00
   @RHF iter   1:  -478.99453919894597   -4.76865e-01   2.70239e-03 DIIS
   @RHF iter   2:  -479.22722160636795   -2.32682e-01   1.06275e-03 DIIS
   @RHF iter   3:  -479.25840556652065   -3.11840e-02   2.81793e-04 DIIS
   @RHF iter   4:  -479.26168054246256   -3.27498e-03   1.02004e-04 DIIS
   @RHF iter   5:  -479.26201061557578   -3.30073e-04   2.22815e-05 DIIS
   @RHF iter   6:  -479.26203470574080   -2.40902e-05   6.54042e-06 DIIS
   @RHF iter   7:  -479.26203684654945   -2.14081e-06   2.20985e-06 DIIS
   @RHF iter   8:  -479.26203713702188   -2.90472e-07   7.38108e-07 DIIS
   @RHF iter   9:  -479.26203717532786   -3.83060e-08   2.71711e-07 DIIS
   @RHF iter  10:  -479.26203718147906   -6.15120e-09   1.09746e-07 DIIS
   @RHF iter  11:  -479.26203718346449   -1.98543e-09   5.12703e-08 DIIS
   @RHF iter  12:  -479.26203718391577   -4.51280e-10   2.27311e-08 DIIS
   @RHF iter  13:  -479.26203718398938   -7.36122e-11   8.21280e-09 DIIS
   @RHF iter  14:  -479.26203718399580   -6.42331e-12   2.27040e-09 DIIS
   @RHF iter  15:  -479.26203718399620   -3.97904e-13   8.78454e-10 DIIS
   @RHF iter  16:  -479.26203718399807   -1.87583e-12   2.92358e-10 DIIS
   @RHF iter  17:  -479.26203718399688    1.19371e-12   1.37183e-10 DIIS
   @RHF iter  18:  -479.26203718399557    1.30740e-12   7.46341e-11 DIIS
  Energy and wave function converged.

  ==> Post-Iterations <==

    Orbital Energies [Eh]
    ---------------------

    Doubly Occupied:

       1A    -20.680510     2A    -15.900911     3A    -11.471094
       4A    -11.402139     5A    -11.400724     6A    -11.342261
       7A    -11.340585     8A    -11.337202     9A    -11.336056
      10A    -11.332939    11A    -11.326442    12A     -1.519773
      13A     -1.494077    14A     -1.256635    15A     -1.214228
      16A     -1.140233    17A     -1.122468    18A     -1.049940
      19A     -1.026726    20A     -0.975628    21A     -0.963819
      22A     -0.946773    23A     -0.903170    24A     -0.854815
      25A     -0.830997    26A     -0.789992    27A     -0.769181
      28A     -0.742495    29A     -0.716835    30A     -0.707546
      31A     -0.696874    32A     -0.689643    33A     -0.685460
      34A     -0.679757    35A     -0.669393    36A     -0.666315
      37A     -0.625237    38A     -0.598456    39A     -0.586739
      40A     -0.570336    41A     -0.444604    42A     -0.405973

    Virtual:

      43A     -0.046311    44A      0.016483    45A      0.019510
      46A      0.024720    47A      0.037661    48A      0.052849
      49A      0.075528    50A      0.089525    51A      0.098433
      52A      0.105838    53A      0.123544    54A      0.124842
      55A      0.138612    56A      0.143636    57A      0.161668
      58A      0.171285    59A      0.176441    60A      0.178982
      61A      0.203500    62A      0.210129    63A      0.271588
      64A      0.273035    65A      0.330523    66A      0.354364
      67A      0.377731    68A      0.384156    69A      0.394583
      70A      0.399000    71A      0.409106    72A      0.417661
      73A      0.437600    74A      0.439533    75A      0.516548
      76A      0.533458    77A      0.548971    78A      0.564399
      79A      0.584899    80A      0.594471    81A      0.600998
      82A      0.608537    83A      0.623574    84A      0.626891
      85A      0.634007    86A      0.636141    87A      0.652642
      88A      0.669057    89A      0.673974    90A      0.683294
      91A      0.688049    92A      0.697812    93A      0.710092
      94A      0.719560    95A      0.723296    96A      0.740263
      97A      0.757114    98A      0.760285    99A      0.778790
     100A      0.780365   101A      0.787835   102A      0.790883
     103A      0.797253   104A      0.803601   105A      0.816045
     106A      0.827337   107A      0.832631   108A      0.839941
     109A      0.849321   110A      0.855062   111A      0.868319
     112A      0.913315   113A      0.924368   114A      0.933336
     115A      0.939986   116A      0.968882   117A      1.021679
     118A      1.028134   119A      1.042435   120A      1.059860
     121A      1.078500   122A      1.109517   123A      1.130724
     124A      1.153282   125A      1.158516   126A      1.189111
     127A      1.202275   128A      1.206530   129A      1.212702
     130A      1.215749   131A      1.251112   132A      1.259047
     133A      1.272210   134A      1.290699   135A      1.295844
     136A      1.377420   137A      1.389190   138A      1.409156
     139A      1.444491   140A      1.454350   141A      1.465125
     142A      1.480508   143A      1.509192   144A      1.514580
     145A      1.524774   146A      1.583553   147A      1.589775
     148A      1.607839   149A      1.629055   150A      1.640682
     151A      1.669179   152A      1.683811   153A      1.686129
     154A      1.700784   155A      1.727734   156A      1.731777
     157A      1.745100   158A      1.762240   159A      1.769693
     160A      1.780695   161A      1.783180   162A      1.794117
     163A      1.801663   164A      1.810052   165A      1.822170
     166A      1.823239   167A      1.827502   168A      1.851587
     169A      1.861349   170A      1.867803   171A      1.890875
     172A      1.898144   173A      1.906054   174A      1.910128
     175A      1.931581   176A      1.952714   177A      1.955514
     178A      1.963422   179A      1.967558   180A      1.993641
     181A      2.006942   182A      2.021502   183A      2.039876
     184A      2.048055   185A      2.089047   186A      2.094582
     187A      2.116930   188A      2.127096   189A      2.157404
     190A      2.162060   191A      2.166275   192A      2.174260
     193A      2.201947   194A      2.256807   195A      2.278994
     196A      2.297790   197A      2.300699   198A      2.322546
     199A      2.349373   200A      2.374780   201A      2.379068
     202A      2.401049   203A      2.426094   204A      2.436827
     205A      2.458103   206A      2.514591   207A      2.517949
     208A      2.539453   209A      2.550248   210A      2.600794
     211A      2.633102   212A      2.641245   213A      2.674284
     214A      2.679156   215A      2.693188   216A      2.704768
     217A      2.743494   218A      2.746976   219A      2.788264
     220A      2.795864   221A      2.863893   222A      2.875634
     223A      2.899643   224A      2.989280   225A      3.026602
     226A      3.092056   227A      3.130913   228A      3.150022
     229A      3.181063   230A      3.247070   231A      3.474076
     232A      3.574544   233A      3.867891   234A      4.090327

    Final Occupation by Irrep:
              A
    DOCC [    42 ]

  @RHF Final Energy:  -479.26203718399557

   => Energetics <=

    Nuclear Repulsion Energy =            604.8030551508455801
    One-Electron Energy =               -1837.7002249085553558
    Two-Electron Energy =                 753.6351325737143725
    Total Energy =                       -479.2620371839955169

Computation Completed

Properties will be evaluated at   0.000000,   0.000000,   0.000000 [a0]

Properties computed using the SCF density matrix

  Nuclear Dipole Moment: [e a0]
     X:     4.2661      Y:     2.9101      Z:   -13.9117

  Electronic Dipole Moment: [e a0]
     X:    -1.8631      Y:    -2.5898      Z:     8.2977

  Dipole Moment: [e a0]
     X:     2.4030      Y:     0.3203      Z:    -5.6139     Total:     6.1150

  Dipole Moment: [D]
     X:     6.1079      Y:     0.8141      Z:   -14.2692     Total:    15.5428

*** tstop() called on ds3 at Tue Apr 28 10:06:32 2020
Module time:
	user time   =     160.33 seconds =       2.67 minutes
	system time =      62.66 seconds =       1.04 minutes
	total time  =        214 seconds =       3.57 minutes
Total time:
	user time   =     160.33 seconds =       2.67 minutes
	system time =      62.66 seconds =       1.04 minutes
	total time  =        214 seconds =       3.57 minutes
                                     G D M A

                                 by Anthony Stone

                           version 2.2.06, 22 June 2011

               Distributed Multipoles from Gaussian wavefunctions

Starting at 10:6:32 on 28 Apr 2020

Using SCF density matrix from file ./SSI/SSI-030LYS-078TYR-2-dimer.test.10681.fchk

                         Distributed Multipole Analysis

Standard DMA

Positions and radii in angstrom
Multipole moments in atomic units, ea_0^k for rank k

C          x =  0.900045  y = -0.408270  z = -2.295548 angstrom
           Maximum rank =  0   Radius =  0.650 angstrom
                   Q00  =  -0.025642

C          x =  1.048045  y = -1.894270  z = -2.583548 angstrom
           Maximum rank =  0   Radius =  0.650 angstrom
                   Q00  =  -0.227107

N          x =  1.777045  y =  0.380730  z = -3.201548 angstrom
           Maximum rank =  0   Radius =  0.650 angstrom
                   Q00  =  -0.138267

H          x = -0.147955  y = -0.121270  z = -2.431548 angstrom
           Maximum rank =  0   Radius =  0.325 angstrom
                   Q00  =   0.129703

H          x =  1.170045  y = -0.213270  z = -1.250548 angstrom
           Maximum rank =  0   Radius =  0.325 angstrom
                   Q00  =   0.137689

H          x =  2.107045  y = -2.163270  z = -2.566548 angstrom
           Maximum rank =  0   Radius =  0.325 angstrom
                   Q00  =   0.096352

H          x =  0.641045  y = -2.116270  z = -3.572548 angstrom
           Maximum rank =  0   Radius =  0.325 angstrom
                   Q00  =   0.102106

H          x =  1.630045  y =  1.375730  z = -3.085548 angstrom
           Maximum rank =  0   Radius =  0.325 angstrom
                   Q00  =   0.257859

H          x =  2.756045  y =  0.187730  z = -3.033548 angstrom
           Maximum rank =  0   Radius =  0.325 angstrom
                   Q00  =   0.257536

H          x =  1.582045  y =  0.154730  z = -4.181548 angstrom
           Maximum rank =  0   Radius =  0.325 angstrom
                   Q00  =   0.255840

H          x =  0.516575  y = -2.488650  z = -1.825752 angstrom
           Maximum rank =  0   Radius =  0.325 angstrom
                   Q00  =   0.151611

C          x = -0.842955  y =  3.086730  z =  0.465452 angstrom
           Maximum rank =  0   Radius =  0.650 angstrom
                   Q00  =  -0.183103

C          x = -1.624955  y =  0.691730  z =  0.398452 angstrom
           Maximum rank =  0   Radius =  0.650 angstrom
                   Q00  =  -0.033189

C          x = -0.686955  y =  1.630730  z =  0.819452 angstrom
           Maximum rank =  0   Radius =  0.650 angstrom
                   Q00  =  -0.152754

C          x = -1.485955  y = -0.649270  z =  0.737452 angstrom
           Maximum rank =  0   Radius =  0.650 angstrom
                   Q00  =  -0.207372

C          x =  0.401045  y =  1.204730  z =  1.572452 angstrom
           Maximum rank =  0   Radius =  0.650 angstrom
                   Q00  =   0.014424

C          x = -0.390955  y = -1.063270  z =  1.498452 angstrom
           Maximum rank =  0   Radius =  0.650 angstrom
                   Q00  =   0.326336

C          x =  0.550045  y = -0.136270  z =  1.915452 angstrom
           Maximum rank =  0   Radius =  0.650 angstrom
                   Q00  =  -0.121332

O          x = -0.242955  y = -2.377270  z =  1.842452 angstrom
           Maximum rank =  0   Radius =  0.650 angstrom
                   Q00  =  -0.681020

H          x = -2.474955  y =  1.006730  z = -0.192548 angstrom
           Maximum rank =  0   Radius =  0.325 angstrom
                   Q00  =   0.078476

H          x = -2.198955  y = -1.371270  z =  0.367452 angstrom
           Maximum rank =  0   Radius =  0.325 angstrom
                   Q00  =   0.080650

H          x = -1.709955  y =  3.206730  z = -0.185548 angstrom
           Maximum rank =  0   Radius =  0.325 angstrom
                   Q00  =   0.098321

H          x =  0.038045  y =  3.397730  z = -0.097548 angstrom
           Maximum rank =  0   Radius =  0.325 angstrom
                   Q00  =   0.074137

H          x =  1.142045  y =  1.921730  z =  1.901452 angstrom
           Maximum rank =  0   Radius =  0.325 angstrom
                   Q00  =   0.072844

H          x =  1.395045  y = -0.461270  z =  2.505452 angstrom
           Maximum rank =  0   Radius =  0.325 angstrom
                   Q00  =   0.094701

H          x = -0.928955  y = -2.937270  z =  1.446452 angstrom
           Maximum rank =  0   Radius =  0.325 angstrom
                   Q00  =   0.416046

H          x = -0.959785  y =  3.738980  z =  1.343472 angstrom
           Maximum rank =  0   Radius =  0.325 angstrom
                   Q00  =   0.125156

Total multipoles referred to origin at
           x =   0.000000,  y =    0.000000,  z =    0.000000 angstrom
                   Q00  =   1.000000

Finished at 10:6:32 on 28 Apr 2020

  DMA results are available in the Python driver through the
	  variable('DMA DISTRIBUTED MULTIPOLES')
  and
	  variable('DMA TOTAL MULTIPOLES')
  commands.

    Psi4 stopped on: Tuesday, 28 April 2020 10:06AM
    Psi4 wall time for execution: 0:03:34.32

*** Psi4 exiting successfully. Buy a developer a beer!
