                               Psi4 1.3.2 release

  ==> Input File <==

--------------------------------------------------------------------------
import numpy as np
set {scf_type pk
basis cc-pvdz
d_convergence 10
gdma_switch   0
gdma_limit    0
gdma_origin   [ 0.0,  0.0,  0.0 ]
}
molecule test {
    units Angstrom
    1 1
    --
    1 1
    C                2.526877397894159    -0.103867419086932    -2.487655480764829
    C               -0.087122602105841     1.098132580913068    -0.097655480764829
    C                0.291877397894159     0.306132580913068    -1.210655480764829
    C                1.682877397894159     0.537132580913068    -1.440655480764829
    C                2.084877397894159     1.425132580913068    -0.484655480764829
    C               -1.379122602105841     1.112132580913068     0.396344519235171
    C               -2.316122602105841     0.316132580913068    -0.235655480764829
    C               -0.674122602105841    -0.492867419086932    -1.829655480764829
    C               -1.968122602105841    -0.476867419086932    -1.336655480764829
    N                1.029877397894159     1.767132580913068     0.318344519235171
    H                1.075877397894159     2.442132580913068     1.073344519235171
    H               -1.646122602105841     1.741132580913068     1.235344519235171
    H                3.086877397894159     1.823132580913068    -0.391655480764829
    H               -3.342122602105841     0.318132580913068     0.114344519235171
    H               -0.419122602105841    -1.101867419086932    -2.675655480764829
    H                2.245877397894159    -1.149867419086932    -2.573655480764829
    H                3.557877397894159    -0.084867419086932    -2.130655480764829
    H               -2.708122602105841    -1.079867419086932    -1.826655480764829
    H                2.503167397894159     0.359582580913068    -3.484975480764830
    C               -0.204122602105841    -1.162867419086932     2.766344519235171
    C                0.672877397894159    -2.082867419086932     1.938344519235171
    N               -1.643122602105841    -1.474867419086932     2.532344519235171
    H                0.047877397894159    -1.282867419086932     3.825344519235171
    H                0.006877397894159    -0.125867419086932     2.483344519235170
    H                0.365877397894159    -2.020867419086932     0.891344519235171
    H                0.497877397894159    -3.096867419086932     2.292344519235171
    H               -1.870122602105841    -2.418867419086931     2.826344519235171
    H               -2.237122602105841    -0.847867419086932     3.064344519235170
    H               -1.892122602105841    -1.378867419086932     1.554344519235171
    H                1.738257397894159    -1.817607419086932     2.006104519235171

}
e, wfn = energy('scf', return_wfn=True)
gdma(wfn)
dmavals = variable('DMA DISTRIBUTED MULTIPOLES')
charges = np.array(dmavals)
print(charges)
np.save('SSI-035TRP-161LYS-1-dimer.npy', np.array(charges))--------------------------------------------------------------------------

*** tstart() called on ds3
*** at Tue Apr 28 03:35:59 2020

   => Loading Basis Set <=

    Name: CC-PVDZ
    Role: ORBITAL
    Keyword: BASIS
    atoms 1-9, 20-21   entry C          line   138 file /theoryfs2/ds/metcalf/miniconda2/envs/tf2gpu/share/psi4/basis/cc-pvdz.gbs
    atoms 10, 22       entry N          line   168 file /theoryfs2/ds/metcalf/miniconda2/envs/tf2gpu/share/psi4/basis/cc-pvdz.gbs
    atoms 11-19, 23-30 entry H          line    22 file /theoryfs2/ds/metcalf/miniconda2/envs/tf2gpu/share/psi4/basis/cc-pvdz.gbs

         ---------------------------------------------------------
                                   SCF
               by Justin Turney, Rob Parrish, Andy Simmonett
                          and Daniel G. A. Smith
                              RHF Reference
                        1 Threads,    500 MiB Core
         ---------------------------------------------------------

  ==> Geometry <==

    Molecular point group: c1
    Full point group: C1

    Geometry (in Angstrom), charge = 1, multiplicity = 1:

       Center              X                  Y                   Z               Mass
    ------------   -----------------  -----------------  -----------------  -----------------
         C            2.526877397894    -0.103867419087    -2.487655480765    12.000000000000
         C           -0.087122602106     1.098132580913    -0.097655480765    12.000000000000
         C            0.291877397894     0.306132580913    -1.210655480765    12.000000000000
         C            1.682877397894     0.537132580913    -1.440655480765    12.000000000000
         C            2.084877397894     1.425132580913    -0.484655480765    12.000000000000
         C           -1.379122602106     1.112132580913     0.396344519235    12.000000000000
         C           -2.316122602106     0.316132580913    -0.235655480765    12.000000000000
         C           -0.674122602106    -0.492867419087    -1.829655480765    12.000000000000
         C           -1.968122602106    -0.476867419087    -1.336655480765    12.000000000000
         N            1.029877397894     1.767132580913     0.318344519235    14.003074004430
         H            1.075877397894     2.442132580913     1.073344519235     1.007825032230
         H           -1.646122602106     1.741132580913     1.235344519235     1.007825032230
         H            3.086877397894     1.823132580913    -0.391655480765     1.007825032230
         H           -3.342122602106     0.318132580913     0.114344519235     1.007825032230
         H           -0.419122602106    -1.101867419087    -2.675655480765     1.007825032230
         H            2.245877397894    -1.149867419087    -2.573655480765     1.007825032230
         H            3.557877397894    -0.084867419087    -2.130655480765     1.007825032230
         H           -2.708122602106    -1.079867419087    -1.826655480765     1.007825032230
         H            2.503167397894     0.359582580913    -3.484975480765     1.007825032230
         C           -0.204122602106    -1.162867419087     2.766344519235    12.000000000000
         C            0.672877397894    -2.082867419087     1.938344519235    12.000000000000
         N           -1.643122602106    -1.474867419087     2.532344519235    14.003074004430
         H            0.047877397894    -1.282867419087     3.825344519235     1.007825032230
         H            0.006877397894    -0.125867419087     2.483344519235     1.007825032230
         H            0.365877397894    -2.020867419087     0.891344519235     1.007825032230
         H            0.497877397894    -3.096867419087     2.292344519235     1.007825032230
         H           -1.870122602106    -2.418867419087     2.826344519235     1.007825032230
         H           -2.237122602106    -0.847867419087     3.064344519235     1.007825032230
         H           -1.892122602106    -1.378867419087     1.554344519235     1.007825032230
         H            1.738257397894    -1.817607419087     2.006104519235     1.007825032230

  Running in c1 symmetry.

  Rotational constants: A =      0.03367  B =      0.01947  C =      0.01680 [cm^-1]
  Rotational constants: A =   1009.50758  B =    583.57935  C =    503.56299 [MHz]
  Nuclear repulsion =  801.518754538532562

  Charge       = 1
  Multiplicity = 1
  Electrons    = 96
  Nalpha       = 48
  Nbeta        = 48

  ==> Algorithm <==

  SCF Algorithm Type is PK.
  DIIS enabled.
  MOM disabled.
  Fractional occupation disabled.
  Guess Type is SAD.
  Energy threshold   = 1.00e-06
  Density threshold  = 1.00e-10
  Integral threshold = 0.00e+00

  ==> Primary Basis <==

  Basis Set: CC-PVDZ
    Blend: CC-PVDZ
    Number of shells: 129
    Number of basis function: 267
    Number of Cartesian functions: 280
    Spherical Harmonics?: true
    Max angular momentum: 2

  ==> Pre-Iterations <==

   -------------------------------------------------------
    Irrep   Nso     Nmo     Nalpha   Nbeta   Ndocc  Nsocc
   -------------------------------------------------------
     A        267     267       0       0       0       0
   -------------------------------------------------------
    Total     267     267      48      48      48       0
   -------------------------------------------------------

  ==> Integral Setup <==

  Using integral reordering PK algorithm.
  Sizing the integral batches needed.
  Building batch lookup table.
   Calculation information:
      Number of atoms:                  30
      Number of AO shells:             129
      Number of primitives:            371
      Number of atomic orbitals:       280
      Number of basis functions:       267

      Integral cutoff                 1.00e-12
      Number of threads:                 1

	Batch   1 pq = [       0,    9405] index = [             0,44231715] size =     44231715
	Batch   2 pq = [    9405,   13301] index = [      44231715,88464951] size =     44233236
	Batch   3 pq = [   13301,   16290] index = [      88464951,132690195] size =     44225244
	Batch   4 pq = [   16290,   18810] index = [     132690195,176917455] size =     44227260
	Batch   5 pq = [   18810,   21030] index = [     176917455,221140965] size =     44223510
	Batch   6 pq = [   21030,   23037] index = [     221140965,265363203] size =     44222238
	Batch   7 pq = [   23037,   24883] index = [     265363203,309594286] size =     44231083
	Batch   8 pq = [   24883,   26601] index = [     309594286,353819901] size =     44225615
	Batch   9 pq = [   26601,   28214] index = [     353819901,398029005] size =     44209104
	Batch  10 pq = [   28214,   29740] index = [     398029005,442248670] size =     44219665
	Batch  11 pq = [   29740,   31191] index = [     442248670,486454836] size =     44206166
	Batch  12 pq = [   31191,   32578] index = [     486454836,530679331] size =     44224495
	Batch  13 pq = [   32578,   33908] index = [     530679331,574893186] size =     44213855
	Batch  14 pq = [   33908,   35188] index = [     574893186,619115266] size =     44222080
	Batch  15 pq = [   35188,   35778] index = [     619115266,640050531] size =     20935265
  Task number: 58
  Buffer size: 11059200
  Buffer per thread: 2
  We computed 41790770 shell quartets total.
  Whereas there are 35158305 unique shell quartets.
    18.86 percent of shell quartets recomputed by reordering.

  ==> DiskJK: Disk-Based J/K Matrices <==

    J tasked:                  Yes
    K tasked:                  Yes
    wK tasked:                  No
    Memory [MiB]:              375
    Schwarz Cutoff:          1E-12

    OpenMP threads:              1

  Minimum eigenvalue in the overlap matrix is 2.2911289695E-04.
  Using Symmetric Orthogonalization.

  SCF Guess: Superposition of Atomic Densities via on-the-fly atomic UHF.

  ==> Iterations <==

                        Total Energy        Delta E     RMS |[F,P]|

   @RHF iter SAD:  -535.02153570292512   -5.35022e+02   0.00000e+00
   @RHF iter   1:  -534.89155705199755    1.29979e-01   2.39830e-03 DIIS
   @RHF iter   2:  -535.13739710193727   -2.45840e-01   1.02537e-03 DIIS
   @RHF iter   3:  -535.17680387346843   -3.94068e-02   3.25311e-04 DIIS
   @RHF iter   4:  -535.18168521632049   -4.88134e-03   1.31455e-04 DIIS
   @RHF iter   5:  -535.18238110214565   -6.95886e-04   1.94360e-05 DIIS
   @RHF iter   6:  -535.18241304718288   -3.19450e-05   8.29027e-06 DIIS
   @RHF iter   7:  -535.18241845333762   -5.40615e-06   3.38069e-06 DIIS
   @RHF iter   8:  -535.18241989467481   -1.44134e-06   1.27619e-06 DIIS
   @RHF iter   9:  -535.18242018614058   -2.91466e-07   5.75127e-07 DIIS
   @RHF iter  10:  -535.18242024182541   -5.56848e-08   2.61302e-07 DIIS
   @RHF iter  11:  -535.18242025706752   -1.52421e-08   1.00114e-07 DIIS
   @RHF iter  12:  -535.18242025916300   -2.09548e-09   3.68260e-08 DIIS
   @RHF iter  13:  -535.18242025936593   -2.02931e-10   1.60587e-08 DIIS
   @RHF iter  14:  -535.18242025940253   -3.66072e-11   5.77124e-09 DIIS
   @RHF iter  15:  -535.18242025940390   -1.36424e-12   2.28368e-09 DIIS
   @RHF iter  16:  -535.18242025940845   -4.54747e-12   1.10889e-09 DIIS
   @RHF iter  17:  -535.18242025940617    2.27374e-12   4.98745e-10 DIIS
   @RHF iter  18:  -535.18242025940538    7.95808e-13   2.12866e-10 DIIS
   @RHF iter  19:  -535.18242025941117   -5.79803e-12   6.79441e-11 DIIS
  Energy and wave function converged.

  ==> Post-Iterations <==

    Orbital Energies [Eh]
    ---------------------

    Doubly Occupied:

       1A    -15.879596     2A    -15.717785     3A    -11.461788
       4A    -11.386550     5A    -11.384010     6A    -11.373831
       7A    -11.358954     8A    -11.356246     9A    -11.347808
      10A    -11.342580    11A    -11.338876    12A    -11.324164
      13A    -11.317745    14A     -1.501322    15A     -1.414987
      16A     -1.255920    17A     -1.203306    18A     -1.188573
      19A     -1.121475    20A     -1.106225    21A     -1.037186
      22A     -1.035414    23A     -0.960654    24A     -0.958291
      25A     -0.944006    26A     -0.925711    27A     -0.869879
      28A     -0.842763    29A     -0.838393    30A     -0.781490
      31A     -0.779389    32A     -0.762426    33A     -0.723288
      34A     -0.715229    35A     -0.707209    36A     -0.705830
      37A     -0.681886    38A     -0.675755    39A     -0.668181
      40A     -0.652442    41A     -0.646839    42A     -0.639417
      43A     -0.608187    44A     -0.588483    45A     -0.584652
      46A     -0.493245    47A     -0.419620    48A     -0.390815

    Virtual:

      49A     -0.025058    50A     -0.003002    51A      0.027523
      52A      0.041361    53A      0.050547    54A      0.062952
      55A      0.073981    56A      0.096531    57A      0.099482
      58A      0.107565    59A      0.111019    60A      0.123298
      61A      0.129879    62A      0.132446    63A      0.148768
      64A      0.154706    65A      0.158754    66A      0.175379
      67A      0.187084    68A      0.198130    69A      0.208154
      70A      0.224262    71A      0.262655    72A      0.276816
      73A      0.301050    74A      0.304910    75A      0.331330
      76A      0.356597    77A      0.366119    78A      0.381149
      79A      0.384021    80A      0.397040    81A      0.419969
      82A      0.431214    83A      0.445462    84A      0.462008
      85A      0.489211    86A      0.518302    87A      0.532043
      88A      0.541812    89A      0.559043    90A      0.578025
      91A      0.588744    92A      0.598260    93A      0.609720
      94A      0.619016    95A      0.621622    96A      0.623691
      97A      0.634362    98A      0.638933    99A      0.655989
     100A      0.659704   101A      0.668002   102A      0.675049
     103A      0.677414   104A      0.680414   105A      0.689047
     106A      0.704323   107A      0.707623   108A      0.730884
     109A      0.745938   110A      0.753095   111A      0.768042
     112A      0.770139   113A      0.777019   114A      0.784762
     115A      0.791884   116A      0.793827   117A      0.808202
     118A      0.820170   119A      0.832815   120A      0.837300
     121A      0.845635   122A      0.855766   123A      0.861030
     124A      0.878226   125A      0.879835   126A      0.903862
     127A      0.909087   128A      0.916310   129A      0.941592
     130A      0.956666   131A      0.960277   132A      0.976117
     133A      0.997896   134A      1.019104   135A      1.023869
     136A      1.034560   137A      1.051713   138A      1.072749
     139A      1.079176   140A      1.102499   141A      1.115225
     142A      1.127963   143A      1.138885   144A      1.143309
     145A      1.165252   146A      1.180199   147A      1.185390
     148A      1.199794   149A      1.214158   150A      1.227177
     151A      1.243372   152A      1.258971   153A      1.291359
     154A      1.308708   155A      1.326823   156A      1.340456
     157A      1.395756   158A      1.420945   159A      1.444064
     160A      1.469461   161A      1.483339   162A      1.494913
     163A      1.512669   164A      1.517220   165A      1.527040
     166A      1.545125   167A      1.554039   168A      1.593888
     169A      1.598907   170A      1.612770   171A      1.631629
     172A      1.642282   173A      1.656245   174A      1.675076
     175A      1.686030   176A      1.707058   177A      1.714927
     178A      1.724732   179A      1.734769   180A      1.739540
     181A      1.766651   182A      1.772416   183A      1.781183
     184A      1.785096   185A      1.794853   186A      1.799301
     187A      1.810543   188A      1.812965   189A      1.820751
     190A      1.830553   191A      1.842871   192A      1.847647
     193A      1.854745   194A      1.868170   195A      1.878247
     196A      1.898531   197A      1.908563   198A      1.917352
     199A      1.932608   200A      1.952450   201A      1.954172
     202A      1.962044   203A      1.971368   204A      1.989324
     205A      1.998156   206A      1.999763   207A      2.007284
     208A      2.027211   209A      2.039967   210A      2.043460
     211A      2.049726   212A      2.050435   213A      2.064084
     214A      2.085050   215A      2.120289   216A      2.142848
     217A      2.152577   218A      2.180004   219A      2.195601
     220A      2.198938   221A      2.204889   222A      2.213359
     223A      2.233878   224A      2.262412   225A      2.302022
     226A      2.313153   227A      2.327779   228A      2.334841
     229A      2.363207   230A      2.373794   231A      2.403392
     232A      2.442313   233A      2.454640   234A      2.486061
     235A      2.506960   236A      2.533082   237A      2.537042
     238A      2.563544   239A      2.575250   240A      2.580575
     241A      2.594904   242A      2.628119   243A      2.657672
     244A      2.670067   245A      2.674070   246A      2.681643
     247A      2.685856   248A      2.713709   249A      2.732234
     250A      2.769308   251A      2.784018   252A      2.796541
     253A      2.815655   254A      2.823187   255A      2.875310
     256A      2.887385   257A      2.934208   258A      2.963388
     259A      2.973054   260A      3.019216   261A      3.106047
     262A      3.150465   263A      3.173348   264A      3.205927
     265A      3.272612   266A      3.643690   267A      3.853709

    Final Occupation by Irrep:
              A
    DOCC [    48 ]

  @RHF Final Energy:  -535.18242025941117

   => Energetics <=

    Nuclear Repulsion Energy =            801.5187545385325620
    One-Electron Energy =               -2301.3655111176494756
    Two-Electron Energy =                 964.6643363197058534
    Total Energy =                       -535.1824202594111739

Computation Completed

Properties will be evaluated at   0.000000,   0.000000,   0.000000 [a0]

Properties computed using the SCF density matrix

  Nuclear Dipole Moment: [e a0]
     X:     0.9501      Y:    -9.1150      Z:     7.7571

  Electronic Dipole Moment: [e a0]
     X:    -2.3892      Y:     7.2489      Z:    -3.5006

  Dipole Moment: [e a0]
     X:    -1.4391      Y:    -1.8661      Z:     4.2564     Total:     4.8652

  Dipole Moment: [D]
     X:    -3.6577      Y:    -4.7432      Z:    10.8187     Total:    12.3661

*** tstop() called on ds3 at Tue Apr 28 03:42:58 2020
Module time:
	user time   =     327.11 seconds =       5.45 minutes
	system time =     104.91 seconds =       1.75 minutes
	total time  =        419 seconds =       6.98 minutes
Total time:
	user time   =     327.11 seconds =       5.45 minutes
	system time =     104.91 seconds =       1.75 minutes
	total time  =        419 seconds =       6.98 minutes
                                     G D M A

                                 by Anthony Stone

                           version 2.2.06, 22 June 2011

               Distributed Multipoles from Gaussian wavefunctions

Starting at 3:42:58 on 28 Apr 2020

Using SCF density matrix from file ./SSI/SSI-035TRP-161LYS-1-dimer.test.19313.fchk

                         Distributed Multipole Analysis

Standard DMA

Positions and radii in angstrom
Multipole moments in atomic units, ea_0^k for rank k

C          x =  2.526877  y = -0.103867  z = -2.487655 angstrom
           Maximum rank =  0   Radius =  0.650 angstrom
                   Q00  =  -0.211548

C          x = -0.087123  y =  1.098133  z = -0.097655 angstrom
           Maximum rank =  0   Radius =  0.650 angstrom
                   Q00  =   0.289565

C          x =  0.291877  y =  0.306133  z = -1.210655 angstrom
           Maximum rank =  0   Radius =  0.650 angstrom
                   Q00  =  -0.050812

C          x =  1.682877  y =  0.537133  z = -1.440655 angstrom
           Maximum rank =  0   Radius =  0.650 angstrom
                   Q00  =  -0.119793

C          x =  2.084877  y =  1.425133  z = -0.484655 angstrom
           Maximum rank =  0   Radius =  0.650 angstrom
                   Q00  =   0.076032

C          x = -1.379123  y =  1.112133  z =  0.396345 angstrom
           Maximum rank =  0   Radius =  0.650 angstrom
                   Q00  =  -0.162184

C          x = -2.316123  y =  0.316133  z = -0.235655 angstrom
           Maximum rank =  0   Radius =  0.650 angstrom
                   Q00  =  -0.159321

C          x = -0.674123  y = -0.492867  z = -1.829655 angstrom
           Maximum rank =  0   Radius =  0.650 angstrom
                   Q00  =  -0.091117

C          x = -1.968123  y = -0.476867  z = -1.336655 angstrom
           Maximum rank =  0   Radius =  0.650 angstrom
                   Q00  =  -0.082365

N          x =  1.029877  y =  1.767133  z =  0.318345 angstrom
           Maximum rank =  0   Radius =  0.650 angstrom
                   Q00  =  -0.501429

H          x =  1.075877  y =  2.442133  z =  1.073345 angstrom
           Maximum rank =  0   Radius =  0.325 angstrom
                   Q00  =   0.230890

H          x = -1.646123  y =  1.741133  z =  1.235345 angstrom
           Maximum rank =  0   Radius =  0.325 angstrom
                   Q00  =   0.080205

H          x =  3.086877  y =  1.823133  z = -0.391655 angstrom
           Maximum rank =  0   Radius =  0.325 angstrom
                   Q00  =   0.121337

H          x = -3.342123  y =  0.318133  z =  0.114345 angstrom
           Maximum rank =  0   Radius =  0.325 angstrom
                   Q00  =   0.068168

H          x = -0.419123  y = -1.101867  z = -2.675655 angstrom
           Maximum rank =  0   Radius =  0.325 angstrom
                   Q00  =   0.094472

H          x =  2.245877  y = -1.149867  z = -2.573655 angstrom
           Maximum rank =  0   Radius =  0.325 angstrom
                   Q00  =   0.100996

H          x =  3.557877  y = -0.084867  z = -2.130655 angstrom
           Maximum rank =  0   Radius =  0.325 angstrom
                   Q00  =   0.112919

H          x = -2.708123  y = -1.079867  z = -1.826655 angstrom
           Maximum rank =  0   Radius =  0.325 angstrom
                   Q00  =   0.081063

H          x =  2.503167  y =  0.359583  z = -3.484975 angstrom
           Maximum rank =  0   Radius =  0.325 angstrom
                   Q00  =   0.120932

C          x = -0.204123  y = -1.162867  z =  2.766345 angstrom
           Maximum rank =  0   Radius =  0.650 angstrom
                   Q00  =  -0.033287

C          x =  0.672877  y = -2.082867  z =  1.938345 angstrom
           Maximum rank =  0   Radius =  0.650 angstrom
                   Q00  =  -0.207119

N          x = -1.643123  y = -1.474867  z =  2.532345 angstrom
           Maximum rank =  0   Radius =  0.650 angstrom
                   Q00  =  -0.139714

H          x =  0.047877  y = -1.282867  z =  3.825345 angstrom
           Maximum rank =  0   Radius =  0.325 angstrom
                   Q00  =   0.119565

H          x =  0.006877  y = -0.125867  z =  2.483345 angstrom
           Maximum rank =  0   Radius =  0.325 angstrom
                   Q00  =   0.129173

H          x =  0.365877  y = -2.020867  z =  0.891345 angstrom
           Maximum rank =  0   Radius =  0.325 angstrom
                   Q00  =   0.111895

H          x =  0.497877  y = -3.096867  z =  2.292345 angstrom
           Maximum rank =  0   Radius =  0.325 angstrom
                   Q00  =   0.091571

H          x = -1.870123  y = -2.418867  z =  2.826345 angstrom
           Maximum rank =  0   Radius =  0.325 angstrom
                   Q00  =   0.244021

H          x = -2.237123  y = -0.847867  z =  3.064345 angstrom
           Maximum rank =  0   Radius =  0.325 angstrom
                   Q00  =   0.249316

H          x = -1.892123  y = -1.378867  z =  1.554345 angstrom
           Maximum rank =  0   Radius =  0.325 angstrom
                   Q00  =   0.288237

H          x =  1.738257  y = -1.817607  z =  2.006105 angstrom
           Maximum rank =  0   Radius =  0.325 angstrom
                   Q00  =   0.148332

Total multipoles referred to origin at
           x =   0.000000,  y =    0.000000,  z =    0.000000 angstrom
                   Q00  =   1.000000

Finished at 3:42:58 on 28 Apr 2020

  DMA results are available in the Python driver through the
	  variable('DMA DISTRIBUTED MULTIPOLES')
  and
	  variable('DMA TOTAL MULTIPOLES')
  commands.

    Psi4 stopped on: Tuesday, 28 April 2020 03:42AM
    Psi4 wall time for execution: 0:06:58.46

*** Psi4 exiting successfully. Buy a developer a beer!
