                               Psi4 1.3.2 release

  ==> Input File <==

--------------------------------------------------------------------------
import numpy as np
set {scf_type pk
basis cc-pvdz
d_convergence 10
gdma_switch   0
gdma_limit    0
gdma_origin   [ 0.0,  0.0,  0.0 ]
}
molecule test {
    units Angstrom
    0 1
    --
    0 1
    C                1.465551216649051     1.746876363897468     2.917525105951913
    C                2.144551216649051     1.354876363897468     4.232525105951913
    H                1.943551216649051     1.253876363897468     2.077525105951913
    H                0.407551216649050     1.489876363897468     2.931525105951913
    H                1.549551216649050     2.826876363897467     2.798525105951913
    H                1.528551216649051     1.692876363897468     5.066525105951913
    H                3.137841216649051     1.824818363897468     4.282876105951914
    H                2.294871216649050     0.266678363897468     4.289344105951914
    C                0.358551216649050     0.880876363897468    -2.958474894048087
    C               -0.267448783350950    -0.653123636102532     0.480525105951913
    C                0.264551216649050     0.127876363897468    -0.571474894048087
    C               -1.297448783350949    -1.555123636102532     0.212525105951913
    C               -0.233448783350950     0.023876363897468    -1.870474894048087
    C               -1.797448783350950    -1.675123636102532    -1.103474894048087
    C               -1.267448783350950    -0.882123636102533    -2.136474894048087
    H                0.128551216649050    -0.565123636102532     1.482525105951913
    H                1.058551216649051     0.828876363897468    -0.355474894048087
    H               -1.720448783350949    -2.150123636102533     1.011525105951913
    H               -2.631448783350950    -2.331123636102532    -1.295474894048087
    H                0.791551216649050     1.774876363897468    -2.506474894048087
    H               -0.439448783350950     1.207876363897468    -3.626474894048087
    H               -1.682448783350949    -0.959123636102532    -3.131474894048087
    H                1.134991216649050     0.353414363897468    -3.531990894048087

}
e, wfn = energy('scf', return_wfn=True)
gdma(wfn)
dmavals = variable('DMA DISTRIBUTED MULTIPOLES')
charges = np.array(dmavals)
print(charges)
np.save('SSI-012ALA-059PHE-1-dimer.npy', np.array(charges))--------------------------------------------------------------------------

*** tstart() called on ds3
*** at Sun Apr 26 20:50:00 2020

   => Loading Basis Set <=

    Name: CC-PVDZ
    Role: ORBITAL
    Keyword: BASIS
    atoms 1-2, 9-15  entry C          line   138 file /theoryfs2/ds/metcalf/miniconda2/envs/tf2gpu/share/psi4/basis/cc-pvdz.gbs
    atoms 3-8, 16-23 entry H          line    22 file /theoryfs2/ds/metcalf/miniconda2/envs/tf2gpu/share/psi4/basis/cc-pvdz.gbs

         ---------------------------------------------------------
                                   SCF
               by Justin Turney, Rob Parrish, Andy Simmonett
                          and Daniel G. A. Smith
                              RHF Reference
                        1 Threads,    500 MiB Core
         ---------------------------------------------------------

  ==> Geometry <==

    Molecular point group: c1
    Full point group: C1

    Geometry (in Angstrom), charge = 0, multiplicity = 1:

       Center              X                  Y                   Z               Mass
    ------------   -----------------  -----------------  -----------------  -----------------
         C            1.465551216649     1.746876363897     2.917525105952    12.000000000000
         C            2.144551216649     1.354876363897     4.232525105952    12.000000000000
         H            1.943551216649     1.253876363897     2.077525105952     1.007825032230
         H            0.407551216649     1.489876363897     2.931525105952     1.007825032230
         H            1.549551216649     2.826876363897     2.798525105952     1.007825032230
         H            1.528551216649     1.692876363897     5.066525105952     1.007825032230
         H            3.137841216649     1.824818363897     4.282876105952     1.007825032230
         H            2.294871216649     0.266678363897     4.289344105952     1.007825032230
         C            0.358551216649     0.880876363897    -2.958474894048    12.000000000000
         C           -0.267448783351    -0.653123636103     0.480525105952    12.000000000000
         C            0.264551216649     0.127876363897    -0.571474894048    12.000000000000
         C           -1.297448783351    -1.555123636103     0.212525105952    12.000000000000
         C           -0.233448783351     0.023876363897    -1.870474894048    12.000000000000
         C           -1.797448783351    -1.675123636103    -1.103474894048    12.000000000000
         C           -1.267448783351    -0.882123636103    -2.136474894048    12.000000000000
         H            0.128551216649    -0.565123636103     1.482525105952     1.007825032230
         H            1.058551216649     0.828876363897    -0.355474894048     1.007825032230
         H           -1.720448783351    -2.150123636103     1.011525105952     1.007825032230
         H           -2.631448783351    -2.331123636103    -1.295474894048     1.007825032230
         H            0.791551216649     1.774876363897    -2.506474894048     1.007825032230
         H           -0.439448783351     1.207876363897    -3.626474894048     1.007825032230
         H           -1.682448783351    -0.959123636103    -3.131474894048     1.007825032230
         H            1.134991216649     0.353414363897    -3.531990894048     1.007825032230

  Running in c1 symmetry.

  Rotational constants: A =      0.08138  B =      0.01966  C =      0.01612 [cm^-1]
  Rotational constants: A =   2439.73476  B =    589.31835  C =    483.31679 [MHz]
  Nuclear repulsion =  395.207705716759961

  Charge       = 0
  Multiplicity = 1
  Electrons    = 68
  Nalpha       = 34
  Nbeta        = 34

  ==> Algorithm <==

  SCF Algorithm Type is PK.
  DIIS enabled.
  MOM disabled.
  Fractional occupation disabled.
  Guess Type is SAD.
  Energy threshold   = 1.00e-06
  Density threshold  = 1.00e-10
  Integral threshold = 0.00e+00

  ==> Primary Basis <==

  Basis Set: CC-PVDZ
    Blend: CC-PVDZ
    Number of shells: 96
    Number of basis function: 196
    Number of Cartesian functions: 205
    Spherical Harmonics?: true
    Max angular momentum: 2

  ==> Pre-Iterations <==

   -------------------------------------------------------
    Irrep   Nso     Nmo     Nalpha   Nbeta   Ndocc  Nsocc
   -------------------------------------------------------
     A        196     196       0       0       0       0
   -------------------------------------------------------
    Total     196     196      34      34      34       0
   -------------------------------------------------------

  ==> Integral Setup <==

  Using integral reordering PK algorithm.
  Sizing the integral batches needed.
  Building batch lookup table.
   Calculation information:
      Number of atoms:                  23
      Number of AO shells:              96
      Number of primitives:            268
      Number of atomic orbitals:       205
      Number of basis functions:       196

      Integral cutoff                 1.00e-12
      Number of threads:                 1

	Batch   1 pq = [       0,    9405] index = [             0,44231715] size =     44231715
	Batch   2 pq = [    9405,   13301] index = [      44231715,88464951] size =     44233236
	Batch   3 pq = [   13301,   16290] index = [      88464951,132690195] size =     44225244
	Batch   4 pq = [   16290,   18810] index = [     132690195,176917455] size =     44227260
	Batch   5 pq = [   18810,   19306] index = [     176917455,186370471] size =      9453016
  Task number: 17
  Buffer size: 11059200
  Buffer per thread: 2
  We computed 8273339 shell quartets total.
  Whereas there are 10841496 unique shell quartets.

  ==> DiskJK: Disk-Based J/K Matrices <==

    J tasked:                  Yes
    K tasked:                  Yes
    wK tasked:                  No
    Memory [MiB]:              375
    Schwarz Cutoff:          1E-12

    OpenMP threads:              1

  Minimum eigenvalue in the overlap matrix is 3.2870723249E-04.
  Using Symmetric Orthogonalization.

  SCF Guess: Superposition of Atomic Densities via on-the-fly atomic UHF.

  ==> Iterations <==

                        Total Energy        Delta E     RMS |[F,P]|

   @RHF iter SAD:  -347.74401109654161   -3.47744e+02   0.00000e+00
   @RHF iter   1:  -348.77034930819838   -1.02634e+00   2.85768e-03 DIIS
   @RHF iter   2:  -348.95987247350507   -1.89523e-01   1.17339e-03 DIIS
   @RHF iter   3:  -348.98889241021448   -2.90199e-02   2.57938e-04 DIIS
   @RHF iter   4:  -348.99135003222409   -2.45762e-03   5.68924e-05 DIIS
   @RHF iter   5:  -348.99143137558673   -8.13434e-05   1.96205e-05 DIIS
   @RHF iter   6:  -348.99144082760802   -9.45202e-06   4.93437e-06 DIIS
   @RHF iter   7:  -348.99144156955481   -7.41947e-07   1.27020e-06 DIIS
   @RHF iter   8:  -348.99144164146907   -7.19143e-08   4.03087e-07 DIIS
   @RHF iter   9:  -348.99144165702455   -1.55555e-08   1.89667e-07 DIIS
   @RHF iter  10:  -348.99144166142821   -4.40366e-09   8.91283e-08 DIIS
   @RHF iter  11:  -348.99144166263414   -1.20593e-09   2.64772e-08 DIIS
   @RHF iter  12:  -348.99144166271333   -7.91829e-11   1.00623e-08 DIIS
   @RHF iter  13:  -348.99144166271822   -4.88853e-12   3.87064e-09 DIIS
   @RHF iter  14:  -348.99144166271861   -3.97904e-13   1.04053e-09 DIIS
   @RHF iter  15:  -348.99144166271850    1.13687e-13   3.31566e-10 DIIS
   @RHF iter  16:  -348.99144166271833    1.70530e-13   7.27622e-11 DIIS
  Energy and wave function converged.

  ==> Post-Iterations <==

    Orbital Energies [Eh]
    ---------------------

    Doubly Occupied:

       1A    -11.241193     2A    -11.238928     3A    -11.237373
       4A    -11.233836     5A    -11.233248     6A    -11.231715
       7A    -11.229315     8A    -11.221306     9A    -11.218561
      10A     -1.145294    11A     -1.041410    12A     -1.020308
      13A     -1.005244    14A     -0.928808    15A     -0.839623
      16A     -0.823608    17A     -0.791620    18A     -0.686902
      19A     -0.632340    20A     -0.626267    21A     -0.603782
      22A     -0.597948    23A     -0.579024    24A     -0.576824
      25A     -0.560946    26A     -0.533236    27A     -0.501578
      28A     -0.492344    29A     -0.486780    30A     -0.483922
      31A     -0.480073    32A     -0.478983    33A     -0.327632
      34A     -0.320502

    Virtual:

      35A      0.133119    36A      0.140045    37A      0.173403
      38A      0.191002    39A      0.206660    40A      0.217190
      41A      0.233293    42A      0.241986    43A      0.249827
      44A      0.256254    45A      0.259334    46A      0.273296
      47A      0.279719    48A      0.290163    49A      0.321461
      50A      0.332936    51A      0.362744    52A      0.379676
      53A      0.400541    54A      0.451260    55A      0.457472
      56A      0.477423    57A      0.489162    58A      0.558452
      59A      0.592363    60A      0.598537    61A      0.604730
      62A      0.626729    63A      0.643089    64A      0.671119
      65A      0.686866    66A      0.692036    67A      0.697186
      68A      0.717345    69A      0.720377    70A      0.739220
      71A      0.744746    72A      0.745581    73A      0.755692
      74A      0.774782    75A      0.781842    76A      0.802229
      77A      0.830163    78A      0.840520    79A      0.864277
      80A      0.868742    81A      0.877620    82A      0.881833
      83A      0.887333    84A      0.891574    85A      0.895515
      86A      0.901227    87A      0.912890    88A      0.918941
      89A      0.927992    90A      0.933477    91A      0.940684
      92A      0.962433    93A      0.975767    94A      0.998769
      95A      1.025789    96A      1.049008    97A      1.098852
      98A      1.118754    99A      1.126319   100A      1.147042
     101A      1.152423   102A      1.164622   103A      1.204872
     104A      1.229298   105A      1.234553   106A      1.244555
     107A      1.246624   108A      1.270532   109A      1.298446
     110A      1.306765   111A      1.316987   112A      1.335376
     113A      1.411750   114A      1.476666   115A      1.487650
     116A      1.511312   117A      1.521770   118A      1.557546
     119A      1.592930   120A      1.604708   121A      1.676662
     122A      1.679858   123A      1.691234   124A      1.701843
     125A      1.728879   126A      1.742691   127A      1.754719
     128A      1.786215   129A      1.804192   130A      1.850039
     131A      1.861632   132A      1.872351   133A      1.881037
     134A      1.891399   135A      1.899280   136A      1.907437
     137A      1.912689   138A      1.921074   139A      1.931819
     140A      1.936669   141A      1.941234   142A      1.947794
     143A      1.954461   144A      1.959848   145A      1.969445
     146A      1.983215   147A      1.989950   148A      1.993191
     149A      2.027658   150A      2.054138   151A      2.063135
     152A      2.108541   153A      2.114853   154A      2.129596
     155A      2.136860   156A      2.154999   157A      2.157340
     158A      2.166562   159A      2.191832   160A      2.257040
     161A      2.270187   162A      2.289918   163A      2.292236
     164A      2.300770   165A      2.312737   166A      2.314022
     167A      2.327791   168A      2.443861   169A      2.453877
     170A      2.462120   171A      2.477131   172A      2.491380
     173A      2.531992   174A      2.574851   175A      2.578961
     176A      2.618857   177A      2.737745   178A      2.745809
     179A      2.760711   180A      2.768324   181A      2.771188
     182A      2.794027   183A      2.819807   184A      2.835187
     185A      2.842201   186A      2.856905   187A      2.866060
     188A      2.946942   189A      2.964539   190A      2.967505
     191A      2.991611   192A      3.011821   193A      3.138989
     194A      3.182245   195A      3.277306   196A      3.926795

    Final Occupation by Irrep:
              A
    DOCC [    34 ]

  @RHF Final Energy:  -348.99144166271833

   => Energetics <=

    Nuclear Repulsion Energy =            395.2077057167599605
    One-Electron Energy =               -1253.0973501878793286
    Two-Electron Energy =                 508.8982028084010381
    Total Energy =                       -348.9914416627183300

Computation Completed

Properties will be evaluated at   0.000000,   0.000000,   0.000000 [a0]

Properties computed using the SCF density matrix

  Nuclear Dipole Moment: [e a0]
     X:     7.0327      Y:     7.0447      Z:     8.8994

  Electronic Dipole Moment: [e a0]
     X:    -7.0010      Y:    -6.9384      Z:    -8.9731

  Dipole Moment: [e a0]
     X:     0.0317      Y:     0.1063      Z:    -0.0737     Total:     0.1331

  Dipole Moment: [D]
     X:     0.0805      Y:     0.2701      Z:    -0.1872     Total:     0.3383

*** tstop() called on ds3 at Sun Apr 26 20:51:30 2020
Module time:
	user time   =      61.84 seconds =       1.03 minutes
	system time =      31.89 seconds =       0.53 minutes
	total time  =         90 seconds =       1.50 minutes
Total time:
	user time   =      61.84 seconds =       1.03 minutes
	system time =      31.89 seconds =       0.53 minutes
	total time  =         90 seconds =       1.50 minutes
                                     G D M A

                                 by Anthony Stone

                           version 2.2.06, 22 June 2011

               Distributed Multipoles from Gaussian wavefunctions

Starting at 20:51:30 on 26 Apr 2020

Using SCF density matrix from file ./SSI/SSI-012ALA-059PHE-1-dimer.test.10372.fchk

                         Distributed Multipole Analysis

Standard DMA

Positions and radii in angstrom
Multipole moments in atomic units, ea_0^k for rank k

C          x =  1.465551  y =  1.746876  z =  2.917525 angstrom
           Maximum rank =  0   Radius =  0.650 angstrom
                   Q00  =  -0.248585

C          x =  2.144551  y =  1.354876  z =  4.232525 angstrom
           Maximum rank =  0   Radius =  0.650 angstrom
                   Q00  =  -0.226960

H          x =  1.943551  y =  1.253876  z =  2.077525 angstrom
           Maximum rank =  0   Radius =  0.325 angstrom
                   Q00  =   0.077744

H          x =  0.407551  y =  1.489876  z =  2.931525 angstrom
           Maximum rank =  0   Radius =  0.325 angstrom
                   Q00  =   0.080631

H          x =  1.549551  y =  2.826876  z =  2.798525 angstrom
           Maximum rank =  0   Radius =  0.325 angstrom
                   Q00  =   0.079397

H          x =  1.528551  y =  1.692876  z =  5.066525 angstrom
           Maximum rank =  0   Radius =  0.325 angstrom
                   Q00  =   0.082046

H          x =  3.137841  y =  1.824818  z =  4.282876 angstrom
           Maximum rank =  0   Radius =  0.325 angstrom
                   Q00  =   0.078038

H          x =  2.294871  y =  0.266678  z =  4.289344 angstrom
           Maximum rank =  0   Radius =  0.325 angstrom
                   Q00  =   0.077593

C          x =  0.358551  y =  0.880876  z = -2.958475 angstrom
           Maximum rank =  0   Radius =  0.650 angstrom
                   Q00  =  -0.201294

C          x = -0.267449  y = -0.653124  z =  0.480525 angstrom
           Maximum rank =  0   Radius =  0.650 angstrom
                   Q00  =  -0.078075

C          x =  0.264551  y =  0.127876  z = -0.571475 angstrom
           Maximum rank =  0   Radius =  0.650 angstrom
                   Q00  =  -0.000919

C          x = -1.297449  y = -1.555124  z =  0.212525 angstrom
           Maximum rank =  0   Radius =  0.650 angstrom
                   Q00  =  -0.081992

C          x = -0.233449  y =  0.023876  z = -1.870475 angstrom
           Maximum rank =  0   Radius =  0.650 angstrom
                   Q00  =  -0.099915

C          x = -1.797449  y = -1.675124  z = -1.103475 angstrom
           Maximum rank =  0   Radius =  0.650 angstrom
                   Q00  =  -0.064817

C          x = -1.267449  y = -0.882124  z = -2.136475 angstrom
           Maximum rank =  0   Radius =  0.650 angstrom
                   Q00  =  -0.094152

H          x =  0.128551  y = -0.565124  z =  1.482525 angstrom
           Maximum rank =  0   Radius =  0.325 angstrom
                   Q00  =   0.069444

H          x =  1.058551  y =  0.828876  z = -0.355475 angstrom
           Maximum rank =  0   Radius =  0.325 angstrom
                   Q00  =   0.058597

H          x = -1.720449  y = -2.150124  z =  1.011525 angstrom
           Maximum rank =  0   Radius =  0.325 angstrom
                   Q00  =   0.063807

H          x = -2.631449  y = -2.331124  z = -1.295475 angstrom
           Maximum rank =  0   Radius =  0.325 angstrom
                   Q00  =   0.068370

H          x =  0.791551  y =  1.774876  z = -2.506475 angstrom
           Maximum rank =  0   Radius =  0.325 angstrom
                   Q00  =   0.097488

H          x = -0.439449  y =  1.207876  z = -3.626475 angstrom
           Maximum rank =  0   Radius =  0.325 angstrom
                   Q00  =   0.098383

H          x = -1.682449  y = -0.959124  z = -3.131475 angstrom
           Maximum rank =  0   Radius =  0.325 angstrom
                   Q00  =   0.059766

H          x =  1.134991  y =  0.353414  z = -3.531991 angstrom
           Maximum rank =  0   Radius =  0.325 angstrom
                   Q00  =   0.105404

Total multipoles referred to origin at
           x =   0.000000,  y =    0.000000,  z =    0.000000 angstrom
                   Q00  =  -0.000000

Finished at 20:51:30 on 26 Apr 2020

  DMA results are available in the Python driver through the
	  variable('DMA DISTRIBUTED MULTIPOLES')
  and
	  variable('DMA TOTAL MULTIPOLES')
  commands.

    Psi4 stopped on: Sunday, 26 April 2020 08:51PM
    Psi4 wall time for execution: 0:01:29.79

*** Psi4 exiting successfully. Buy a developer a beer!
