                               Psi4 1.3.2 release

  ==> Input File <==

--------------------------------------------------------------------------
import numpy as np
set {scf_type pk
basis cc-pvdz
d_convergence 10
gdma_switch   0
gdma_limit    0
gdma_origin   [ 0.0,  0.0,  0.0 ]
}
molecule test {
    units Angstrom
    0 1
    --
    0 1
    C               -0.602166931169199     0.224771748902961     1.721456678053841
    C               -0.936166931169199     0.306771748902961     3.204456678053841
    H               -1.370166931169199    -0.346228251097039     1.198456678053841
    H               -0.564166931169199     1.227771748902961     1.299456678053841
    H                0.366833068830801    -0.257228251097039     1.581456678053841
    H               -1.921166931169199     0.759771748902961     3.307456678053842
    H               -0.949786931169199    -0.708638251097039     3.627246678053841
    H               -0.201966931169199     0.932891748902961     3.732586678053841
    C                0.321833068830801    -0.548228251097039    -1.908543321946158
    C                1.217833068830801     0.015771748902961    -3.018543321946158
    H               -0.206166931169199    -1.436228251097039    -2.258543321946159
    H                0.926833068830801    -0.814228251097039    -1.042543321946159
    H               -0.409166931169199     0.202771748902961    -1.602543321946159
    H                1.796833068830801     0.837771748902961    -2.605543321946159
    H                0.607553068830801     0.379371748902961    -3.858393321946159
    H                1.908673068830801    -0.766928251097039    -3.365123321946158

}
e, wfn = energy('scf', return_wfn=True)
gdma(wfn)
dmavals = variable('DMA DISTRIBUTED MULTIPOLES')
charges = np.array(dmavals)
print(charges)
np.save('SSI-066LEU-138THR-1-dimer.npy', np.array(charges))--------------------------------------------------------------------------

*** tstart() called on ds3
*** at Mon Apr 27 19:09:26 2020

   => Loading Basis Set <=

    Name: CC-PVDZ
    Role: ORBITAL
    Keyword: BASIS
    atoms 1-2, 9-10  entry C          line   138 file /theoryfs2/ds/metcalf/miniconda2/envs/tf2gpu/share/psi4/basis/cc-pvdz.gbs
    atoms 3-8, 11-16 entry H          line    22 file /theoryfs2/ds/metcalf/miniconda2/envs/tf2gpu/share/psi4/basis/cc-pvdz.gbs

         ---------------------------------------------------------
                                   SCF
               by Justin Turney, Rob Parrish, Andy Simmonett
                          and Daniel G. A. Smith
                              RHF Reference
                        1 Threads,    500 MiB Core
         ---------------------------------------------------------

  ==> Geometry <==

    Molecular point group: c1
    Full point group: C1

    Geometry (in Angstrom), charge = 0, multiplicity = 1:

       Center              X                  Y                   Z               Mass
    ------------   -----------------  -----------------  -----------------  -----------------
         C           -0.602166931169     0.224771748903     1.721456678054    12.000000000000
         C           -0.936166931169     0.306771748903     3.204456678054    12.000000000000
         H           -1.370166931169    -0.346228251097     1.198456678054     1.007825032230
         H           -0.564166931169     1.227771748903     1.299456678054     1.007825032230
         H            0.366833068831    -0.257228251097     1.581456678054     1.007825032230
         H           -1.921166931169     0.759771748903     3.307456678054     1.007825032230
         H           -0.949786931169    -0.708638251097     3.627246678054     1.007825032230
         H           -0.201966931169     0.932891748903     3.732586678054     1.007825032230
         C            0.321833068831    -0.548228251097    -1.908543321946    12.000000000000
         C            1.217833068831     0.015771748903    -3.018543321946    12.000000000000
         H           -0.206166931169    -1.436228251097    -2.258543321946     1.007825032230
         H            0.926833068831    -0.814228251097    -1.042543321946     1.007825032230
         H           -0.409166931169     0.202771748903    -1.602543321946     1.007825032230
         H            1.796833068831     0.837771748903    -2.605543321946     1.007825032230
         H            0.607553068831     0.379371748903    -3.858393321946     1.007825032230
         H            1.908673068831    -0.766928251097    -3.365123321946     1.007825032230

  Running in c1 symmetry.

  Rotational constants: A =      0.89459  B =      0.03761  C =      0.03714 [cm^-1]
  Rotational constants: A =  26819.07055  B =   1127.60744  C =   1113.42129 [MHz]
  Nuclear repulsion =  118.863201262949900

  Charge       = 0
  Multiplicity = 1
  Electrons    = 36
  Nalpha       = 18
  Nbeta        = 18

  ==> Algorithm <==

  SCF Algorithm Type is PK.
  DIIS enabled.
  MOM disabled.
  Fractional occupation disabled.
  Guess Type is SAD.
  Energy threshold   = 1.00e-06
  Density threshold  = 1.00e-10
  Integral threshold = 0.00e+00

  ==> Primary Basis <==

  Basis Set: CC-PVDZ
    Blend: CC-PVDZ
    Number of shells: 60
    Number of basis function: 116
    Number of Cartesian functions: 120
    Spherical Harmonics?: true
    Max angular momentum: 2

  ==> Pre-Iterations <==

   -------------------------------------------------------
    Irrep   Nso     Nmo     Nalpha   Nbeta   Ndocc  Nsocc
   -------------------------------------------------------
     A        116     116       0       0       0       0
   -------------------------------------------------------
    Total     116     116      18      18      18       0
   -------------------------------------------------------

  ==> Integral Setup <==

  Using integral reordering PK algorithm.
  Sizing the integral batches needed.
  Building batch lookup table.
   Calculation information:
      Number of atoms:                  16
      Number of AO shells:              60
      Number of primitives:            148
      Number of atomic orbitals:       120
      Number of basis functions:       116

      Integral cutoff                 1.00e-12
      Number of threads:                 1

	Batch   1 pq = [       0,    6786] index = [             0,23028291] size =     23028291
  Task number: 3
  Buffer size: 11059200
  Buffer per thread: 2
  We computed 1303862 shell quartets total.
  Whereas there are 1675365 unique shell quartets.

  ==> DiskJK: Disk-Based J/K Matrices <==

    J tasked:                  Yes
    K tasked:                  Yes
    wK tasked:                  No
    Memory [MiB]:              375
    Schwarz Cutoff:          1E-12

    OpenMP threads:              1

  Minimum eigenvalue in the overlap matrix is 6.4907127396E-03.
  Using Symmetric Orthogonalization.

  SCF Guess: Superposition of Atomic Densities via on-the-fly atomic UHF.

  ==> Iterations <==

                        Total Energy        Delta E     RMS |[F,P]|

   @RHF iter SAD:  -157.33931108035407   -1.57339e+02   0.00000e+00
   @RHF iter   1:  -158.30803091783969   -9.68720e-01   4.22173e-03 DIIS
   @RHF iter   2:  -158.44174693819491   -1.33716e-01   1.80385e-03 DIIS
   @RHF iter   3:  -158.46533349815465   -2.35866e-02   3.49800e-04 DIIS
   @RHF iter   4:  -158.46716348632907   -1.82999e-03   3.87812e-05 DIIS
   @RHF iter   5:  -158.46718707428437   -2.35880e-05   6.62607e-06 DIIS
   @RHF iter   6:  -158.46718772173574   -6.47451e-07   1.05137e-06 DIIS
   @RHF iter   7:  -158.46718773248375   -1.07480e-08   3.13366e-07 DIIS
   @RHF iter   8:  -158.46718773332555   -8.41794e-10   3.57886e-08 DIIS
   @RHF iter   9:  -158.46718773334388   -1.83320e-11   6.41996e-09 DIIS
   @RHF iter  10:  -158.46718773334504   -1.16529e-12   1.86423e-09 DIIS
   @RHF iter  11:  -158.46718773334456    4.83169e-13   5.61347e-10 DIIS
   @RHF iter  12:  -158.46718773334462   -5.68434e-14   1.29343e-10 DIIS
   @RHF iter  13:  -158.46718773334447    1.42109e-13   2.02796e-11 DIIS
  Energy and wave function converged.

  ==> Post-Iterations <==

    Orbital Energies [Eh]
    ---------------------

    Doubly Occupied:

       1A    -11.218752     2A    -11.218368     3A    -11.215901
       4A    -11.215795     5A     -1.019960     6A     -1.015951
       7A     -0.837564     8A     -0.832771     9A     -0.600411
      10A     -0.598732    11A     -0.597188    12A     -0.595526
      13A     -0.503163    14A     -0.494168    15A     -0.488339
      16A     -0.485394    17A     -0.484189    18A     -0.482394

    Virtual:

      19A      0.175946    20A      0.193050    21A      0.220542
      22A      0.231864    23A      0.245072    24A      0.258852
      25A      0.266329    26A      0.277289    27A      0.281740
      28A      0.285733    29A      0.298191    30A      0.331329
      31A      0.385013    32A      0.409135    33A      0.566052
      34A      0.594847    35A      0.597559    36A      0.604181
      37A      0.607496    38A      0.637726    39A      0.674991
      40A      0.690383    41A      0.694615    42A      0.736125
      43A      0.835728    44A      0.887113    45A      0.891944
      46A      0.892901    47A      0.895431    48A      0.897527
      49A      0.901761    50A      0.902945    51A      0.913623
      52A      0.916963    53A      0.921480    54A      0.944515
      55A      0.954910    56A      0.993290    57A      1.125973
      58A      1.127062    59A      1.129563    60A      1.136975
      61A      1.219233    62A      1.251628    63A      1.474186
      64A      1.476750    65A      1.480985    66A      1.486282
      67A      1.567331    68A      1.579599    69A      1.677422
      70A      1.679979    71A      1.692853    72A      1.695673
      73A      1.848135    74A      1.854424    75A      1.862218
      76A      1.873415    77A      1.890039    78A      1.924806
      79A      1.939682    80A      1.941204    81A      1.943849
      82A      1.946090    83A      1.951466    84A      1.957378
      85A      1.961320    86A      1.968390    87A      1.973286
      88A      2.050585    89A      2.100448    90A      2.102209
      91A      2.114404    92A      2.116014    93A      2.288105
      94A      2.300164    95A      2.313932    96A      2.333506
      97A      2.452115    98A      2.461413    99A      2.463599
     100A      2.468107   101A      2.560404   102A      2.563665
     103A      2.573642   104A      2.575859   105A      2.759659
     106A      2.764411   107A      2.787409   108A      2.787664
     109A      2.842716   110A      2.845460   111A      2.847482
     112A      2.854769   113A      2.944557   114A      2.946656
     115A      2.951629   116A      2.965692

    Final Occupation by Irrep:
              A
    DOCC [    18 ]

  @RHF Final Energy:  -158.46718773334447

   => Energetics <=

    Nuclear Repulsion Energy =            118.8632012629499002
    One-Electron Energy =                -446.8516507008204144
    Two-Electron Energy =                 169.5212617045260117
    Total Energy =                       -158.4671877333444741

Computation Completed

Properties will be evaluated at   0.000000,   0.000000,   0.000000 [a0]

Properties computed using the SCF density matrix

  Nuclear Dipole Moment: [e a0]
     X:    -0.0149      Y:     0.0102      Z:     0.0131

  Electronic Dipole Moment: [e a0]
     X:     0.0080      Y:    -0.0049      Z:    -0.0068

  Dipole Moment: [e a0]
     X:    -0.0069      Y:     0.0053      Z:     0.0063     Total:     0.0108

  Dipole Moment: [D]
     X:    -0.0176      Y:     0.0134      Z:     0.0161     Total:     0.0273

*** tstop() called on ds3 at Mon Apr 27 19:09:35 2020
Module time:
	user time   =       6.50 seconds =       0.11 minutes
	system time =       2.84 seconds =       0.05 minutes
	total time  =          9 seconds =       0.15 minutes
Total time:
	user time   =       6.50 seconds =       0.11 minutes
	system time =       2.84 seconds =       0.05 minutes
	total time  =          9 seconds =       0.15 minutes
                                     G D M A

                                 by Anthony Stone

                           version 2.2.06, 22 June 2011

               Distributed Multipoles from Gaussian wavefunctions

Starting at 19:9:35 on 27 Apr 2020

Using SCF density matrix from file ./SSI/SSI-066LEU-138THR-1-dimer.test.3900.fchk

                         Distributed Multipole Analysis

Standard DMA

Positions and radii in angstrom
Multipole moments in atomic units, ea_0^k for rank k

C          x = -0.602167  y =  0.224772  z =  1.721457 angstrom
           Maximum rank =  0   Radius =  0.650 angstrom
                   Q00  =  -0.235073

C          x = -0.936167  y =  0.306772  z =  3.204457 angstrom
           Maximum rank =  0   Radius =  0.650 angstrom
                   Q00  =  -0.234143

H          x = -1.370167  y = -0.346228  z =  1.198457 angstrom
           Maximum rank =  0   Radius =  0.325 angstrom
                   Q00  =   0.078865

H          x = -0.564167  y =  1.227772  z =  1.299457 angstrom
           Maximum rank =  0   Radius =  0.325 angstrom
                   Q00  =   0.077031

H          x =  0.366833  y = -0.257228  z =  1.581457 angstrom
           Maximum rank =  0   Radius =  0.325 angstrom
                   Q00  =   0.077792

H          x = -1.921167  y =  0.759772  z =  3.307457 angstrom
           Maximum rank =  0   Radius =  0.325 angstrom
                   Q00  =   0.078219

H          x = -0.949787  y = -0.708638  z =  3.627247 angstrom
           Maximum rank =  0   Radius =  0.325 angstrom
                   Q00  =   0.078065

H          x = -0.201967  y =  0.932892  z =  3.732587 angstrom
           Maximum rank =  0   Radius =  0.325 angstrom
                   Q00  =   0.079028

C          x =  0.321833  y = -0.548228  z = -1.908543 angstrom
           Maximum rank =  0   Radius =  0.650 angstrom
                   Q00  =  -0.238469

C          x =  1.217833  y =  0.015772  z = -3.018543 angstrom
           Maximum rank =  0   Radius =  0.650 angstrom
                   Q00  =  -0.236978

H          x = -0.206167  y = -1.436228  z = -2.258543 angstrom
           Maximum rank =  0   Radius =  0.325 angstrom
                   Q00  =   0.078502

H          x =  0.926833  y = -0.814228  z = -1.042543 angstrom
           Maximum rank =  0   Radius =  0.325 angstrom
                   Q00  =   0.080198

H          x = -0.409167  y =  0.202772  z = -1.602543 angstrom
           Maximum rank =  0   Radius =  0.325 angstrom
                   Q00  =   0.079725

H          x =  1.796833  y =  0.837772  z = -2.605543 angstrom
           Maximum rank =  0   Radius =  0.325 angstrom
                   Q00  =   0.079409

H          x =  0.607553  y =  0.379372  z = -3.858393 angstrom
           Maximum rank =  0   Radius =  0.325 angstrom
                   Q00  =   0.079751

H          x =  1.908673  y = -0.766928  z = -3.365123 angstrom
           Maximum rank =  0   Radius =  0.325 angstrom
                   Q00  =   0.078079

Total multipoles referred to origin at
           x =   0.000000,  y =    0.000000,  z =    0.000000 angstrom
                   Q00  =  -0.000000

Finished at 19:9:36 on 27 Apr 2020

  DMA results are available in the Python driver through the
	  variable('DMA DISTRIBUTED MULTIPOLES')
  and
	  variable('DMA TOTAL MULTIPOLES')
  commands.

    Psi4 stopped on: Monday, 27 April 2020 07:09PM
    Psi4 wall time for execution: 0:00:09.18

*** Psi4 exiting successfully. Buy a developer a beer!
