                               Psi4 1.3.2 release

  ==> Input File <==

--------------------------------------------------------------------------
import numpy as np
set {scf_type pk
basis cc-pvdz
d_convergence 10
gdma_switch   0
gdma_limit    0
gdma_origin   [ 0.0,  0.0,  0.0 ]
}
molecule test {
    units Angstrom
    0 1
    --
    0 1
    C               -0.596150037657696     1.202218507240509    -1.001857889670156
    C               -0.854150037657696     2.237218507240509    -2.091857889670156
    H               -1.542150037657696     0.770218507240509    -0.669857889670156
    H                0.038849962342304     0.407218507240509    -1.383857889670156
    H               -0.101150037657696     1.678218507240509    -0.155857889670156
    H                0.119849962342304     2.617218507240509    -2.389857889670156
    H               -1.464640037657696     3.065941507240509    -1.703887889670156
    H               -1.335400037657696     1.810805507240509    -2.984367889670156
    C                0.307849962342304    -2.000781492759491     0.977142110329844
    C                1.139849962342304    -1.437781492759491     2.115142110329844
    H                0.554849962342304    -3.048781492759491     0.820142110329844
    H               -0.752150037657696    -1.932781492759491     1.223142110329844
    H                0.497849962342304    -1.446781492759491     0.059142110329844
    H                0.973849962342304    -2.061781492759491     2.994142110329844
    H                2.206449962342304    -1.459942492759491     1.847062110329844
    H                0.834749962342304    -0.409959492759491     2.361102110329844

}
e, wfn = energy('scf', return_wfn=True)
gdma(wfn)
dmavals = variable('DMA DISTRIBUTED MULTIPOLES')
charges = np.array(dmavals)
print(charges)
np.save('SSI-173LEU-190VAL-1-dimer.npy', np.array(charges))--------------------------------------------------------------------------

*** tstart() called on ds3
*** at Mon Apr 27 02:08:59 2020

   => Loading Basis Set <=

    Name: CC-PVDZ
    Role: ORBITAL
    Keyword: BASIS
    atoms 1-2, 9-10  entry C          line   138 file /theoryfs2/ds/metcalf/miniconda2/envs/tf2gpu/share/psi4/basis/cc-pvdz.gbs
    atoms 3-8, 11-16 entry H          line    22 file /theoryfs2/ds/metcalf/miniconda2/envs/tf2gpu/share/psi4/basis/cc-pvdz.gbs

         ---------------------------------------------------------
                                   SCF
               by Justin Turney, Rob Parrish, Andy Simmonett
                          and Daniel G. A. Smith
                              RHF Reference
                        1 Threads,    500 MiB Core
         ---------------------------------------------------------

  ==> Geometry <==

    Molecular point group: c1
    Full point group: C1

    Geometry (in Angstrom), charge = 0, multiplicity = 1:

       Center              X                  Y                   Z               Mass
    ------------   -----------------  -----------------  -----------------  -----------------
         C           -0.596150037658     1.202218507241    -1.001857889670    12.000000000000
         C           -0.854150037658     2.237218507241    -2.091857889670    12.000000000000
         H           -1.542150037658     0.770218507241    -0.669857889670     1.007825032230
         H            0.038849962342     0.407218507241    -1.383857889670     1.007825032230
         H           -0.101150037658     1.678218507241    -0.155857889670     1.007825032230
         H            0.119849962342     2.617218507241    -2.389857889670     1.007825032230
         H           -1.464640037658     3.065941507241    -1.703887889670     1.007825032230
         H           -1.335400037658     1.810805507241    -2.984367889670     1.007825032230
         C            0.307849962342    -2.000781492759     0.977142110330    12.000000000000
         C            1.139849962342    -1.437781492759     2.115142110330    12.000000000000
         H            0.554849962342    -3.048781492759     0.820142110330     1.007825032230
         H           -0.752150037658    -1.932781492759     1.223142110330     1.007825032230
         H            0.497849962342    -1.446781492759     0.059142110330     1.007825032230
         H            0.973849962342    -2.061781492759     2.994142110330     1.007825032230
         H            2.206449962342    -1.459942492759     1.847062110330     1.007825032230
         H            0.834749962342    -0.409959492759     2.361102110330     1.007825032230

  Running in c1 symmetry.

  Rotational constants: A =      0.58489  B =      0.04353  C =      0.04189 [cm^-1]
  Rotational constants: A =  17534.70508  B =   1305.07610  C =   1255.80427 [MHz]
  Nuclear repulsion =  120.685962542238443

  Charge       = 0
  Multiplicity = 1
  Electrons    = 36
  Nalpha       = 18
  Nbeta        = 18

  ==> Algorithm <==

  SCF Algorithm Type is PK.
  DIIS enabled.
  MOM disabled.
  Fractional occupation disabled.
  Guess Type is SAD.
  Energy threshold   = 1.00e-06
  Density threshold  = 1.00e-10
  Integral threshold = 0.00e+00

  ==> Primary Basis <==

  Basis Set: CC-PVDZ
    Blend: CC-PVDZ
    Number of shells: 60
    Number of basis function: 116
    Number of Cartesian functions: 120
    Spherical Harmonics?: true
    Max angular momentum: 2

  ==> Pre-Iterations <==

   -------------------------------------------------------
    Irrep   Nso     Nmo     Nalpha   Nbeta   Ndocc  Nsocc
   -------------------------------------------------------
     A        116     116       0       0       0       0
   -------------------------------------------------------
    Total     116     116      18      18      18       0
   -------------------------------------------------------

  ==> Integral Setup <==

  Using integral reordering PK algorithm.
  Sizing the integral batches needed.
  Building batch lookup table.
   Calculation information:
      Number of atoms:                  16
      Number of AO shells:              60
      Number of primitives:            148
      Number of atomic orbitals:       120
      Number of basis functions:       116

      Integral cutoff                 1.00e-12
      Number of threads:                 1

	Batch   1 pq = [       0,    6786] index = [             0,23028291] size =     23028291
  Task number: 3
  Buffer size: 11059200
  Buffer per thread: 2
  We computed 1383041 shell quartets total.
  Whereas there are 1675365 unique shell quartets.

  ==> DiskJK: Disk-Based J/K Matrices <==

    J tasked:                  Yes
    K tasked:                  Yes
    wK tasked:                  No
    Memory [MiB]:              375
    Schwarz Cutoff:          1E-12

    OpenMP threads:              1

  Minimum eigenvalue in the overlap matrix is 6.6760293006E-03.
  Using Symmetric Orthogonalization.

  SCF Guess: Superposition of Atomic Densities via on-the-fly atomic UHF.

  ==> Iterations <==

                        Total Energy        Delta E     RMS |[F,P]|

   @RHF iter SAD:  -157.36694450831087   -1.57367e+02   0.00000e+00
   @RHF iter   1:  -158.30619718410287   -9.39253e-01   4.24215e-03 DIIS
   @RHF iter   2:  -158.44080840464505   -1.34611e-01   1.81721e-03 DIIS
   @RHF iter   3:  -158.46470982218003   -2.39014e-02   3.50350e-04 DIIS
   @RHF iter   4:  -158.46654512163377   -1.83530e-03   3.84528e-05 DIIS
   @RHF iter   5:  -158.46656835813548   -2.32365e-05   6.33413e-06 DIIS
   @RHF iter   6:  -158.46656896019698   -6.02062e-07   9.50775e-07 DIIS
   @RHF iter   7:  -158.46656896973684   -9.53986e-09   2.94518e-07 DIIS
   @RHF iter   8:  -158.46656897049189   -7.55051e-10   4.33056e-08 DIIS
   @RHF iter   9:  -158.46656897052242   -3.05249e-11   9.32541e-09 DIIS
   @RHF iter  10:  -158.46656897052412   -1.70530e-12   2.48391e-09 DIIS
   @RHF iter  11:  -158.46656897052398    1.42109e-13   6.95646e-10 DIIS
   @RHF iter  12:  -158.46656897052401   -2.84217e-14   1.82280e-10 DIIS
   @RHF iter  13:  -158.46656897052398    2.84217e-14   2.55644e-11 DIIS
  Energy and wave function converged.

  ==> Post-Iterations <==

    Orbital Energies [Eh]
    ---------------------

    Doubly Occupied:

       1A    -11.218772     2A    -11.217758     3A    -11.217081
       4A    -11.214223     5A     -1.020715     6A     -1.019011
       7A     -0.837989     8A     -0.833606     9A     -0.602322
      10A     -0.598248    11A     -0.597628    12A     -0.596486
      13A     -0.504620    14A     -0.500605    15A     -0.490205
      16A     -0.484800    17A     -0.482163    18A     -0.479036

    Virtual:

      19A      0.171992    20A      0.194364    21A      0.226844
      22A      0.232827    23A      0.236442    24A      0.260529
      25A      0.266493    26A      0.275558    27A      0.278893
      28A      0.286250    29A      0.310706    30A      0.355122
      31A      0.393298    32A      0.407845    33A      0.569000
      34A      0.590763    35A      0.599387    36A      0.604601
      37A      0.606778    38A      0.637640    39A      0.679280
      40A      0.682621    41A      0.691502    42A      0.745961
      43A      0.850860    44A      0.860338    45A      0.883606
      46A      0.888188    47A      0.893201    48A      0.895933
      49A      0.897795    50A      0.909941    51A      0.916059
      52A      0.930470    53A      0.943269    54A      0.946989
      55A      0.973546    56A      1.003360    57A      1.120865
      58A      1.125312    59A      1.132401    60A      1.141321
      61A      1.227429    62A      1.259590    63A      1.468104
      64A      1.478953    65A      1.485734    66A      1.487746
      67A      1.566045    68A      1.587457    69A      1.681141
      70A      1.682248    71A      1.693568    72A      1.698207
      73A      1.845973    74A      1.856720    75A      1.864018
      76A      1.882608    77A      1.899908    78A      1.905142
      79A      1.932690    80A      1.940823    81A      1.945921
      82A      1.947916    83A      1.953642    84A      1.956520
      85A      1.966446    86A      1.974562    87A      1.981284
      88A      2.043137    89A      2.081135    90A      2.104722
      91A      2.120115    92A      2.127223    93A      2.297699
      94A      2.301461    95A      2.314163    96A      2.332467
      97A      2.449148    98A      2.456934    99A      2.465452
     100A      2.477385   101A      2.550046   102A      2.565595
     103A      2.577279   104A      2.582101   105A      2.760256
     106A      2.762804   107A      2.786975   108A      2.795712
     109A      2.846476   110A      2.856250   111A      2.857419
     112A      2.868242   113A      2.947187   114A      2.954490
     115A      2.963055   116A      2.973150

    Final Occupation by Irrep:
              A
    DOCC [    18 ]

  @RHF Final Energy:  -158.46656897052398

   => Energetics <=

    Nuclear Repulsion Energy =            120.6859625422384426
    One-Electron Energy =                -450.4745293358767526
    Two-Electron Energy =                 171.3219978231143443
    Total Energy =                       -158.4665689705239799

Computation Completed

Properties will be evaluated at   0.000000,   0.000000,   0.000000 [a0]

Properties computed using the SCF density matrix

  Nuclear Dipole Moment: [e a0]
     X:     0.0290      Y:    -0.0098      Z:     0.0160

  Electronic Dipole Moment: [e a0]
     X:    -0.0282      Y:     0.0075      Z:    -0.0233

  Dipole Moment: [e a0]
     X:     0.0008      Y:    -0.0023      Z:    -0.0074     Total:     0.0077

  Dipole Moment: [D]
     X:     0.0021      Y:    -0.0058      Z:    -0.0187     Total:     0.0197

*** tstop() called on ds3 at Mon Apr 27 02:09:09 2020
Module time:
	user time   =       6.62 seconds =       0.11 minutes
	system time =       2.68 seconds =       0.04 minutes
	total time  =         10 seconds =       0.17 minutes
Total time:
	user time   =       6.62 seconds =       0.11 minutes
	system time =       2.68 seconds =       0.04 minutes
	total time  =         10 seconds =       0.17 minutes
                                     G D M A

                                 by Anthony Stone

                           version 2.2.06, 22 June 2011

               Distributed Multipoles from Gaussian wavefunctions

Starting at 2:9:9 on 27 Apr 2020

Using SCF density matrix from file ./SSI/SSI-173LEU-190VAL-1-dimer.test.15706.fchk

                         Distributed Multipole Analysis

Standard DMA

Positions and radii in angstrom
Multipole moments in atomic units, ea_0^k for rank k

C          x = -0.596150  y =  1.202219  z = -1.001858 angstrom
           Maximum rank =  0   Radius =  0.650 angstrom
                   Q00  =  -0.237446

C          x = -0.854150  y =  2.237219  z = -2.091858 angstrom
           Maximum rank =  0   Radius =  0.650 angstrom
                   Q00  =  -0.235138

H          x = -1.542150  y =  0.770219  z = -0.669858 angstrom
           Maximum rank =  0   Radius =  0.325 angstrom
                   Q00  =   0.077893

H          x =  0.038850  y =  0.407219  z = -1.383858 angstrom
           Maximum rank =  0   Radius =  0.325 angstrom
                   Q00  =   0.078806

H          x = -0.101150  y =  1.678219  z = -0.155858 angstrom
           Maximum rank =  0   Radius =  0.325 angstrom
                   Q00  =   0.080301

H          x =  0.119850  y =  2.617219  z = -2.389858 angstrom
           Maximum rank =  0   Radius =  0.325 angstrom
                   Q00  =   0.075710

H          x = -1.464640  y =  3.065942  z = -1.703888 angstrom
           Maximum rank =  0   Radius =  0.325 angstrom
                   Q00  =   0.079552

H          x = -1.335400  y =  1.810806  z = -2.984368 angstrom
           Maximum rank =  0   Radius =  0.325 angstrom
                   Q00  =   0.080919

C          x =  0.307850  y = -2.000781  z =  0.977142 angstrom
           Maximum rank =  0   Radius =  0.650 angstrom
                   Q00  =  -0.229805

C          x =  1.139850  y = -1.437781  z =  2.115142 angstrom
           Maximum rank =  0   Radius =  0.650 angstrom
                   Q00  =  -0.239194

H          x =  0.554850  y = -3.048781  z =  0.820142 angstrom
           Maximum rank =  0   Radius =  0.325 angstrom
                   Q00  =   0.076926

H          x = -0.752150  y = -1.932781  z =  1.223142 angstrom
           Maximum rank =  0   Radius =  0.325 angstrom
                   Q00  =   0.077546

H          x =  0.497850  y = -1.446781  z =  0.059142 angstrom
           Maximum rank =  0   Radius =  0.325 angstrom
                   Q00  =   0.081871

H          x =  0.973850  y = -2.061781  z =  2.994142 angstrom
           Maximum rank =  0   Radius =  0.325 angstrom
                   Q00  =   0.076295

H          x =  2.206450  y = -1.459942  z =  1.847062 angstrom
           Maximum rank =  0   Radius =  0.325 angstrom
                   Q00  =   0.077099

H          x =  0.834750  y = -0.409959  z =  2.361102 angstrom
           Maximum rank =  0   Radius =  0.325 angstrom
                   Q00  =   0.078666

Total multipoles referred to origin at
           x =   0.000000,  y =    0.000000,  z =    0.000000 angstrom
                   Q00  =  -0.000000

Finished at 2:9:9 on 27 Apr 2020

  DMA results are available in the Python driver through the
	  variable('DMA DISTRIBUTED MULTIPOLES')
  and
	  variable('DMA TOTAL MULTIPOLES')
  commands.

    Psi4 stopped on: Monday, 27 April 2020 02:09AM
    Psi4 wall time for execution: 0:00:09.21

*** Psi4 exiting successfully. Buy a developer a beer!
