                               Psi4 1.3.2 release

  ==> Input File <==

--------------------------------------------------------------------------
import numpy as np
set {scf_type pk
basis cc-pvdz
d_convergence 10
gdma_switch   0
gdma_limit    0
gdma_origin   [ 0.0,  0.0,  0.0 ]
}
molecule test {
    units Angstrom
    0 1
    --
    0 1
    C                0.036072157408635    -0.388795477097499    -2.452927731729542
    C               -0.817927842591365    -0.584795477097499    -3.729927731729542
    H                0.168072157408635    -1.331795477097499    -1.924927731729542
    H                1.017072157408635    -0.018795477097499    -2.743927731729543
    H               -0.440927842591365     0.338204522902501    -1.796927731729542
    H               -0.315927842591365    -1.286795477097499    -4.396927731729543
    H               -0.852927842591365     0.380204522902501    -4.221927731729542
    H               -1.846957842591365    -0.924695477097499    -3.541332731729542
    C               -0.004927842591365     0.335204522902501     1.334072268270458
    C               -0.461927842591365     1.114204522902501     2.598072268270458
    C                1.429072157408635     0.745204522902501     0.901072268270457
    C               -0.176927842591365    -1.180795477097500     1.538072268270457
    H               -0.678927842591365     0.626204522902501     0.530072268270458
    H               -1.510927842591365     0.894204522902501     2.747072268270457
    H                2.145072157408634     0.539204522902501     1.697072268270458
    H                1.710072157408635     0.161204522902501     0.024072268270457
    H                1.461072157408635     1.800204522902501     0.634072268270458
    H               -1.101927842591365    -1.404795477097500     2.061072268270457
    H               -0.177927842591365    -1.673795477097499     0.566072268270458
    H                0.650072157408635    -1.574795477097499     2.129072268270458
    H               -0.353447842591365     2.204314522902501     2.498629268270457
    H                0.087592157408635     0.792744522902501     3.495117268270457

}
e, wfn = energy('scf', return_wfn=True)
gdma(wfn)
dmavals = variable('DMA DISTRIBUTED MULTIPOLES')
charges = np.array(dmavals)
print(charges)
np.save('SSI-077ILE-125VAL-1-dimer.npy', np.array(charges))--------------------------------------------------------------------------

*** tstart() called on ds3
*** at Sun Apr 26 20:41:43 2020

   => Loading Basis Set <=

    Name: CC-PVDZ
    Role: ORBITAL
    Keyword: BASIS
    atoms 1-2, 9-12  entry C          line   138 file /theoryfs2/ds/metcalf/miniconda2/envs/tf2gpu/share/psi4/basis/cc-pvdz.gbs
    atoms 3-8, 13-22 entry H          line    22 file /theoryfs2/ds/metcalf/miniconda2/envs/tf2gpu/share/psi4/basis/cc-pvdz.gbs

         ---------------------------------------------------------
                                   SCF
               by Justin Turney, Rob Parrish, Andy Simmonett
                          and Daniel G. A. Smith
                              RHF Reference
                        1 Threads,    500 MiB Core
         ---------------------------------------------------------

  ==> Geometry <==

    Molecular point group: c1
    Full point group: C1

    Geometry (in Angstrom), charge = 0, multiplicity = 1:

       Center              X                  Y                   Z               Mass
    ------------   -----------------  -----------------  -----------------  -----------------
         C            0.036072157409    -0.388795477097    -2.452927731730    12.000000000000
         C           -0.817927842591    -0.584795477097    -3.729927731730    12.000000000000
         H            0.168072157409    -1.331795477097    -1.924927731730     1.007825032230
         H            1.017072157409    -0.018795477097    -2.743927731730     1.007825032230
         H           -0.440927842591     0.338204522903    -1.796927731730     1.007825032230
         H           -0.315927842591    -1.286795477097    -4.396927731730     1.007825032230
         H           -0.852927842591     0.380204522903    -4.221927731730     1.007825032230
         H           -1.846957842591    -0.924695477097    -3.541332731730     1.007825032230
         C           -0.004927842591     0.335204522903     1.334072268270    12.000000000000
         C           -0.461927842591     1.114204522903     2.598072268270    12.000000000000
         C            1.429072157409     0.745204522903     0.901072268270    12.000000000000
         C           -0.176927842591    -1.180795477098     1.538072268270    12.000000000000
         H           -0.678927842591     0.626204522903     0.530072268270     1.007825032230
         H           -1.510927842591     0.894204522903     2.747072268270     1.007825032230
         H            2.145072157409     0.539204522903     1.697072268270     1.007825032230
         H            1.710072157409     0.161204522903     0.024072268270     1.007825032230
         H            1.461072157409     1.800204522903     0.634072268270     1.007825032230
         H           -1.101927842591    -1.404795477098     2.061072268270     1.007825032230
         H           -0.177927842591    -1.673795477097     0.566072268270     1.007825032230
         H            0.650072157409    -1.574795477097     2.129072268270     1.007825032230
         H           -0.353447842591     2.204314522903     2.498629268270     1.007825032230
         H            0.087592157409     0.792744522903     3.495117268270     1.007825032230

  Running in c1 symmetry.

  Rotational constants: A =      0.16181  B =      0.03101  C =      0.02984 [cm^-1]
  Rotational constants: A =   4850.95754  B =    929.74993  C =    894.43826 [MHz]
  Nuclear repulsion =  243.223829482067657

  Charge       = 0
  Multiplicity = 1
  Electrons    = 52
  Nalpha       = 26
  Nbeta        = 26

  ==> Algorithm <==

  SCF Algorithm Type is PK.
  DIIS enabled.
  MOM disabled.
  Fractional occupation disabled.
  Guess Type is SAD.
  Energy threshold   = 1.00e-06
  Density threshold  = 1.00e-10
  Integral threshold = 0.00e+00

  ==> Primary Basis <==

  Basis Set: CC-PVDZ
    Blend: CC-PVDZ
    Number of shells: 84
    Number of basis function: 164
    Number of Cartesian functions: 170
    Spherical Harmonics?: true
    Max angular momentum: 2

  ==> Pre-Iterations <==

   -------------------------------------------------------
    Irrep   Nso     Nmo     Nalpha   Nbeta   Ndocc  Nsocc
   -------------------------------------------------------
     A        164     164       0       0       0       0
   -------------------------------------------------------
    Total     164     164      26      26      26       0
   -------------------------------------------------------

  ==> Integral Setup <==

  Using integral reordering PK algorithm.
  Sizing the integral batches needed.
  Building batch lookup table.
   Calculation information:
      Number of atoms:                  22
      Number of AO shells:              84
      Number of primitives:            212
      Number of atomic orbitals:       170
      Number of basis functions:       164

      Integral cutoff                 1.00e-12
      Number of threads:                 1

	Batch   1 pq = [       0,    9405] index = [             0,44231715] size =     44231715
	Batch   2 pq = [    9405,   13530] index = [      44231715,91537215] size =     47305500
  Task number: 9
  Buffer size: 11059200
  Buffer per thread: 2
  We computed 5634616 shell quartets total.
  Whereas there are 6374235 unique shell quartets.

  ==> DiskJK: Disk-Based J/K Matrices <==

    J tasked:                  Yes
    K tasked:                  Yes
    wK tasked:                  No
    Memory [MiB]:              375
    Schwarz Cutoff:          1E-12

    OpenMP threads:              1

  Minimum eigenvalue in the overlap matrix is 4.8592991260E-03.
  Using Symmetric Orthogonalization.

  SCF Guess: Superposition of Atomic Densities via on-the-fly atomic UHF.

  ==> Iterations <==

                        Total Energy        Delta E     RMS |[F,P]|

   @RHF iter SAD:  -235.29456789043380   -2.35295e+02   0.00000e+00
   @RHF iter   1:  -236.31836925488653   -1.02380e+00   3.46895e-03 DIIS
   @RHF iter   2:  -236.50470539163121   -1.86336e-01   1.46979e-03 DIIS
   @RHF iter   3:  -236.53612694389807   -3.14216e-02   3.07460e-04 DIIS
   @RHF iter   4:  -236.53867821768682   -2.55127e-03   6.82405e-05 DIIS
   @RHF iter   5:  -236.53876065550628   -8.24378e-05   1.56904e-05 DIIS
   @RHF iter   6:  -236.53876609456421   -5.43906e-06   2.53871e-06 DIIS
   @RHF iter   7:  -236.53876625548475   -1.60921e-07   6.06149e-07 DIIS
   @RHF iter   8:  -236.53876626581078   -1.03260e-08   1.51913e-07 DIIS
   @RHF iter   9:  -236.53876626647775   -6.66972e-10   4.29689e-08 DIIS
   @RHF iter  10:  -236.53876626654102   -6.32667e-11   9.82069e-09 DIIS
   @RHF iter  11:  -236.53876626654579   -4.77485e-12   2.06442e-09 DIIS
   @RHF iter  12:  -236.53876626654554    2.55795e-13   4.88380e-10 DIIS
   @RHF iter  13:  -236.53876626654522    3.12639e-13   1.38317e-10 DIIS
   @RHF iter  14:  -236.53876626654539   -1.70530e-13   2.73120e-11 DIIS
  Energy and wave function converged.

  ==> Post-Iterations <==

    Orbital Energies [Eh]
    ---------------------

    Doubly Occupied:

       1A    -11.226767     2A    -11.219802     3A    -11.219163
       4A    -11.214815     5A    -11.214287     6A    -11.213978
       7A     -1.071471     8A     -1.015468     9A     -0.926650
      10A     -0.922937    11A     -0.841129    12A     -0.763414
      13A     -0.623810    14A     -0.598850    15A     -0.597027
      16A     -0.587632    17A     -0.582117    18A     -0.535439
      19A     -0.533655    20A     -0.511117    21A     -0.498256
      22A     -0.491151    23A     -0.486532    24A     -0.460152
      25A     -0.453114    26A     -0.449421

    Virtual:

      27A      0.169822    28A      0.192181    29A      0.221440
      30A      0.221889    31A      0.228943    32A      0.244095
      33A      0.247656    34A      0.257463    35A      0.269238
      36A      0.273379    37A      0.283324    38A      0.296022
      39A      0.308526    40A      0.318569    41A      0.340482
      42A      0.345919    43A      0.382141    44A      0.402000
      45A      0.414252    46A      0.418388    47A      0.563027
      48A      0.571241    49A      0.588759    50A      0.596928
      51A      0.598673    52A      0.613529    53A      0.625638
      54A      0.679263    55A      0.693852    56A      0.737274
      57A      0.766024    58A      0.777472    59A      0.789447
      60A      0.826857    61A      0.843831    62A      0.871674
      63A      0.882763    64A      0.890858    65A      0.892494
      66A      0.896306    67A      0.897305    68A      0.902917
      69A      0.907337    70A      0.917009    71A      0.921012
      72A      0.926430    73A      0.934668    74A      0.944848
      75A      0.954891    76A      0.961854    77A      0.975396
      78A      0.996130    79A      1.020714    80A      1.029113
      81A      1.117629    82A      1.120275    83A      1.133875
      84A      1.143605    85A      1.181366    86A      1.260207
      87A      1.365286    88A      1.395412    89A      1.412123
      90A      1.452736    91A      1.481674    92A      1.528238
      93A      1.554115    94A      1.591950    95A      1.654040
      96A      1.663384    97A      1.671992    98A      1.687987
      99A      1.693916   100A      1.697583   101A      1.703753
     102A      1.713121   103A      1.733335   104A      1.825931
     105A      1.839104   106A      1.856422   107A      1.869125
     108A      1.876763   109A      1.906057   110A      1.922618
     111A      1.930521   112A      1.938418   113A      1.946873
     114A      1.953363   115A      1.955083   116A      1.961606
     117A      1.970263   118A      1.973675   119A      1.980573
     120A      1.991970   121A      2.022569   122A      2.030594
     123A      2.054034   124A      2.073802   125A      2.090116
     126A      2.112315   127A      2.123910   128A      2.132427
     129A      2.143720   130A      2.233086   131A      2.264508
     132A      2.294641   133A      2.307946   134A      2.310719
     135A      2.324939   136A      2.346316   137A      2.361295
     138A      2.385658   139A      2.452031   140A      2.476256
     141A      2.484434   142A      2.549280   143A      2.564224
     144A      2.580887   145A      2.601839   146A      2.620347
     147A      2.701522   148A      2.730588   149A      2.761560
     150A      2.771261   151A      2.775296   152A      2.790167
     153A      2.797444   154A      2.804863   155A      2.842046
     156A      2.850110   157A      2.854631   158A      2.858104
     159A      2.872958   160A      2.946045   161A      2.981377
     162A      3.004914   163A      3.024945   164A      3.086668

    Final Occupation by Irrep:
              A
    DOCC [    26 ]

  @RHF Final Energy:  -236.53876626654539

   => Energetics <=

    Nuclear Repulsion Energy =            243.2238294820676572
    One-Electron Energy =                -799.0088768022086470
    Two-Electron Energy =                 319.2462810535955668
    Total Energy =                       -236.5387662665453945

Computation Completed

Properties will be evaluated at   0.000000,   0.000000,   0.000000 [a0]

Properties computed using the SCF density matrix

  Nuclear Dipole Moment: [e a0]
     X:    -0.0383      Y:    -0.4490      Z:    -2.1034

  Electronic Dipole Moment: [e a0]
     X:     0.0175      Y:     0.4559      Z:     2.0378

  Dipole Moment: [e a0]
     X:    -0.0208      Y:     0.0068      Z:    -0.0656     Total:     0.0691

  Dipole Moment: [D]
     X:    -0.0529      Y:     0.0174      Z:    -0.1666     Total:     0.1757

*** tstop() called on ds3 at Sun Apr 26 20:42:30 2020
Module time:
	user time   =      33.55 seconds =       0.56 minutes
	system time =      15.65 seconds =       0.26 minutes
	total time  =         47 seconds =       0.78 minutes
Total time:
	user time   =      33.55 seconds =       0.56 minutes
	system time =      15.65 seconds =       0.26 minutes
	total time  =         47 seconds =       0.78 minutes
                                     G D M A

                                 by Anthony Stone

                           version 2.2.06, 22 June 2011

               Distributed Multipoles from Gaussian wavefunctions

Starting at 20:42:30 on 26 Apr 2020

Using SCF density matrix from file ./SSI/SSI-077ILE-125VAL-1-dimer.test.9845.fchk

                         Distributed Multipole Analysis

Standard DMA

Positions and radii in angstrom
Multipole moments in atomic units, ea_0^k for rank k

C          x =  0.036072  y = -0.388795  z = -2.452928 angstrom
           Maximum rank =  0   Radius =  0.650 angstrom
                   Q00  =  -0.251371

C          x = -0.817928  y = -0.584795  z = -3.729928 angstrom
           Maximum rank =  0   Radius =  0.650 angstrom
                   Q00  =  -0.237943

H          x =  0.168072  y = -1.331795  z = -1.924928 angstrom
           Maximum rank =  0   Radius =  0.325 angstrom
                   Q00  =   0.080672

H          x =  1.017072  y = -0.018795  z = -2.743928 angstrom
           Maximum rank =  0   Radius =  0.325 angstrom
                   Q00  =   0.081893

H          x = -0.440928  y =  0.338205  z = -1.796928 angstrom
           Maximum rank =  0   Radius =  0.325 angstrom
                   Q00  =   0.082846

H          x = -0.315928  y = -1.286795  z = -4.396928 angstrom
           Maximum rank =  0   Radius =  0.325 angstrom
                   Q00  =   0.081236

H          x = -0.852928  y =  0.380205  z = -4.221928 angstrom
           Maximum rank =  0   Radius =  0.325 angstrom
                   Q00  =   0.079109

H          x = -1.846958  y = -0.924695  z = -3.541333 angstrom
           Maximum rank =  0   Radius =  0.325 angstrom
                   Q00  =   0.084260

C          x = -0.004928  y =  0.335205  z =  1.334072 angstrom
           Maximum rank =  0   Radius =  0.650 angstrom
                   Q00  =   0.012230

C          x = -0.461928  y =  1.114205  z =  2.598072 angstrom
           Maximum rank =  0   Radius =  0.650 angstrom
                   Q00  =  -0.259095

C          x =  1.429072  y =  0.745205  z =  0.901072 angstrom
           Maximum rank =  0   Radius =  0.650 angstrom
                   Q00  =  -0.250194

C          x = -0.176928  y = -1.180795  z =  1.538072 angstrom
           Maximum rank =  0   Radius =  0.650 angstrom
                   Q00  =  -0.247525

H          x = -0.678928  y =  0.626205  z =  0.530072 angstrom
           Maximum rank =  0   Radius =  0.325 angstrom
                   Q00  =   0.008616

H          x = -1.510928  y =  0.894205  z =  2.747072 angstrom
           Maximum rank =  0   Radius =  0.325 angstrom
                   Q00  =   0.081241

H          x =  2.145072  y =  0.539205  z =  1.697072 angstrom
           Maximum rank =  0   Radius =  0.325 angstrom
                   Q00  =   0.079076

H          x =  1.710072  y =  0.161205  z =  0.024072 angstrom
           Maximum rank =  0   Radius =  0.325 angstrom
                   Q00  =   0.083631

H          x =  1.461072  y =  1.800205  z =  0.634072 angstrom
           Maximum rank =  0   Radius =  0.325 angstrom
                   Q00  =   0.085886

H          x = -1.101928  y = -1.404795  z =  2.061072 angstrom
           Maximum rank =  0   Radius =  0.325 angstrom
                   Q00  =   0.083315

H          x = -0.177928  y = -1.673795  z =  0.566072 angstrom
           Maximum rank =  0   Radius =  0.325 angstrom
                   Q00  =   0.085582

H          x =  0.650072  y = -1.574795  z =  2.129072 angstrom
           Maximum rank =  0   Radius =  0.325 angstrom
                   Q00  =   0.077986

H          x = -0.353448  y =  2.204315  z =  2.498629 angstrom
           Maximum rank =  0   Radius =  0.325 angstrom
                   Q00  =   0.082612

H          x =  0.087592  y =  0.792745  z =  3.495117 angstrom
           Maximum rank =  0   Radius =  0.325 angstrom
                   Q00  =   0.075937

Total multipoles referred to origin at
           x =   0.000000,  y =    0.000000,  z =    0.000000 angstrom
                   Q00  =  -0.000000

Finished at 20:42:30 on 26 Apr 2020

  DMA results are available in the Python driver through the
	  variable('DMA DISTRIBUTED MULTIPOLES')
  and
	  variable('DMA TOTAL MULTIPOLES')
  commands.

    Psi4 stopped on: Sunday, 26 April 2020 08:42PM
    Psi4 wall time for execution: 0:00:47.49

*** Psi4 exiting successfully. Buy a developer a beer!
