                               Psi4 1.3.2 release

  ==> Input File <==

--------------------------------------------------------------------------
import numpy as np
set {scf_type pk
basis cc-pvdz
d_convergence 10
gdma_switch   0
gdma_limit    0
gdma_origin   [ 0.0,  0.0,  0.0 ]
}
molecule test {
    units Angstrom
    0 1
    --
    0 1
    C               -0.941337711278446    -1.740193387337403     2.749295708498511
    C                1.096662288721554    -0.591193387337403    -0.196704291501488
    C               -0.060337711278446    -1.234193387337403     0.328295708498512
    C               -0.006337711278446    -1.111193387337403     1.761295708498512
    C                1.126662288721554    -0.406193387337403     2.040295708498511
    C                1.366662288721554    -0.530193387337403    -1.561704291501488
    C                0.460662288721554    -1.126193387337403    -2.427704291501489
    C               -0.961337711278446    -1.832193387337403    -0.568704291501488
    C               -0.694337711278446    -1.771193387337403    -1.940704291501488
    N                1.793662288721554    -0.100193387337403     0.875295708498512
    H                2.677662288721554     0.394806612662597     0.838295708498512
    H                2.251662288721554    -0.031193387337403    -1.931704291501488
    H                1.477662288721554    -0.175193387337403     3.041295708498511
    H                0.639662288721554    -1.093193387337403    -3.493704291501488
    H               -1.841337711278446    -2.337193387337403    -0.201704291501488
    H               -0.403337711278446    -1.888193387337403     3.686295708498511
    H               -1.190337711278446    -2.721193387337403     2.367295708498512
    H               -1.380337711278446    -2.228193387337403    -2.638704291501489
    H               -1.882697711278446    -1.213719387337403     2.965321708498511
    C               -0.840337711278446     2.605806612662597    -0.630704291501488
    C               -2.281337711278446     3.102806612662597    -0.462704291501488
    C                0.260662288721554     3.583806612662597    -0.209704291501488
    H               -0.716337711278446     1.664806612662597    -0.095704291501488
    H               -0.718337711278446     2.382806612662597    -1.691704291501488
    H               -2.383337711278446     4.012806612662597    -1.049704291501488
    H               -0.061337711278446     4.605806612662597    -0.410704291501488
    H               -2.510677711278446     3.301114812662597     0.594686708498512
    H               -2.979517711278446     2.355382132662597    -0.867559291501488
    H                0.486512288721554     3.479899612662597     0.861833708498512
    H                1.163952288721554     3.388753512662598    -0.806379291501488

}
e, wfn = energy('scf', return_wfn=True)
gdma(wfn)
dmavals = variable('DMA DISTRIBUTED MULTIPOLES')
charges = np.array(dmavals)
print(charges)
np.save('SSI-070TRP-138LEU-1-dimer.npy', np.array(charges))--------------------------------------------------------------------------

*** tstart() called on ds3
*** at Mon Apr 27 01:55:14 2020

   => Loading Basis Set <=

    Name: CC-PVDZ
    Role: ORBITAL
    Keyword: BASIS
    atoms 1-9, 20-22   entry C          line   138 file /theoryfs2/ds/metcalf/miniconda2/envs/tf2gpu/share/psi4/basis/cc-pvdz.gbs
    atoms 10           entry N          line   168 file /theoryfs2/ds/metcalf/miniconda2/envs/tf2gpu/share/psi4/basis/cc-pvdz.gbs
    atoms 11-19, 23-30 entry H          line    22 file /theoryfs2/ds/metcalf/miniconda2/envs/tf2gpu/share/psi4/basis/cc-pvdz.gbs

         ---------------------------------------------------------
                                   SCF
               by Justin Turney, Rob Parrish, Andy Simmonett
                          and Daniel G. A. Smith
                              RHF Reference
                        1 Threads,    500 MiB Core
         ---------------------------------------------------------

  ==> Geometry <==

    Molecular point group: c1
    Full point group: C1

    Geometry (in Angstrom), charge = 0, multiplicity = 1:

       Center              X                  Y                   Z               Mass
    ------------   -----------------  -----------------  -----------------  -----------------
         C           -0.941337711278    -1.740193387337     2.749295708499    12.000000000000
         C            1.096662288722    -0.591193387337    -0.196704291501    12.000000000000
         C           -0.060337711278    -1.234193387337     0.328295708499    12.000000000000
         C           -0.006337711278    -1.111193387337     1.761295708499    12.000000000000
         C            1.126662288722    -0.406193387337     2.040295708499    12.000000000000
         C            1.366662288722    -0.530193387337    -1.561704291501    12.000000000000
         C            0.460662288722    -1.126193387337    -2.427704291501    12.000000000000
         C           -0.961337711278    -1.832193387337    -0.568704291501    12.000000000000
         C           -0.694337711278    -1.771193387337    -1.940704291501    12.000000000000
         N            1.793662288722    -0.100193387337     0.875295708499    14.003074004430
         H            2.677662288722     0.394806612663     0.838295708499     1.007825032230
         H            2.251662288722    -0.031193387337    -1.931704291501     1.007825032230
         H            1.477662288722    -0.175193387337     3.041295708499     1.007825032230
         H            0.639662288722    -1.093193387337    -3.493704291501     1.007825032230
         H           -1.841337711278    -2.337193387337    -0.201704291501     1.007825032230
         H           -0.403337711278    -1.888193387337     3.686295708499     1.007825032230
         H           -1.190337711278    -2.721193387337     2.367295708499     1.007825032230
         H           -1.380337711278    -2.228193387337    -2.638704291501     1.007825032230
         H           -1.882697711278    -1.213719387337     2.965321708499     1.007825032230
         C           -0.840337711278     2.605806612663    -0.630704291501    12.000000000000
         C           -2.281337711278     3.102806612663    -0.462704291501    12.000000000000
         C            0.260662288722     3.583806612663    -0.209704291501    12.000000000000
         H           -0.716337711278     1.664806612663    -0.095704291501     1.007825032230
         H           -0.718337711278     2.382806612663    -1.691704291501     1.007825032230
         H           -2.383337711278     4.012806612663    -1.049704291501     1.007825032230
         H           -0.061337711278     4.605806612663    -0.410704291501     1.007825032230
         H           -2.510677711278     3.301114812663     0.594686708499     1.007825032230
         H           -2.979517711278     2.355382132663    -0.867559291501     1.007825032230
         H            0.486512288722     3.479899612663     0.861833708499     1.007825032230
         H            1.163952288722     3.388753512663    -0.806379291501     1.007825032230

  Running in c1 symmetry.

  Rotational constants: A =      0.02676  B =      0.01876  C =      0.01580 [cm^-1]
  Rotational constants: A =    802.15338  B =    562.34702  C =    473.72345 [MHz]
  Nuclear repulsion =  762.119686408792631

  Charge       = 0
  Multiplicity = 1
  Electrons    = 96
  Nalpha       = 48
  Nbeta        = 48

  ==> Algorithm <==

  SCF Algorithm Type is PK.
  DIIS enabled.
  MOM disabled.
  Fractional occupation disabled.
  Guess Type is SAD.
  Energy threshold   = 1.00e-06
  Density threshold  = 1.00e-10
  Integral threshold = 0.00e+00

  ==> Primary Basis <==

  Basis Set: CC-PVDZ
    Blend: CC-PVDZ
    Number of shells: 129
    Number of basis function: 267
    Number of Cartesian functions: 280
    Spherical Harmonics?: true
    Max angular momentum: 2

  ==> Pre-Iterations <==

   -------------------------------------------------------
    Irrep   Nso     Nmo     Nalpha   Nbeta   Ndocc  Nsocc
   -------------------------------------------------------
     A        267     267       0       0       0       0
   -------------------------------------------------------
    Total     267     267      48      48      48       0
   -------------------------------------------------------

  ==> Integral Setup <==

  Using integral reordering PK algorithm.
  Sizing the integral batches needed.
  Building batch lookup table.
   Calculation information:
      Number of atoms:                  30
      Number of AO shells:             129
      Number of primitives:            371
      Number of atomic orbitals:       280
      Number of basis functions:       267

      Integral cutoff                 1.00e-12
      Number of threads:                 1

	Batch   1 pq = [       0,    9405] index = [             0,44231715] size =     44231715
	Batch   2 pq = [    9405,   13301] index = [      44231715,88464951] size =     44233236
	Batch   3 pq = [   13301,   16290] index = [      88464951,132690195] size =     44225244
	Batch   4 pq = [   16290,   18810] index = [     132690195,176917455] size =     44227260
	Batch   5 pq = [   18810,   21030] index = [     176917455,221140965] size =     44223510
	Batch   6 pq = [   21030,   23037] index = [     221140965,265363203] size =     44222238
	Batch   7 pq = [   23037,   24883] index = [     265363203,309594286] size =     44231083
	Batch   8 pq = [   24883,   26601] index = [     309594286,353819901] size =     44225615
	Batch   9 pq = [   26601,   28214] index = [     353819901,398029005] size =     44209104
	Batch  10 pq = [   28214,   29740] index = [     398029005,442248670] size =     44219665
	Batch  11 pq = [   29740,   31191] index = [     442248670,486454836] size =     44206166
	Batch  12 pq = [   31191,   32578] index = [     486454836,530679331] size =     44224495
	Batch  13 pq = [   32578,   33908] index = [     530679331,574893186] size =     44213855
	Batch  14 pq = [   33908,   35188] index = [     574893186,619115266] size =     44222080
	Batch  15 pq = [   35188,   35778] index = [     619115266,640050531] size =     20935265
  Task number: 58
  Buffer size: 11059200
  Buffer per thread: 2
  We computed 37881637 shell quartets total.
  Whereas there are 35158305 unique shell quartets.
     7.75 percent of shell quartets recomputed by reordering.

  ==> DiskJK: Disk-Based J/K Matrices <==

    J tasked:                  Yes
    K tasked:                  Yes
    wK tasked:                  No
    Memory [MiB]:              375
    Schwarz Cutoff:          1E-12

    OpenMP threads:              1

  Minimum eigenvalue in the overlap matrix is 2.4653229944E-04.
  Using Symmetric Orthogonalization.

  SCF Guess: Superposition of Atomic Densities via on-the-fly atomic UHF.

  ==> Iterations <==

                        Total Energy        Delta E     RMS |[F,P]|

   @RHF iter SAD:  -517.95195729795194   -5.17952e+02   0.00000e+00
   @RHF iter   1:  -518.49420096445090   -5.42244e-01   2.48759e-03 DIIS
   @RHF iter   2:  -518.75134481093801   -2.57144e-01   1.10635e-03 DIIS
   @RHF iter   3:  -518.79762074976441   -4.62759e-02   2.85139e-04 DIIS
   @RHF iter   4:  -518.80174215495038   -4.12141e-03   1.31341e-04 DIIS
   @RHF iter   5:  -518.80243166348509   -6.89509e-04   1.94160e-05 DIIS
   @RHF iter   6:  -518.80246224257348   -3.05791e-05   8.57212e-06 DIIS
   @RHF iter   7:  -518.80246840124369   -6.15867e-06   3.42946e-06 DIIS
   @RHF iter   8:  -518.80247002545502   -1.62421e-06   1.45648e-06 DIIS
   @RHF iter   9:  -518.80247038717312   -3.61718e-07   6.36523e-07 DIIS
   @RHF iter  10:  -518.80247046233251   -7.51594e-08   2.77799e-07 DIIS
   @RHF iter  11:  -518.80247047939929   -1.70668e-08   1.09606e-07 DIIS
   @RHF iter  12:  -518.80247048188551   -2.48622e-09   3.86140e-08 DIIS
   @RHF iter  13:  -518.80247048208673   -2.01226e-10   1.00320e-08 DIIS
   @RHF iter  14:  -518.80247048210117   -1.44382e-11   3.31781e-09 DIIS
   @RHF iter  15:  -518.80247048210038    7.95808e-13   1.63918e-09 DIIS
   @RHF iter  16:  -518.80247048209867    1.70530e-12   8.75314e-10 DIIS
   @RHF iter  17:  -518.80247048209935   -6.82121e-13   3.34064e-10 DIIS
   @RHF iter  18:  -518.80247048210379   -4.43379e-12   1.38013e-10 DIIS
   @RHF iter  19:  -518.80247048209947    4.32010e-12   4.91022e-11 DIIS
  Energy and wave function converged.

  ==> Post-Iterations <==

    Orbital Energies [Eh]
    ---------------------

    Doubly Occupied:

       1A    -15.603064     2A    -11.265995     3A    -11.265657
       4A    -11.232989     5A    -11.232367     6A    -11.231137
       7A    -11.226619     8A    -11.223677     9A    -11.222508
      10A    -11.219778    11A    -11.211327    12A    -11.208261
      13A    -11.205292    14A     -1.295480    15A     -1.126086
      16A     -1.073607    17A     -1.040316    18A     -0.996509
      19A     -0.987088    20A     -0.932559    21A     -0.917029
      22A     -0.839713    23A     -0.804005    24A     -0.783993
      25A     -0.753198    26A     -0.720351    27A     -0.664327
      28A     -0.641939    29A     -0.614982    30A     -0.602773
      31A     -0.592166    32A     -0.590445    33A     -0.582983
      34A     -0.567817    35A     -0.552610    36A     -0.539800
      37A     -0.538269    38A     -0.528130    39A     -0.527936
      40A     -0.495612    41A     -0.471739    42A     -0.463940
      43A     -0.463054    44A     -0.454071    45A     -0.451245
      46A     -0.373255    47A     -0.294628    48A     -0.276251

    Virtual:

      49A      0.123508    50A      0.166310    51A      0.168743
      52A      0.186535    53A      0.197779    54A      0.201052
      55A      0.218093    56A      0.225132    57A      0.231758
      58A      0.241933    59A      0.252173    60A      0.253039
      61A      0.263915    62A      0.268582    63A      0.281320
      64A      0.285279    65A      0.288908    66A      0.295762
      67A      0.304710    68A      0.327474    69A      0.374076
      70A      0.379217    71A      0.386068    72A      0.406422
      73A      0.419029    74A      0.434972    75A      0.444000
      76A      0.470811    77A      0.479680    78A      0.502647
      79A      0.521473    80A      0.584272    81A      0.589971
      82A      0.591481    83A      0.612807    84A      0.619149
      85A      0.625760    86A      0.636920    87A      0.640507
      88A      0.648469    89A      0.669533    90A      0.701220
      91A      0.716494    92A      0.724600    93A      0.728667
      94A      0.732804    95A      0.745890    96A      0.751143
      97A      0.760264    98A      0.770301    99A      0.776026
     100A      0.778927   101A      0.791254   102A      0.800040
     103A      0.806248   104A      0.813152   105A      0.836265
     106A      0.864445   107A      0.867192   108A      0.876326
     109A      0.880260   110A      0.882695   111A      0.891097
     112A      0.893099   113A      0.904247   114A      0.904912
     115A      0.909440   116A      0.913502   117A      0.922357
     118A      0.927065   119A      0.935174   120A      0.951114
     121A      0.953547   122A      0.958321   123A      0.965083
     124A      0.973018   125A      0.978408   126A      0.987753
     127A      1.009043   128A      1.050695   129A      1.071516
     130A      1.084412   131A      1.101558   132A      1.116682
     133A      1.126417   134A      1.131062   135A      1.136455
     136A      1.150150   137A      1.164750   138A      1.166877
     139A      1.202266   140A      1.222033   141A      1.227793
     142A      1.229343   143A      1.250570   144A      1.262630
     145A      1.275003   146A      1.285399   147A      1.296467
     148A      1.327166   149A      1.331538   150A      1.360367
     151A      1.370015   152A      1.400058   153A      1.418998
     154A      1.444185   155A      1.467214   156A      1.499186
     157A      1.512419   158A      1.535944   159A      1.539728
     160A      1.572132   161A      1.593209   162A      1.630994
     163A      1.643576   164A      1.657094   165A      1.664205
     166A      1.671126   167A      1.691251   168A      1.694666
     169A      1.700683   170A      1.713544   171A      1.740959
     172A      1.759917   173A      1.771204   174A      1.783551
     175A      1.809962   176A      1.828136   177A      1.830414
     178A      1.859991   179A      1.866821   180A      1.871680
     181A      1.877897   182A      1.892118   183A      1.902211
     184A      1.907441   185A      1.921192   186A      1.926553
     187A      1.929260   188A      1.938137   189A      1.948229
     190A      1.950127   191A      1.956809   192A      1.958793
     193A      1.980094   194A      1.986334   195A      2.000897
     196A      2.002291   197A      2.004214   198A      2.012850
     199A      2.021905   200A      2.042142   201A      2.055336
     202A      2.072704   203A      2.080639   204A      2.082415
     205A      2.096670   206A      2.103733   207A      2.110265
     208A      2.124929   209A      2.130672   210A      2.141868
     211A      2.157573   212A      2.166855   213A      2.173812
     214A      2.202875   215A      2.220383   216A      2.251537
     217A      2.270930   218A      2.292141   219A      2.301161
     220A      2.310576   221A      2.313282   222A      2.327222
     223A      2.332895   224A      2.363112   225A      2.371090
     226A      2.399436   227A      2.413217   228A      2.447649
     229A      2.463173   230A      2.472847   231A      2.540901
     232A      2.544521   233A      2.575858   234A      2.588264
     235A      2.600893   236A      2.625197   237A      2.647494
     238A      2.651300   239A      2.663692   240A      2.676519
     241A      2.699441   242A      2.757382   243A      2.770433
     244A      2.774798   245A      2.777329   246A      2.786761
     247A      2.792136   248A      2.796149   249A      2.820075
     250A      2.825789   251A      2.865751   252A      2.892822
     253A      2.906256   254A      2.921765   255A      2.939829
     256A      2.963016   257A      2.971002   258A      3.026381
     259A      3.056654   260A      3.071320   261A      3.100156
     262A      3.120163   263A      3.196049   264A      3.293330
     265A      3.371913   266A      3.738828   267A      3.934372

    Final Occupation by Irrep:
              A
    DOCC [    48 ]

  @RHF Final Energy:  -518.80247048209947

   => Energetics <=

    Nuclear Repulsion Energy =            762.1196864087926315
    One-Electron Energy =               -2214.0311609106074684
    Two-Electron Energy =                 933.1090040197153712
    Total Energy =                       -518.8024704820994657

Computation Completed

Properties will be evaluated at   0.000000,   0.000000,   0.000000 [a0]

Properties computed using the SCF density matrix

  Nuclear Dipole Moment: [e a0]
     X:    -6.9148      Y:    13.0293      Z:     1.0919

  Electronic Dipole Moment: [e a0]
     X:     7.5443      Y:   -12.8510      Z:    -0.7135

  Dipole Moment: [e a0]
     X:     0.6295      Y:     0.1783      Z:     0.3784     Total:     0.7558

  Dipole Moment: [D]
     X:     1.6000      Y:     0.4533      Z:     0.9618     Total:     1.9211

*** tstop() called on ds3 at Mon Apr 27 02:01:21 2020
Module time:
	user time   =     275.52 seconds =       4.59 minutes
	system time =     103.67 seconds =       1.73 minutes
	total time  =        367 seconds =       6.12 minutes
Total time:
	user time   =     275.52 seconds =       4.59 minutes
	system time =     103.67 seconds =       1.73 minutes
	total time  =        367 seconds =       6.12 minutes
                                     G D M A

                                 by Anthony Stone

                           version 2.2.06, 22 June 2011

               Distributed Multipoles from Gaussian wavefunctions

Starting at 2:1:22 on 27 Apr 2020

Using SCF density matrix from file ./SSI/SSI-070TRP-138LEU-1-dimer.test.15256.fchk

                         Distributed Multipole Analysis

Standard DMA

Positions and radii in angstrom
Multipole moments in atomic units, ea_0^k for rank k

C          x = -0.941338  y = -1.740193  z =  2.749296 angstrom
           Maximum rank =  0   Radius =  0.650 angstrom
                   Q00  =  -0.211603

C          x =  1.096662  y = -0.591193  z = -0.196704 angstrom
           Maximum rank =  0   Radius =  0.650 angstrom
                   Q00  =   0.293213

C          x = -0.060338  y = -1.234193  z =  0.328296 angstrom
           Maximum rank =  0   Radius =  0.650 angstrom
                   Q00  =  -0.051517

C          x = -0.006338  y = -1.111193  z =  1.761296 angstrom
           Maximum rank =  0   Radius =  0.650 angstrom
                   Q00  =  -0.121552

C          x =  1.126662  y = -0.406193  z =  2.040296 angstrom
           Maximum rank =  0   Radius =  0.650 angstrom
                   Q00  =   0.073308

C          x =  1.366662  y = -0.530193  z = -1.561704 angstrom
           Maximum rank =  0   Radius =  0.650 angstrom
                   Q00  =  -0.119549

C          x =  0.460662  y = -1.126193  z = -2.427704 angstrom
           Maximum rank =  0   Radius =  0.650 angstrom
                   Q00  =  -0.070305

C          x = -0.961338  y = -1.832193  z = -0.568704 angstrom
           Maximum rank =  0   Radius =  0.650 angstrom
                   Q00  =  -0.096583

C          x = -0.694338  y = -1.771193  z = -1.940704 angstrom
           Maximum rank =  0   Radius =  0.650 angstrom
                   Q00  =  -0.090094

N          x =  1.793662  y = -0.100193  z =  0.875296 angstrom
           Maximum rank =  0   Radius =  0.650 angstrom
                   Q00  =  -0.494828

H          x =  2.677662  y =  0.394807  z =  0.838296 angstrom
           Maximum rank =  0   Radius =  0.325 angstrom
                   Q00  =   0.218389

H          x =  2.251662  y = -0.031193  z = -1.931704 angstrom
           Maximum rank =  0   Radius =  0.325 angstrom
                   Q00  =   0.073101

H          x =  1.477662  y = -0.175193  z =  3.041296 angstrom
           Maximum rank =  0   Radius =  0.325 angstrom
                   Q00  =   0.102245

H          x =  0.639662  y = -1.093193  z = -3.493704 angstrom
           Maximum rank =  0   Radius =  0.325 angstrom
                   Q00  =   0.066055

H          x = -1.841338  y = -2.337193  z = -0.201704 angstrom
           Maximum rank =  0   Radius =  0.325 angstrom
                   Q00  =   0.071626

H          x = -0.403338  y = -1.888193  z =  3.686296 angstrom
           Maximum rank =  0   Radius =  0.325 angstrom
                   Q00  =   0.101770

H          x = -1.190338  y = -2.721193  z =  2.367296 angstrom
           Maximum rank =  0   Radius =  0.325 angstrom
                   Q00  =   0.102531

H          x = -1.380338  y = -2.228193  z = -2.638704 angstrom
           Maximum rank =  0   Radius =  0.325 angstrom
                   Q00  =   0.062131

H          x = -1.882698  y = -1.213719  z =  2.965322 angstrom
           Maximum rank =  0   Radius =  0.325 angstrom
                   Q00  =   0.098658

C          x = -0.840338  y =  2.605807  z = -0.630704 angstrom
           Maximum rank =  0   Radius =  0.650 angstrom
                   Q00  =  -0.101160

C          x = -2.281338  y =  3.102807  z = -0.462704 angstrom
           Maximum rank =  0   Radius =  0.650 angstrom
                   Q00  =  -0.228387

C          x =  0.260662  y =  3.583807  z = -0.209704 angstrom
           Maximum rank =  0   Radius =  0.650 angstrom
                   Q00  =  -0.244294

H          x = -0.716338  y =  1.664807  z = -0.095704 angstrom
           Maximum rank =  0   Radius =  0.325 angstrom
                   Q00  =   0.062501

H          x = -0.718338  y =  2.382807  z = -1.691704 angstrom
           Maximum rank =  0   Radius =  0.325 angstrom
                   Q00  =   0.045154

H          x = -2.383338  y =  4.012807  z = -1.049704 angstrom
           Maximum rank =  0   Radius =  0.325 angstrom
                   Q00  =   0.071768

H          x = -0.061338  y =  4.605807  z = -0.410704 angstrom
           Maximum rank =  0   Radius =  0.325 angstrom
                   Q00  =   0.072900

H          x = -2.510678  y =  3.301115  z =  0.594687 angstrom
           Maximum rank =  0   Radius =  0.325 angstrom
                   Q00  =   0.073001

H          x = -2.979518  y =  2.355382  z = -0.867559 angstrom
           Maximum rank =  0   Radius =  0.325 angstrom
                   Q00  =   0.085408

H          x =  0.486512  y =  3.479900  z =  0.861834 angstrom
           Maximum rank =  0   Radius =  0.325 angstrom
                   Q00  =   0.075571

H          x =  1.163952  y =  3.388754  z = -0.806379 angstrom
           Maximum rank =  0   Radius =  0.325 angstrom
                   Q00  =   0.080542

Total multipoles referred to origin at
           x =   0.000000,  y =    0.000000,  z =    0.000000 angstrom
                   Q00  =  -0.000000

Finished at 2:1:22 on 27 Apr 2020

  DMA results are available in the Python driver through the
	  variable('DMA DISTRIBUTED MULTIPOLES')
  and
	  variable('DMA TOTAL MULTIPOLES')
  commands.

    Psi4 stopped on: Monday, 27 April 2020 02:01AM
    Psi4 wall time for execution: 0:06:08.10

*** Psi4 exiting successfully. Buy a developer a beer!
