                               Psi4 1.3.2 release

  ==> Input File <==

--------------------------------------------------------------------------
import numpy as np
set {scf_type pk
basis cc-pvdz
d_convergence 10
gdma_switch   0
gdma_limit    0
gdma_origin   [ 0.0,  0.0,  0.0 ]
}
molecule test {
    units Angstrom
    0 1
    --
    0 1
    C                2.054699897160722     1.273984827510657     0.906585274335745
    C                3.358699897160722     1.393984827510657     0.113585274335745
    C                1.102699897160722     0.195984827510657     0.440585274335745
    C                0.639699897160722     0.167984827510657    -0.879414725664255
    C                0.612699897160722    -0.752015172489343     1.341585274335745
    C               -0.286300102839278    -0.801015172489343    -1.300414725664255
    C               -0.292300102839278    -1.729015172489343     0.930585274335745
    C               -0.747300102839278    -1.761015172489343    -0.391414725664255
    O               -1.651300102839278    -2.718015172489343    -0.785414725664255
    H                2.283699897160723     1.142984827510657     1.965585274335745
    H                1.514699897160722     2.216984827510657     0.821585274335745
    H                3.123699897160722     1.273984827510657    -0.943414725664255
    H                0.981699897160722     0.908984827510657    -1.591414725664255
    H                0.920699897160722    -0.727015172489343     2.378585274335745
    H               -0.630300102839278    -0.810015172489343    -2.324414725664255
    H               -0.671300102839278    -2.444015172489343     1.641585274335745
    H               -1.908300102839278    -2.609015172489343    -1.720414725664255
    H                4.068299897160722     0.606464827510657     0.407315274335745
    H                3.771089897160723     2.407774827510657     0.223845274335745
    C               -1.640300102839278     2.122984827510657     0.490585274335745
    C               -2.653300102839278     2.248984827510657    -0.640414725664255
    H               -1.954300102839278     2.717984827510657     1.344585274335745
    H               -1.542300102839278     1.086984827510657     0.806585274335745
    H               -0.657300102839278     2.453984827510657     0.168585274335745
    H               -2.295300102839278     1.664984827510657    -1.490414725664255
    H               -2.765790102839278     3.294834827510657    -0.962214725664255
    H               -3.619430102839278     1.840764827510657    -0.308824725664255

}
e, wfn = energy('scf', return_wfn=True)
gdma(wfn)
dmavals = variable('DMA DISTRIBUTED MULTIPOLES')
charges = np.array(dmavals)
print(charges)
np.save('SSI-033TYR-094ILE-1-dimer.npy', np.array(charges))--------------------------------------------------------------------------

*** tstart() called on ds3
*** at Sun Apr 26 21:52:55 2020

   => Loading Basis Set <=

    Name: CC-PVDZ
    Role: ORBITAL
    Keyword: BASIS
    atoms 1-8, 20-21   entry C          line   138 file /theoryfs2/ds/metcalf/miniconda2/envs/tf2gpu/share/psi4/basis/cc-pvdz.gbs
    atoms 9            entry O          line   198 file /theoryfs2/ds/metcalf/miniconda2/envs/tf2gpu/share/psi4/basis/cc-pvdz.gbs
    atoms 10-19, 22-27 entry H          line    22 file /theoryfs2/ds/metcalf/miniconda2/envs/tf2gpu/share/psi4/basis/cc-pvdz.gbs

         ---------------------------------------------------------
                                   SCF
               by Justin Turney, Rob Parrish, Andy Simmonett
                          and Daniel G. A. Smith
                              RHF Reference
                        1 Threads,    500 MiB Core
         ---------------------------------------------------------

  ==> Geometry <==

    Molecular point group: c1
    Full point group: C1

    Geometry (in Angstrom), charge = 0, multiplicity = 1:

       Center              X                  Y                   Z               Mass
    ------------   -----------------  -----------------  -----------------  -----------------
         C            2.054699897161     1.273984827511     0.906585274336    12.000000000000
         C            3.358699897161     1.393984827511     0.113585274336    12.000000000000
         C            1.102699897161     0.195984827511     0.440585274336    12.000000000000
         C            0.639699897161     0.167984827511    -0.879414725664    12.000000000000
         C            0.612699897161    -0.752015172489     1.341585274336    12.000000000000
         C           -0.286300102839    -0.801015172489    -1.300414725664    12.000000000000
         C           -0.292300102839    -1.729015172489     0.930585274336    12.000000000000
         C           -0.747300102839    -1.761015172489    -0.391414725664    12.000000000000
         O           -1.651300102839    -2.718015172489    -0.785414725664    15.994914619570
         H            2.283699897161     1.142984827511     1.965585274336     1.007825032230
         H            1.514699897161     2.216984827511     0.821585274336     1.007825032230
         H            3.123699897161     1.273984827511    -0.943414725664     1.007825032230
         H            0.981699897161     0.908984827511    -1.591414725664     1.007825032230
         H            0.920699897161    -0.727015172489     2.378585274336     1.007825032230
         H           -0.630300102839    -0.810015172489    -2.324414725664     1.007825032230
         H           -0.671300102839    -2.444015172489     1.641585274336     1.007825032230
         H           -1.908300102839    -2.609015172489    -1.720414725664     1.007825032230
         H            4.068299897161     0.606464827511     0.407315274336     1.007825032230
         H            3.771089897161     2.407774827511     0.223845274336     1.007825032230
         C           -1.640300102839     2.122984827511     0.490585274336    12.000000000000
         C           -2.653300102839     2.248984827511    -0.640414725664    12.000000000000
         H           -1.954300102839     2.717984827511     1.344585274336     1.007825032230
         H           -1.542300102839     1.086984827511     0.806585274336     1.007825032230
         H           -0.657300102839     2.453984827511     0.168585274336     1.007825032230
         H           -2.295300102839     1.664984827511    -1.490414725664     1.007825032230
         H           -2.765790102839     3.294834827511    -0.962214725664     1.007825032230
         H           -3.619430102839     1.840764827511    -0.308824725664     1.007825032230

  Running in c1 symmetry.

  Rotational constants: A =      0.03526  B =      0.02629  C =      0.01847 [cm^-1]
  Rotational constants: A =   1057.02503  B =    788.14296  C =    553.64683 [MHz]
  Nuclear repulsion =  603.688176729944075

  Charge       = 0
  Multiplicity = 1
  Electrons    = 84
  Nalpha       = 42
  Nbeta        = 42

  ==> Algorithm <==

  SCF Algorithm Type is PK.
  DIIS enabled.
  MOM disabled.
  Fractional occupation disabled.
  Guess Type is SAD.
  Energy threshold   = 1.00e-06
  Density threshold  = 1.00e-10
  Integral threshold = 0.00e+00

  ==> Primary Basis <==

  Basis Set: CC-PVDZ
    Blend: CC-PVDZ
    Number of shells: 114
    Number of basis function: 234
    Number of Cartesian functions: 245
    Spherical Harmonics?: true
    Max angular momentum: 2

  ==> Pre-Iterations <==

   -------------------------------------------------------
    Irrep   Nso     Nmo     Nalpha   Nbeta   Ndocc  Nsocc
   -------------------------------------------------------
     A        234     234       0       0       0       0
   -------------------------------------------------------
    Total     234     234      42      42      42       0
   -------------------------------------------------------

  ==> Integral Setup <==

  Using integral reordering PK algorithm.
  Sizing the integral batches needed.
  Building batch lookup table.
   Calculation information:
      Number of atoms:                  27
      Number of AO shells:             114
      Number of primitives:            322
      Number of atomic orbitals:       245
      Number of basis functions:       234

      Integral cutoff                 1.00e-12
      Number of threads:                 1

	Batch   1 pq = [       0,    9405] index = [             0,44231715] size =     44231715
	Batch   2 pq = [    9405,   13301] index = [      44231715,88464951] size =     44233236
	Batch   3 pq = [   13301,   16290] index = [      88464951,132690195] size =     44225244
	Batch   4 pq = [   16290,   18810] index = [     132690195,176917455] size =     44227260
	Batch   5 pq = [   18810,   21030] index = [     176917455,221140965] size =     44223510
	Batch   6 pq = [   21030,   23037] index = [     221140965,265363203] size =     44222238
	Batch   7 pq = [   23037,   24883] index = [     265363203,309594286] size =     44231083
	Batch   8 pq = [   24883,   26601] index = [     309594286,353819901] size =     44225615
	Batch   9 pq = [   26601,   27495] index = [     353819901,378001260] size =     24181359
  Task number: 35
  Buffer size: 11059200
  Buffer per thread: 2
  We computed 22837221 shell quartets total.
  Whereas there are 21487290 unique shell quartets.
     6.28 percent of shell quartets recomputed by reordering.

  ==> DiskJK: Disk-Based J/K Matrices <==

    J tasked:                  Yes
    K tasked:                  Yes
    wK tasked:                  No
    Memory [MiB]:              375
    Schwarz Cutoff:          1E-12

    OpenMP threads:              1

  Minimum eigenvalue in the overlap matrix is 3.3228996900E-04.
  Using Symmetric Orthogonalization.

  SCF Guess: Superposition of Atomic Densities via on-the-fly atomic UHF.

  ==> Iterations <==

                        Total Energy        Delta E     RMS |[F,P]|

   @RHF iter SAD:  -461.66175719223708   -4.61662e+02   0.00000e+00
   @RHF iter   1:  -462.60202996244487   -9.40273e-01   2.80511e-03 DIIS
   @RHF iter   2:  -462.84160242892551   -2.39572e-01   1.19980e-03 DIIS
   @RHF iter   3:  -462.88138280480075   -3.97804e-02   2.76405e-04 DIIS
   @RHF iter   4:  -462.88468959222848   -3.30679e-03   1.19241e-04 DIIS
   @RHF iter   5:  -462.88514241512178   -4.52823e-04   1.97760e-05 DIIS
   @RHF iter   6:  -462.88516281102386   -2.03959e-05   5.58926e-06 DIIS
   @RHF iter   7:  -462.88516436368445   -1.55266e-06   2.09654e-06 DIIS
   @RHF iter   8:  -462.88516458802303   -2.24339e-07   6.65836e-07 DIIS
   @RHF iter   9:  -462.88516461814697   -3.01239e-08   2.02064e-07 DIIS
   @RHF iter  10:  -462.88516462086773   -2.72075e-09   7.60525e-08 DIIS
   @RHF iter  11:  -462.88516462141899   -5.51267e-10   3.26316e-08 DIIS
   @RHF iter  12:  -462.88516462155775   -1.38755e-10   1.83239e-08 DIIS
   @RHF iter  13:  -462.88516462160760   -4.98517e-11   7.93209e-09 DIIS
   @RHF iter  14:  -462.88516462161493   -7.33280e-12   2.00880e-09 DIIS
   @RHF iter  15:  -462.88516462161533   -3.97904e-13   7.30815e-10 DIIS
   @RHF iter  16:  -462.88516462161544   -1.13687e-13   2.30289e-10 DIIS
   @RHF iter  17:  -462.88516462161516    2.84217e-13   8.69151e-11 DIIS
  Energy and wave function converged.

  ==> Post-Iterations <==

    Orbital Energies [Eh]
    ---------------------

    Doubly Occupied:

       1A    -20.585762     2A    -11.303799     3A    -11.242378
       4A    -11.239472     5A    -11.238400     6A    -11.233259
       7A    -11.232486     8A    -11.228913     9A    -11.223697
      10A    -11.212758    11A    -11.203833    12A     -1.393504
      13A     -1.150677    14A     -1.057703    15A     -1.017449
      16A     -1.010709    17A     -0.976918    18A     -0.861701
      19A     -0.844099    20A     -0.829331    21A     -0.789660
      22A     -0.728788    23A     -0.672044    24A     -0.643495
      25A     -0.615787    26A     -0.601085    27A     -0.594003
      28A     -0.590074    29A     -0.584568    30A     -0.579805
      31A     -0.574833    32A     -0.538909    33A     -0.521951
      34A     -0.502186    35A     -0.492797    36A     -0.480321
      37A     -0.479904    38A     -0.478524    39A     -0.471823
      40A     -0.455928    41A     -0.338709    42A     -0.302250

    Virtual:

      43A      0.126428    44A      0.147829    45A      0.172546
      46A      0.183878    47A      0.203338    48A      0.209374
      49A      0.213562    50A      0.233399    51A      0.242343
      52A      0.253795    53A      0.263808    54A      0.269441
      55A      0.277230    56A      0.294258    57A      0.297807
      58A      0.308126    59A      0.323460    60A      0.349761
      61A      0.362850    62A      0.389472    63A      0.403525
      64A      0.407803    65A      0.427325    66A      0.478017
      67A      0.491353    68A      0.493191    69A      0.516446
      70A      0.579871    71A      0.582886    72A      0.599488
      73A      0.610666    74A      0.619873    75A      0.633833
      76A      0.644089    77A      0.650202    78A      0.671528
      79A      0.681125    80A      0.703561    81A      0.706462
      82A      0.725535    83A      0.734098    84A      0.757681
      85A      0.764473    86A      0.782488    87A      0.789926
      88A      0.795135    89A      0.811736    90A      0.841837
      91A      0.850512    92A      0.860384    93A      0.864473
      94A      0.873451    95A      0.878089    96A      0.891010
      97A      0.894791    98A      0.899094    99A      0.901503
     100A      0.904769   101A      0.915313   102A      0.928891
     103A      0.934863   104A      0.937206   105A      0.949439
     106A      0.962189   107A      0.975258   108A      0.979229
     109A      0.999338   110A      1.003719   111A      1.010686
     112A      1.031193   113A      1.062886   114A      1.116213
     115A      1.125623   116A      1.138366   117A      1.141632
     118A      1.147426   119A      1.174351   120A      1.191746
     121A      1.216740   122A      1.229272   123A      1.243820
     124A      1.259715   125A      1.283138   126A      1.286538
     127A      1.301144   128A      1.302288   129A      1.320933
     130A      1.349266   131A      1.358124   132A      1.367765
     133A      1.425526   134A      1.445864   135A      1.476530
     136A      1.493536   137A      1.501061   138A      1.506020
     139A      1.534127   140A      1.571957   141A      1.616863
     142A      1.628655   143A      1.644846   144A      1.655997
     145A      1.683232   146A      1.687909   147A      1.693427
     148A      1.760724   149A      1.765954   150A      1.772878
     151A      1.800028   152A      1.823047   153A      1.847727
     154A      1.865447   155A      1.866853   156A      1.876774
     157A      1.884032   158A      1.898728   159A      1.902736
     160A      1.910316   161A      1.921186   162A      1.926224
     163A      1.937612   164A      1.941699   165A      1.950874
     166A      1.958212   167A      1.963336   168A      1.969287
     169A      1.970804   170A      1.982109   171A      1.987092
     172A      2.002885   173A      2.016064   174A      2.032833
     175A      2.045679   176A      2.054710   177A      2.067684
     178A      2.077970   179A      2.083622   180A      2.092853
     181A      2.126024   182A      2.130268   183A      2.132904
     184A      2.158189   185A      2.195975   186A      2.221199
     187A      2.232377   188A      2.255202   189A      2.267567
     190A      2.296015   191A      2.308781   192A      2.316270
     193A      2.343875   194A      2.354725   195A      2.372340
     196A      2.423788   197A      2.437076   198A      2.459415
     199A      2.471920   200A      2.478888   201A      2.484040
     202A      2.498817   203A      2.534025   204A      2.545950
     205A      2.578176   206A      2.590773   207A      2.608779
     208A      2.628034   209A      2.640065   210A      2.742261
     211A      2.768861   212A      2.773869   213A      2.779851
     214A      2.804011   215A      2.820784   216A      2.842646
     217A      2.869953   218A      2.875522   219A      2.881062
     220A      2.914539   221A      2.959730   222A      2.963526
     223A      2.997944   224A      3.004327   225A      3.028646
     226A      3.082532   227A      3.160490   228A      3.239673
     229A      3.272679   230A      3.332945   231A      3.561057
     232A      3.653361   233A      3.948369   234A      4.167215

    Final Occupation by Irrep:
              A
    DOCC [    42 ]

  @RHF Final Energy:  -462.88516462161516

   => Energetics <=

    Nuclear Repulsion Energy =            603.6881767299440753
    One-Electron Energy =               -1824.8981042588807213
    Two-Electron Energy =                 758.3247629073214284
    Total Energy =                       -462.8851646216151039

Computation Completed

Properties will be evaluated at   0.000000,   0.000000,   0.000000 [a0]

Properties computed using the SCF density matrix

  Nuclear Dipole Moment: [e a0]
     X:     0.5729      Y:    14.0740      Z:     0.3873

  Electronic Dipole Moment: [e a0]
     X:    -0.4300      Y:   -13.7758      Z:    -0.7992

  Dipole Moment: [e a0]
     X:     0.1429      Y:     0.2982      Z:    -0.4120     Total:     0.5282

  Dipole Moment: [D]
     X:     0.3632      Y:     0.7578      Z:    -1.0471     Total:     1.3426

*** tstop() called on ds3 at Sun Apr 26 21:57:55 2020
Module time:
	user time   =     169.75 seconds =       2.83 minutes
	system time =      57.10 seconds =       0.95 minutes
	total time  =        300 seconds =       5.00 minutes
Total time:
	user time   =     169.75 seconds =       2.83 minutes
	system time =      57.10 seconds =       0.95 minutes
	total time  =        300 seconds =       5.00 minutes
                                     G D M A

                                 by Anthony Stone

                           version 2.2.06, 22 June 2011

               Distributed Multipoles from Gaussian wavefunctions

Starting at 21:57:55 on 26 Apr 2020

Using SCF density matrix from file ./SSI/SSI-033TYR-094ILE-1-dimer.test.13154.fchk

                         Distributed Multipole Analysis

Standard DMA

Positions and radii in angstrom
Multipole moments in atomic units, ea_0^k for rank k

C          x =  2.054700  y =  1.273985  z =  0.906585 angstrom
           Maximum rank =  0   Radius =  0.650 angstrom
                   Q00  =  -0.045601

C          x =  3.358700  y =  1.393985  z =  0.113585 angstrom
           Maximum rank =  0   Radius =  0.650 angstrom
                   Q00  =  -0.229973

C          x =  1.102700  y =  0.195985  z =  0.440585 angstrom
           Maximum rank =  0   Radius =  0.650 angstrom
                   Q00  =  -0.123038

C          x =  0.639700  y =  0.167985  z = -0.879415 angstrom
           Maximum rank =  0   Radius =  0.650 angstrom
                   Q00  =  -0.041321

C          x =  0.612700  y = -0.752015  z =  1.341585 angstrom
           Maximum rank =  0   Radius =  0.650 angstrom
                   Q00  =   0.042093

C          x = -0.286300  y = -0.801015  z = -1.300415 angstrom
           Maximum rank =  0   Radius =  0.650 angstrom
                   Q00  =  -0.192676

C          x = -0.292300  y = -1.729015  z =  0.930585 angstrom
           Maximum rank =  0   Radius =  0.650 angstrom
                   Q00  =  -0.123706

C          x = -0.747300  y = -1.761015  z = -0.391415 angstrom
           Maximum rank =  0   Radius =  0.650 angstrom
                   Q00  =   0.329458

O          x = -1.651300  y = -2.718015  z = -0.785415 angstrom
           Maximum rank =  0   Radius =  0.650 angstrom
                   Q00  =  -0.682433

H          x =  2.283700  y =  1.142985  z =  1.965585 angstrom
           Maximum rank =  0   Radius =  0.325 angstrom
                   Q00  =   0.064312

H          x =  1.514700  y =  2.216985  z =  0.821585 angstrom
           Maximum rank =  0   Radius =  0.325 angstrom
                   Q00  =   0.062330

H          x =  3.123700  y =  1.273985  z = -0.943415 angstrom
           Maximum rank =  0   Radius =  0.325 angstrom
                   Q00  =   0.078004

H          x =  0.981700  y =  0.908985  z = -1.591415 angstrom
           Maximum rank =  0   Radius =  0.325 angstrom
                   Q00  =   0.071093

H          x =  0.920700  y = -0.727015  z =  2.378585 angstrom
           Maximum rank =  0   Radius =  0.325 angstrom
                   Q00  =   0.066702

H          x = -0.630300  y = -0.810015  z = -2.324415 angstrom
           Maximum rank =  0   Radius =  0.325 angstrom
                   Q00  =   0.074311

H          x = -0.671300  y = -2.444015  z =  1.641585 angstrom
           Maximum rank =  0   Radius =  0.325 angstrom
                   Q00  =   0.080939

H          x = -1.908300  y = -2.609015  z = -1.720415 angstrom
           Maximum rank =  0   Radius =  0.325 angstrom
                   Q00  =   0.411487

H          x =  4.068300  y =  0.606465  z =  0.407315 angstrom
           Maximum rank =  0   Radius =  0.325 angstrom
                   Q00  =   0.084917

H          x =  3.771090  y =  2.407775  z =  0.223845 angstrom
           Maximum rank =  0   Radius =  0.325 angstrom
                   Q00  =   0.084105

C          x = -1.640300  y =  2.122985  z =  0.490585 angstrom
           Maximum rank =  0   Radius =  0.650 angstrom
                   Q00  =  -0.236551

C          x = -2.653300  y =  2.248985  z = -0.640415 angstrom
           Maximum rank =  0   Radius =  0.650 angstrom
                   Q00  =  -0.231194

H          x = -1.954300  y =  2.717985  z =  1.344585 angstrom
           Maximum rank =  0   Radius =  0.325 angstrom
                   Q00  =   0.071339

H          x = -1.542300  y =  1.086985  z =  0.806585 angstrom
           Maximum rank =  0   Radius =  0.325 angstrom
                   Q00  =   0.090426

H          x = -0.657300  y =  2.453985  z =  0.168585 angstrom
           Maximum rank =  0   Radius =  0.325 angstrom
                   Q00  =   0.070453

H          x = -2.295300  y =  1.664985  z = -1.490415 angstrom
           Maximum rank =  0   Radius =  0.325 angstrom
                   Q00  =   0.072859

H          x = -2.765790  y =  3.294835  z = -0.962215 angstrom
           Maximum rank =  0   Radius =  0.325 angstrom
                   Q00  =   0.073773

H          x = -3.619430  y =  1.840765  z = -0.308825 angstrom
           Maximum rank =  0   Radius =  0.325 angstrom
                   Q00  =   0.077889

Total multipoles referred to origin at
           x =   0.000000,  y =    0.000000,  z =    0.000000 angstrom
                   Q00  =  -0.000000

Finished at 21:57:55 on 26 Apr 2020

  DMA results are available in the Python driver through the
	  variable('DMA DISTRIBUTED MULTIPOLES')
  and
	  variable('DMA TOTAL MULTIPOLES')
  commands.

    Psi4 stopped on: Sunday, 26 April 2020 09:57PM
    Psi4 wall time for execution: 0:05:00.32

*** Psi4 exiting successfully. Buy a developer a beer!
