                               Psi4 1.3.2 release

  ==> Input File <==

--------------------------------------------------------------------------
import numpy as np
set {scf_type pk
basis cc-pvdz
d_convergence 10
gdma_switch   0
gdma_limit    0
gdma_origin   [ 0.0,  0.0,  0.0 ]
}
molecule test {
    units Angstrom
    0 1
    --
    0 1
    C               -2.429626186724793     2.493540196454779     2.906208824067457
    C               -1.472626186724793     1.412540196454779     2.438208824067458
    O               -1.556626186724793     1.040540196454779     1.248208824067457
    O               -0.637626186724793     0.947540196454779     3.248208824067457
    H               -3.448626186724793     2.179540196454779     2.685208824067458
    H               -2.228626186724793     3.408540196454779     2.346208824067458
    H               -2.351836186724793     2.693050196454779     3.985163824067457
    C                2.288373813275207    -0.547459803545221    -3.509791175932543
    C                0.947373813275207    -1.318459803545221    -1.580791175932543
    N                0.014373813275207    -1.079459803545221    -0.680791175932543
    N                1.266373813275207    -0.390459803545221    -2.467791175932543
    N                1.557373813275207    -2.487459803545221    -1.589791175932543
    H               -0.405626186724793    -0.168459803545221    -0.580791175932543
    H               -0.195626186724793    -1.772459803545221     0.017208824067457
    H                0.717373813275207     0.454540196454779    -2.460791175932543
    H                2.282373813275207    -2.656459803545221    -2.265791175932543
    H                1.319373813275207    -3.196459803545221    -0.915791175932543
    H                1.952373813275207    -1.291459803545221    -4.234791175932543
    H                3.216373813275207    -0.904459803545221    -3.075791175932543
    H                2.468953813275207     0.395180196454779    -4.047206175932543

}
e, wfn = energy('scf', return_wfn=True)
gdma(wfn)
dmavals = variable('DMA DISTRIBUTED MULTIPOLES')
charges = np.array(dmavals)
print(charges)
np.save('SSI-017ASP-049ARG-1-dimer.npy', np.array(charges))--------------------------------------------------------------------------

*** tstart() called on ds3
*** at Mon Apr 27 22:56:33 2020

   => Loading Basis Set <=

    Name: CC-PVDZ
    Role: ORBITAL
    Keyword: BASIS
    atoms 1-2, 8-9   entry C          line   138 file /theoryfs2/ds/metcalf/miniconda2/envs/tf2gpu/share/psi4/basis/cc-pvdz.gbs
    atoms 3-4        entry O          line   198 file /theoryfs2/ds/metcalf/miniconda2/envs/tf2gpu/share/psi4/basis/cc-pvdz.gbs
    atoms 5-7, 13-20 entry H          line    22 file /theoryfs2/ds/metcalf/miniconda2/envs/tf2gpu/share/psi4/basis/cc-pvdz.gbs
    atoms 10-12      entry N          line   168 file /theoryfs2/ds/metcalf/miniconda2/envs/tf2gpu/share/psi4/basis/cc-pvdz.gbs

         ---------------------------------------------------------
                                   SCF
               by Justin Turney, Rob Parrish, Andy Simmonett
                          and Daniel G. A. Smith
                              RHF Reference
                        1 Threads,    500 MiB Core
         ---------------------------------------------------------

  ==> Geometry <==

    Molecular point group: c1
    Full point group: C1

    Geometry (in Angstrom), charge = 0, multiplicity = 1:

       Center              X                  Y                   Z               Mass
    ------------   -----------------  -----------------  -----------------  -----------------
         C           -2.429626186725     2.493540196455     2.906208824067    12.000000000000
         C           -1.472626186725     1.412540196455     2.438208824067    12.000000000000
         O           -1.556626186725     1.040540196455     1.248208824067    15.994914619570
         O           -0.637626186725     0.947540196455     3.248208824067    15.994914619570
         H           -3.448626186725     2.179540196455     2.685208824067     1.007825032230
         H           -2.228626186725     3.408540196455     2.346208824067     1.007825032230
         H           -2.351836186725     2.693050196455     3.985163824067     1.007825032230
         C            2.288373813275    -0.547459803545    -3.509791175933    12.000000000000
         C            0.947373813275    -1.318459803545    -1.580791175933    12.000000000000
         N            0.014373813275    -1.079459803545    -0.680791175933    14.003074004430
         N            1.266373813275    -0.390459803545    -2.467791175933    14.003074004430
         N            1.557373813275    -2.487459803545    -1.589791175933    14.003074004430
         H           -0.405626186725    -0.168459803545    -0.580791175933     1.007825032230
         H           -0.195626186725    -1.772459803545     0.017208824067     1.007825032230
         H            0.717373813275     0.454540196455    -2.460791175933     1.007825032230
         H            2.282373813275    -2.656459803545    -2.265791175933     1.007825032230
         H            1.319373813275    -3.196459803545    -0.915791175933     1.007825032230
         H            1.952373813275    -1.291459803545    -4.234791175933     1.007825032230
         H            3.216373813275    -0.904459803545    -3.075791175933     1.007825032230
         H            2.468953813275     0.395180196455    -4.047206175933     1.007825032230

  Running in c1 symmetry.

  Rotational constants: A =      0.12165  B =      0.01315  C =      0.01246 [cm^-1]
  Rotational constants: A =   3647.05498  B =    394.12077  C =    373.67163 [MHz]
  Nuclear repulsion =  424.676712543628867

  Charge       = 0
  Multiplicity = 1
  Electrons    = 72
  Nalpha       = 36
  Nbeta        = 36

  ==> Algorithm <==

  SCF Algorithm Type is PK.
  DIIS enabled.
  MOM disabled.
  Fractional occupation disabled.
  Guess Type is SAD.
  Energy threshold   = 1.00e-06
  Density threshold  = 1.00e-10
  Integral threshold = 0.00e+00

  ==> Primary Basis <==

  Basis Set: CC-PVDZ
    Blend: CC-PVDZ
    Number of shells: 87
    Number of basis function: 181
    Number of Cartesian functions: 190
    Spherical Harmonics?: true
    Max angular momentum: 2

  ==> Pre-Iterations <==

   -------------------------------------------------------
    Irrep   Nso     Nmo     Nalpha   Nbeta   Ndocc  Nsocc
   -------------------------------------------------------
     A        181     181       0       0       0       0
   -------------------------------------------------------
    Total     181     181      36      36      36       0
   -------------------------------------------------------

  ==> Integral Setup <==

  Using integral reordering PK algorithm.
  Sizing the integral batches needed.
  Building batch lookup table.
   Calculation information:
      Number of atoms:                  20
      Number of AO shells:              87
      Number of primitives:            253
      Number of atomic orbitals:       190
      Number of basis functions:       181

      Integral cutoff                 1.00e-12
      Number of threads:                 1

	Batch   1 pq = [       0,    9405] index = [             0,44231715] size =     44231715
	Batch   2 pq = [    9405,   13301] index = [      44231715,88464951] size =     44233236
	Batch   3 pq = [   13301,   16471] index = [      88464951,135655156] size =     47190205
  Task number: 13
  Buffer size: 11059200
  Buffer per thread: 2
  We computed 4274910 shell quartets total.
  Whereas there are 7328706 unique shell quartets.

  ==> DiskJK: Disk-Based J/K Matrices <==

    J tasked:                  Yes
    K tasked:                  Yes
    wK tasked:                  No
    Memory [MiB]:              375
    Schwarz Cutoff:          1E-12

    OpenMP threads:              1

  Minimum eigenvalue in the overlap matrix is 3.9278631376E-03.
  Using Symmetric Orthogonalization.

  SCF Guess: Superposition of Atomic Densities via on-the-fly atomic UHF.

  ==> Iterations <==

                        Total Energy        Delta E     RMS |[F,P]|

   @RHF iter SAD:  -469.63117208367157   -4.69631e+02   0.00000e+00
   @RHF iter   1:  -470.65064184068348   -1.01947e+00   4.31301e-03 DIIS
   @RHF iter   2:  -470.88168372589001   -2.31042e-01   2.27150e-03 DIIS
   @RHF iter   3:  -470.94260755932436   -6.09238e-02   3.93113e-04 DIIS
   @RHF iter   4:  -470.94587608535136   -3.26853e-03   1.38116e-04 DIIS
   @RHF iter   5:  -470.94626863777893   -3.92552e-04   2.55558e-05 DIIS
   @RHF iter   6:  -470.94628913801427   -2.05002e-05   1.20467e-05 DIIS
   @RHF iter   7:  -470.94629199019676   -2.85218e-06   3.28992e-06 DIIS
   @RHF iter   8:  -470.94629246077426   -4.70578e-07   1.53223e-06 DIIS
   @RHF iter   9:  -470.94629253351962   -7.27454e-08   5.13563e-07 DIIS
   @RHF iter  10:  -470.94629254795569   -1.44361e-08   1.81359e-07 DIIS
   @RHF iter  11:  -470.94629254960262   -1.64692e-09   4.38237e-08 DIIS
   @RHF iter  12:  -470.94629254968595   -8.33325e-11   1.54552e-08 DIIS
   @RHF iter  13:  -470.94629254969431   -8.35598e-12   4.65828e-09 DIIS
   @RHF iter  14:  -470.94629254969169    2.61480e-12   1.32899e-09 DIIS
   @RHF iter  15:  -470.94629254969476   -3.06954e-12   5.94596e-10 DIIS
   @RHF iter  16:  -470.94629254969425    5.11591e-13   1.68579e-10 DIIS
   @RHF iter  17:  -470.94629254969493   -6.82121e-13   5.17643e-11 DIIS
  Energy and wave function converged.

  ==> Post-Iterations <==

    Orbital Energies [Eh]
    ---------------------

    Doubly Occupied:

       1A    -20.367206     2A    -20.355157     3A    -15.687236
       4A    -15.681430     5A    -15.654068     6A    -11.476409
       7A    -11.356417     8A    -11.214681     9A    -11.133107
      10A     -1.436625    11A     -1.298806    12A     -1.272995
      13A     -1.250414    14A     -1.136678    15A     -1.046877
      16A     -0.933375    17A     -0.882435    18A     -0.869125
      19A     -0.823873    20A     -0.758677    21A     -0.731836
      22A     -0.724483    23A     -0.693964    24A     -0.645715
      25A     -0.638533    26A     -0.596040    27A     -0.507781
      28A     -0.503305    29A     -0.499277    30A     -0.496816
      31A     -0.475227    32A     -0.436073    33A     -0.400700
      34A     -0.286174    35A     -0.271256    36A     -0.264796

    Virtual:

      37A      0.093883    38A      0.128614    39A      0.134261
      40A      0.136860    41A      0.185206    42A      0.192308
      43A      0.203678    44A      0.214560    45A      0.255459
      46A      0.277533    47A      0.306742    48A      0.316037
      49A      0.341844    50A      0.386632    51A      0.393642
      52A      0.433704    53A      0.448083    54A      0.491645
      55A      0.541189    56A      0.555588    57A      0.594206
      58A      0.609760    59A      0.616754    60A      0.625698
      61A      0.631446    62A      0.643781    63A      0.664558
      64A      0.727421    65A      0.739837    66A      0.772945
      67A      0.784721    68A      0.790692    69A      0.795587
      70A      0.808605    71A      0.847476    72A      0.853779
      73A      0.864455    74A      0.884331    75A      0.905968
      76A      0.908450    77A      0.925711    78A      0.949106
      79A      0.953127    80A      0.955204    81A      0.964856
      82A      0.994666    83A      1.022025    84A      1.029810
      85A      1.044183    86A      1.055898    87A      1.086224
      88A      1.130865    89A      1.150371    90A      1.201165
      91A      1.227772    92A      1.247970    93A      1.253133
      94A      1.259293    95A      1.287711    96A      1.307275
      97A      1.341205    98A      1.352059    99A      1.407357
     100A      1.427930   101A      1.472598   102A      1.480931
     103A      1.490810   104A      1.512590   105A      1.544280
     106A      1.570190   107A      1.588620   108A      1.610361
     109A      1.625233   110A      1.635094   111A      1.651434
     112A      1.661907   113A      1.717683   114A      1.760057
     115A      1.761492   116A      1.771743   117A      1.816549
     118A      1.826732   119A      1.838208   120A      1.861850
     121A      1.871010   122A      1.884454   123A      1.905776
     124A      1.933706   125A      1.952779   126A      1.958391
     127A      1.998445   128A      2.004572   129A      2.014829
     130A      2.043840   131A      2.116413   132A      2.130372
     133A      2.133231   134A      2.162316   135A      2.195306
     136A      2.203516   137A      2.221625   138A      2.235669
     139A      2.279890   140A      2.314617   141A      2.335634
     142A      2.346133   143A      2.371740   144A      2.402012
     145A      2.423032   146A      2.457957   147A      2.479898
     148A      2.504316   149A      2.541817   150A      2.564590
     151A      2.568103   152A      2.637201   153A      2.646582
     154A      2.681717   155A      2.682712   156A      2.704375
     157A      2.739895   158A      2.819195   159A      2.835950
     160A      2.868109   161A      2.881580   162A      2.888160
     163A      2.906475   164A      2.933704   165A      2.973448
     166A      2.998489   167A      3.137936   168A      3.169463
     169A      3.173132   170A      3.191939   171A      3.213389
     172A      3.243887   173A      3.258572   174A      3.529438
     175A      3.681907   176A      3.697112   177A      3.727745
     178A      3.770509   179A      3.957748   180A      3.988885
     181A      4.101573

    Final Occupation by Irrep:
              A
    DOCC [    36 ]

  @RHF Final Energy:  -470.94629254969493

   => Energetics <=

    Nuclear Repulsion Energy =            424.6767125436288666
    One-Electron Energy =               -1485.6308762603105151
    Two-Electron Energy =                 590.0078711669867744
    Total Energy =                       -470.9462925496949310

Computation Completed

Properties will be evaluated at   0.000000,   0.000000,   0.000000 [a0]

Properties computed using the SCF density matrix

  Nuclear Dipole Moment: [e a0]
     X:     3.0997      Y:    -0.7842      Z:    -7.9773

  Electronic Dipole Moment: [e a0]
     X:     0.4110      Y:    -2.8817      Z:     1.2972

  Dipole Moment: [e a0]
     X:     3.5107      Y:    -3.6659      Z:    -6.6801     Total:     8.3897

  Dipole Moment: [D]
     X:     8.9232      Y:    -9.3177      Z:   -16.9792     Total:    21.3246

*** tstop() called on ds3 at Mon Apr 27 22:57:31 2020
Module time:
	user time   =      34.74 seconds =       0.58 minutes
	system time =      21.09 seconds =       0.35 minutes
	total time  =         58 seconds =       0.97 minutes
Total time:
	user time   =      34.74 seconds =       0.58 minutes
	system time =      21.09 seconds =       0.35 minutes
	total time  =         58 seconds =       0.97 minutes
                                     G D M A

                                 by Anthony Stone

                           version 2.2.06, 22 June 2011

               Distributed Multipoles from Gaussian wavefunctions

Starting at 22:57:31 on 27 Apr 2020

Using SCF density matrix from file ./SSI/SSI-017ASP-049ARG-1-dimer.test.5895.fchk

                         Distributed Multipole Analysis

Standard DMA

Positions and radii in angstrom
Multipole moments in atomic units, ea_0^k for rank k

C          x = -2.429626  y =  2.493540  z =  2.906209 angstrom
           Maximum rank =  0   Radius =  0.650 angstrom
                   Q00  =  -0.279902

C          x = -1.472626  y =  1.412540  z =  2.438209 angstrom
           Maximum rank =  0   Radius =  0.650 angstrom
                   Q00  =   0.964749

O          x = -1.556626  y =  1.040540  z =  1.248209 angstrom
           Maximum rank =  0   Radius =  0.650 angstrom
                   Q00  =  -0.974164

O          x = -0.637626  y =  0.947540  z =  3.248209 angstrom
           Maximum rank =  0   Radius =  0.650 angstrom
                   Q00  =  -0.918343

H          x = -3.448626  y =  2.179540  z =  2.685209 angstrom
           Maximum rank =  0   Radius =  0.325 angstrom
                   Q00  =   0.074419

H          x = -2.228626  y =  3.408540  z =  2.346209 angstrom
           Maximum rank =  0   Radius =  0.325 angstrom
                   Q00  =   0.078251

H          x = -2.351836  y =  2.693050  z =  3.985164 angstrom
           Maximum rank =  0   Radius =  0.325 angstrom
                   Q00  =   0.070348

C          x =  2.288374  y = -0.547460  z = -3.509791 angstrom
           Maximum rank =  0   Radius =  0.650 angstrom
                   Q00  =  -0.114369

C          x =  0.947374  y = -1.318460  z = -1.580791 angstrom
           Maximum rank =  0   Radius =  0.650 angstrom
                   Q00  =   1.069239

N          x =  0.014374  y = -1.079460  z = -0.680791 angstrom
           Maximum rank =  0   Radius =  0.650 angstrom
                   Q00  =  -0.579395

N          x =  1.266374  y = -0.390460  z = -2.467791 angstrom
           Maximum rank =  0   Radius =  0.650 angstrom
                   Q00  =  -0.497290

N          x =  1.557374  y = -2.487460  z = -1.589791 angstrom
           Maximum rank =  0   Radius =  0.650 angstrom
                   Q00  =  -0.572628

H          x = -0.405626  y = -0.168460  z = -0.580791 angstrom
           Maximum rank =  0   Radius =  0.325 angstrom
                   Q00  =   0.294766

H          x = -0.195626  y = -1.772460  z =  0.017209 angstrom
           Maximum rank =  0   Radius =  0.325 angstrom
                   Q00  =   0.265994

H          x =  0.717374  y =  0.454540  z = -2.460791 angstrom
           Maximum rank =  0   Radius =  0.325 angstrom
                   Q00  =   0.240620

H          x =  2.282374  y = -2.656460  z = -2.265791 angstrom
           Maximum rank =  0   Radius =  0.325 angstrom
                   Q00  =   0.249818

H          x =  1.319374  y = -3.196460  z = -0.915791 angstrom
           Maximum rank =  0   Radius =  0.325 angstrom
                   Q00  =   0.263141

H          x =  1.952374  y = -1.291460  z = -4.234791 angstrom
           Maximum rank =  0   Radius =  0.325 angstrom
                   Q00  =   0.100248

H          x =  3.216374  y = -0.904460  z = -3.075791 angstrom
           Maximum rank =  0   Radius =  0.325 angstrom
                   Q00  =   0.105904

H          x =  2.468954  y =  0.395180  z = -4.047206 angstrom
           Maximum rank =  0   Radius =  0.325 angstrom
                   Q00  =   0.158594

Total multipoles referred to origin at
           x =   0.000000,  y =    0.000000,  z =    0.000000 angstrom
                   Q00  =  -0.000000

Finished at 22:57:31 on 27 Apr 2020

  DMA results are available in the Python driver through the
	  variable('DMA DISTRIBUTED MULTIPOLES')
  and
	  variable('DMA TOTAL MULTIPOLES')
  commands.

    Psi4 stopped on: Monday, 27 April 2020 10:57PM
    Psi4 wall time for execution: 0:00:58.17

*** Psi4 exiting successfully. Buy a developer a beer!
