                               Psi4 1.3.2 release

  ==> Input File <==

--------------------------------------------------------------------------
import numpy as np
set {scf_type pk
basis cc-pvdz
d_convergence 10
gdma_switch   0
gdma_limit    0
gdma_origin   [ 0.0,  0.0,  0.0 ]
}
molecule test {
    units Angstrom
    0 1
    --
    0 1
    C               -2.462526159564653     1.847196958585531     0.497897053393146
    C               -2.353526159564653     3.367196958585530     0.553897053393146
    C               -3.190526159564653     1.475196958585531     1.851897053393146
    H               -1.493526159564653     1.365196958585531     0.414897053393146
    H               -3.097526159564653     1.561196958585531    -0.342102946606854
    H               -1.428526159564653     3.633196958585530     1.068897053393146
    H               -2.341526159564653     3.797196958585531    -0.449102946606854
    H               -3.941526159564653     0.704196958585531     1.687897053393146
    H               -3.205769159564653     3.746216958585531     1.137007053393146
    H               -3.648077159564653     2.437706958585530     2.124317053393145
    H               -2.501540159564653     1.163596958585531     2.650777053393146
    C                1.712473840435347    -3.431803041414470    -0.905102946606854
    C                0.968473840435347     0.712196958585531    -0.164102946606854
    C                0.697473840435347     0.197196958585531    -1.388102946606854
    C                1.440473840435347    -0.099803041414469     0.864897053393146
    C                0.951473840435347    -1.150803041414469    -1.630102946606854
    C                1.693473840435347    -1.454803041414469     0.624897053393146
    C                1.439473840435347    -1.991803041414469    -0.627102946606854
    H                0.797473840435347     1.764196958585531     0.022897053393146
    H                0.308473840435347     0.830196958585531    -2.175102946606855
    H                1.635473840435347     0.324196958585531     1.840897053393146
    H                0.747473840435347    -1.553803041414469    -2.613102946606854
    H                2.074473840435347    -2.079803041414469     1.420897053393146
    H                2.593473840435347    -3.740803041414469    -0.340102946606854
    H                1.952473840435347    -3.543803041414470    -1.964102946606854
    H                0.871389840435347    -4.097903041414470    -0.662422946606854

}
e, wfn = energy('scf', return_wfn=True)
gdma(wfn)
dmavals = variable('DMA DISTRIBUTED MULTIPOLES')
charges = np.array(dmavals)
print(charges)
np.save('SSI-149PRO-152PHE-1-dimer.npy', np.array(charges))--------------------------------------------------------------------------

*** tstart() called on ds3
*** at Mon Apr 27 14:04:47 2020

   => Loading Basis Set <=

    Name: CC-PVDZ
    Role: ORBITAL
    Keyword: BASIS
    atoms 1-3, 12-18  entry C          line   138 file /theoryfs2/ds/metcalf/miniconda2/envs/tf2gpu/share/psi4/basis/cc-pvdz.gbs
    atoms 4-11, 19-26 entry H          line    22 file /theoryfs2/ds/metcalf/miniconda2/envs/tf2gpu/share/psi4/basis/cc-pvdz.gbs

         ---------------------------------------------------------
                                   SCF
               by Justin Turney, Rob Parrish, Andy Simmonett
                          and Daniel G. A. Smith
                              RHF Reference
                        1 Threads,    500 MiB Core
         ---------------------------------------------------------

  ==> Geometry <==

    Molecular point group: c1
    Full point group: C1

    Geometry (in Angstrom), charge = 0, multiplicity = 1:

       Center              X                  Y                   Z               Mass
    ------------   -----------------  -----------------  -----------------  -----------------
         C           -2.462526159565     1.847196958586     0.497897053393    12.000000000000
         C           -2.353526159565     3.367196958586     0.553897053393    12.000000000000
         C           -3.190526159565     1.475196958586     1.851897053393    12.000000000000
         H           -1.493526159565     1.365196958586     0.414897053393     1.007825032230
         H           -3.097526159565     1.561196958586    -0.342102946607     1.007825032230
         H           -1.428526159565     3.633196958586     1.068897053393     1.007825032230
         H           -2.341526159565     3.797196958586    -0.449102946607     1.007825032230
         H           -3.941526159565     0.704196958586     1.687897053393     1.007825032230
         H           -3.205769159565     3.746216958586     1.137007053393     1.007825032230
         H           -3.648077159565     2.437706958586     2.124317053393     1.007825032230
         H           -2.501540159565     1.163596958586     2.650777053393     1.007825032230
         C            1.712473840435    -3.431803041414    -0.905102946607    12.000000000000
         C            0.968473840435     0.712196958586    -0.164102946607    12.000000000000
         C            0.697473840435     0.197196958586    -1.388102946607    12.000000000000
         C            1.440473840435    -0.099803041414     0.864897053393    12.000000000000
         C            0.951473840435    -1.150803041414    -1.630102946607    12.000000000000
         C            1.693473840435    -1.454803041414     0.624897053393    12.000000000000
         C            1.439473840435    -1.991803041414    -0.627102946607    12.000000000000
         H            0.797473840435     1.764196958586     0.022897053393     1.007825032230
         H            0.308473840435     0.830196958586    -2.175102946607     1.007825032230
         H            1.635473840435     0.324196958586     1.840897053393     1.007825032230
         H            0.747473840435    -1.553803041414    -2.613102946607     1.007825032230
         H            2.074473840435    -2.079803041414     1.420897053393     1.007825032230
         H            2.593473840435    -3.740803041414    -0.340102946607     1.007825032230
         H            1.952473840435    -3.543803041414    -1.964102946607     1.007825032230
         H            0.871389840435    -4.097903041414    -0.662422946607     1.007825032230

  Running in c1 symmetry.

  Rotational constants: A =      0.07867  B =      0.01546  C =      0.01505 [cm^-1]
  Rotational constants: A =   2358.48845  B =    463.40784  C =    451.07788 [MHz]
  Nuclear repulsion =  480.379816710785860

  Charge       = 0
  Multiplicity = 1
  Electrons    = 76
  Nalpha       = 38
  Nbeta        = 38

  ==> Algorithm <==

  SCF Algorithm Type is PK.
  DIIS enabled.
  MOM disabled.
  Fractional occupation disabled.
  Guess Type is SAD.
  Energy threshold   = 1.00e-06
  Density threshold  = 1.00e-10
  Integral threshold = 0.00e+00

  ==> Primary Basis <==

  Basis Set: CC-PVDZ
    Blend: CC-PVDZ
    Number of shells: 108
    Number of basis function: 220
    Number of Cartesian functions: 230
    Spherical Harmonics?: true
    Max angular momentum: 2

  ==> Pre-Iterations <==

   -------------------------------------------------------
    Irrep   Nso     Nmo     Nalpha   Nbeta   Ndocc  Nsocc
   -------------------------------------------------------
     A        220     220       0       0       0       0
   -------------------------------------------------------
    Total     220     220      38      38      38       0
   -------------------------------------------------------

  ==> Integral Setup <==

  Using integral reordering PK algorithm.
  Sizing the integral batches needed.
  Building batch lookup table.
   Calculation information:
      Number of atoms:                  26
      Number of AO shells:             108
      Number of primitives:            300
      Number of atomic orbitals:       230
      Number of basis functions:       220

      Integral cutoff                 1.00e-12
      Number of threads:                 1

	Batch   1 pq = [       0,    9405] index = [             0,44231715] size =     44231715
	Batch   2 pq = [    9405,   13301] index = [      44231715,88464951] size =     44233236
	Batch   3 pq = [   13301,   16290] index = [      88464951,132690195] size =     44225244
	Batch   4 pq = [   16290,   18810] index = [     132690195,176917455] size =     44227260
	Batch   5 pq = [   18810,   21030] index = [     176917455,221140965] size =     44223510
	Batch   6 pq = [   21030,   23037] index = [     221140965,265363203] size =     44222238
	Batch   7 pq = [   23037,   24310] index = [     265363203,295500205] size =     30137002
  Task number: 27
  Buffer size: 11059200
  Buffer per thread: 2
  We computed 14149776 shell quartets total.
  Whereas there are 17325441 unique shell quartets.

  ==> DiskJK: Disk-Based J/K Matrices <==

    J tasked:                  Yes
    K tasked:                  Yes
    wK tasked:                  No
    Memory [MiB]:              375
    Schwarz Cutoff:          1E-12

    OpenMP threads:              1

  Minimum eigenvalue in the overlap matrix is 3.0107569158E-04.
  Using Symmetric Orthogonalization.

  SCF Guess: Superposition of Atomic Densities via on-the-fly atomic UHF.

  ==> Iterations <==

                        Total Energy        Delta E     RMS |[F,P]|

   @RHF iter SAD:  -386.97656861124131   -3.86977e+02   0.00000e+00
   @RHF iter   1:  -387.75127800775630   -7.74709e-01   2.75852e-03 DIIS
   @RHF iter   2:  -387.97009459321157   -2.18817e-01   1.16091e-03 DIIS
   @RHF iter   3:  -388.00546066583621   -3.53661e-02   2.48621e-04 DIIS
   @RHF iter   4:  -388.00828718518619   -2.82652e-03   4.83566e-05 DIIS
   @RHF iter   5:  -388.00836695500141   -7.97698e-05   1.49884e-05 DIIS
   @RHF iter   6:  -388.00837429245644   -7.33746e-06   4.41579e-06 DIIS
   @RHF iter   7:  -388.00837501334149   -7.20885e-07   1.32709e-06 DIIS
   @RHF iter   8:  -388.00837509976213   -8.64206e-08   4.16730e-07 DIIS
   @RHF iter   9:  -388.00837511908071   -1.93186e-08   2.10511e-07 DIIS
   @RHF iter  10:  -388.00837512460549   -5.52478e-09   9.74927e-08 DIIS
   @RHF iter  11:  -388.00837512596650   -1.36100e-09   3.28804e-08 DIIS
   @RHF iter  12:  -388.00837512608143   -1.14937e-10   1.35229e-08 DIIS
   @RHF iter  13:  -388.00837512609132   -9.89075e-12   4.37861e-09 DIIS
   @RHF iter  14:  -388.00837512609496   -3.63798e-12   1.19731e-09 DIIS
   @RHF iter  15:  -388.00837512609354    1.42109e-12   5.01441e-10 DIIS
   @RHF iter  16:  -388.00837512609172    1.81899e-12   2.10794e-10 DIIS
   @RHF iter  17:  -388.00837512609354   -1.81899e-12   8.57400e-11 DIIS
  Energy and wave function converged.

  ==> Post-Iterations <==

    Orbital Energies [Eh]
    ---------------------

    Doubly Occupied:

       1A    -11.239435     2A    -11.236642     3A    -11.232109
       4A    -11.231535     5A    -11.230490     6A    -11.228964
       7A    -11.227715     8A    -11.214089     9A    -11.212682
      10A    -11.212096    11A     -1.157233    12A     -1.051387
      13A     -1.048737    14A     -1.011530    15A     -0.933302
      16A     -0.907946    17A     -0.828613    18A     -0.798879
      19A     -0.794137    20A     -0.693533    21A     -0.634379
      22A     -0.630763    23A     -0.623003    24A     -0.606144
      25A     -0.583673    26A     -0.578493    27A     -0.563809
      28A     -0.536480    29A     -0.535050    30A     -0.509715
      31A     -0.493665    32A     -0.486569    33A     -0.482671
      34A     -0.474453    35A     -0.464751    36A     -0.448823
      37A     -0.333585    38A     -0.323257

    Virtual:

      39A      0.133774    40A      0.142167    41A      0.170579
      42A      0.192037    43A      0.210149    44A      0.211856
      45A      0.223387    46A      0.232031    47A      0.239932
      48A      0.256596    49A      0.263115    50A      0.272040
      51A      0.276689    52A      0.283096    53A      0.288505
      54A      0.313028    55A      0.326703    56A      0.339023
      57A      0.366883    58A      0.378406    59A      0.384714
      60A      0.437193    61A      0.454975    62A      0.467328
      63A      0.481646    64A      0.488532    65A      0.559039
      66A      0.568462    67A      0.593922    68A      0.616487
      69A      0.630713    70A      0.638605    71A      0.651280
      72A      0.668845    73A      0.681836    74A      0.688515
      75A      0.704441    76A      0.716233    77A      0.744219
      78A      0.744483    79A      0.751007    80A      0.755157
      81A      0.764598    82A      0.774802    83A      0.778718
      84A      0.808107    85A      0.823387    86A      0.836943
      87A      0.852282    88A      0.858790    89A      0.862636
      90A      0.867364    91A      0.874363    92A      0.880510
      93A      0.885550    94A      0.891880    95A      0.902986
      96A      0.906897    97A      0.911725    98A      0.924447
      99A      0.926297   100A      0.928473   101A      0.937026
     102A      0.943984   103A      0.945638   104A      0.982120
     105A      0.996528   106A      1.010187   107A      1.039256
     108A      1.069602   109A      1.072512   110A      1.104554
     111A      1.126627   112A      1.144692   113A      1.150614
     114A      1.162407   115A      1.193025   116A      1.239364
     117A      1.245326   118A      1.251551   119A      1.255090
     120A      1.302529   121A      1.308927   122A      1.317995
     123A      1.327144   124A      1.337144   125A      1.403110
     126A      1.413708   127A      1.455927   128A      1.481339
     129A      1.508240   130A      1.530204   131A      1.560447
     132A      1.590031   133A      1.599351   134A      1.638974
     135A      1.648436   136A      1.676609   137A      1.699512
     138A      1.726855   139A      1.732796   140A      1.736250
     141A      1.750474   142A      1.757911   143A      1.788333
     144A      1.808711   145A      1.812846   146A      1.845729
     147A      1.866535   148A      1.883764   149A      1.893544
     150A      1.895745   151A      1.902199   152A      1.910784
     153A      1.916796   154A      1.921211   155A      1.932115
     156A      1.945704   157A      1.951584   158A      1.955394
     159A      1.958133   160A      1.964700   161A      1.973444
     162A      1.988871   163A      1.993936   164A      2.012128
     165A      2.024821   166A      2.032194   167A      2.056528
     168A      2.063858   169A      2.065383   170A      2.077677
     171A      2.107142   172A      2.150393   173A      2.156169
     174A      2.169265   175A      2.174803   176A      2.181775
     177A      2.199642   178A      2.230275   179A      2.234001
     180A      2.259983   181A      2.278032   182A      2.298382
     183A      2.302268   184A      2.305856   185A      2.309638
     186A      2.338223   187A      2.349545   188A      2.430609
     189A      2.444692   190A      2.473456   191A      2.476313
     192A      2.490740   193A      2.499518   194A      2.546287
     195A      2.555185   196A      2.626151   197A      2.636821
     198A      2.697170   199A      2.737054   200A      2.760768
     201A      2.761910   202A      2.765880   203A      2.778881
     204A      2.792526   205A      2.800869   206A      2.809596
     207A      2.842106   208A      2.849693   209A      2.871852
     210A      2.876710   211A      2.900669   212A      2.925714
     213A      2.991251   214A      3.018764   215A      3.031825
     216A      3.093790   217A      3.164719   218A      3.214536
     219A      3.304657   220A      3.986664

    Final Occupation by Irrep:
              A
    DOCC [    38 ]

  @RHF Final Energy:  -388.00837512609354

   => Energetics <=

    Nuclear Repulsion Energy =            480.3798167107858603
    One-Electron Energy =               -1475.1757092039622421
    Two-Electron Energy =                 606.7875173670828417
    Total Energy =                       -388.0083751260934832

Computation Completed

Properties will be evaluated at   0.000000,   0.000000,   0.000000 [a0]

Properties computed using the SCF density matrix

  Nuclear Dipole Moment: [e a0]
     X:   -10.0097      Y:     5.9164      Z:     3.5834

  Electronic Dipole Moment: [e a0]
     X:    10.1051      Y:    -6.1132      Z:    -3.6573

  Dipole Moment: [e a0]
     X:     0.0955      Y:    -0.1968      Z:    -0.0739     Total:     0.2309

  Dipole Moment: [D]
     X:     0.2426      Y:    -0.5003      Z:    -0.1878     Total:     0.5869

*** tstop() called on ds3 at Mon Apr 27 14:09:16 2020
Module time:
	user time   =      98.34 seconds =       1.64 minutes
	system time =      43.58 seconds =       0.73 minutes
	total time  =        269 seconds =       4.48 minutes
Total time:
	user time   =      98.34 seconds =       1.64 minutes
	system time =      43.58 seconds =       0.73 minutes
	total time  =        269 seconds =       4.48 minutes
                                     G D M A

                                 by Anthony Stone

                           version 2.2.06, 22 June 2011

               Distributed Multipoles from Gaussian wavefunctions

Starting at 14:9:16 on 27 Apr 2020

Using SCF density matrix from file ./SSI/SSI-149PRO-152PHE-1-dimer.test.8706.fchk

                         Distributed Multipole Analysis

Standard DMA

Positions and radii in angstrom
Multipole moments in atomic units, ea_0^k for rank k

C          x = -2.462526  y =  1.847197  z =  0.497897 angstrom
           Maximum rank =  0   Radius =  0.650 angstrom
                   Q00  =  -0.114236

C          x = -2.353526  y =  3.367197  z =  0.553897 angstrom
           Maximum rank =  0   Radius =  0.650 angstrom
                   Q00  =  -0.215218

C          x = -3.190526  y =  1.475197  z =  1.851897 angstrom
           Maximum rank =  0   Radius =  0.650 angstrom
                   Q00  =  -0.255708

H          x = -1.493526  y =  1.365197  z =  0.414897 angstrom
           Maximum rank =  0   Radius =  0.325 angstrom
                   Q00  =   0.087117

H          x = -3.097526  y =  1.561197  z = -0.342103 angstrom
           Maximum rank =  0   Radius =  0.325 angstrom
                   Q00  =   0.055616

H          x = -1.428526  y =  3.633197  z =  1.068897 angstrom
           Maximum rank =  0   Radius =  0.325 angstrom
                   Q00  =   0.071816

H          x = -2.341526  y =  3.797197  z = -0.449103 angstrom
           Maximum rank =  0   Radius =  0.325 angstrom
                   Q00  =   0.077475

H          x = -3.941526  y =  0.704197  z =  1.687897 angstrom
           Maximum rank =  0   Radius =  0.325 angstrom
                   Q00  =   0.086604

H          x = -3.205769  y =  3.746217  z =  1.137007 angstrom
           Maximum rank =  0   Radius =  0.325 angstrom
                   Q00  =   0.059134

H          x = -3.648077  y =  2.437707  z =  2.124317 angstrom
           Maximum rank =  0   Radius =  0.325 angstrom
                   Q00  =   0.064557

H          x = -2.501540  y =  1.163597  z =  2.650777 angstrom
           Maximum rank =  0   Radius =  0.325 angstrom
                   Q00  =   0.084200

C          x =  1.712474  y = -3.431803  z = -0.905103 angstrom
           Maximum rank =  0   Radius =  0.650 angstrom
                   Q00  =  -0.197112

C          x =  0.968474  y =  0.712197  z = -0.164103 angstrom
           Maximum rank =  0   Radius =  0.650 angstrom
                   Q00  =  -0.059148

C          x =  0.697474  y =  0.197197  z = -1.388103 angstrom
           Maximum rank =  0   Radius =  0.650 angstrom
                   Q00  =  -0.068514

C          x =  1.440474  y = -0.099803  z =  0.864897 angstrom
           Maximum rank =  0   Radius =  0.650 angstrom
                   Q00  =  -0.075623

C          x =  0.951474  y = -1.150803  z = -1.630103 angstrom
           Maximum rank =  0   Radius =  0.650 angstrom
                   Q00  =  -0.005261

C          x =  1.693474  y = -1.454803  z =  0.624897 angstrom
           Maximum rank =  0   Radius =  0.650 angstrom
                   Q00  =  -0.088175

C          x =  1.439474  y = -1.991803  z = -0.627103 angstrom
           Maximum rank =  0   Radius =  0.650 angstrom
                   Q00  =  -0.106983

H          x =  0.797474  y =  1.764197  z =  0.022897 angstrom
           Maximum rank =  0   Radius =  0.325 angstrom
                   Q00  =   0.057133

H          x =  0.308474  y =  0.830197  z = -2.175103 angstrom
           Maximum rank =  0   Radius =  0.325 angstrom
                   Q00  =   0.063185

H          x =  1.635474  y =  0.324197  z =  1.840897 angstrom
           Maximum rank =  0   Radius =  0.325 angstrom
                   Q00  =   0.065431

H          x =  0.747474  y = -1.553803  z = -2.613103 angstrom
           Maximum rank =  0   Radius =  0.325 angstrom
                   Q00  =   0.055635

H          x =  2.074474  y = -2.079803  z =  1.420897 angstrom
           Maximum rank =  0   Radius =  0.325 angstrom
                   Q00  =   0.058002

H          x =  2.593474  y = -3.740803  z = -0.340103 angstrom
           Maximum rank =  0   Radius =  0.325 angstrom
                   Q00  =   0.097410

H          x =  1.952474  y = -3.543803  z = -1.964103 angstrom
           Maximum rank =  0   Radius =  0.325 angstrom
                   Q00  =   0.097111

H          x =  0.871390  y = -4.097903  z = -0.662423 angstrom
           Maximum rank =  0   Radius =  0.325 angstrom
                   Q00  =   0.105550

Total multipoles referred to origin at
           x =   0.000000,  y =    0.000000,  z =    0.000000 angstrom
                   Q00  =  -0.000000

Finished at 14:9:16 on 27 Apr 2020

  DMA results are available in the Python driver through the
	  variable('DMA DISTRIBUTED MULTIPOLES')
  and
	  variable('DMA TOTAL MULTIPOLES')
  commands.

    Psi4 stopped on: Monday, 27 April 2020 02:09PM
    Psi4 wall time for execution: 0:04:29.45

*** Psi4 exiting successfully. Buy a developer a beer!
