                               Psi4 1.3.2 release

  ==> Input File <==

--------------------------------------------------------------------------
import numpy as np
set {scf_type pk
basis cc-pvdz
d_convergence 10
gdma_switch   0
gdma_limit    0
gdma_origin   [ 0.0,  0.0,  0.0 ]
}
molecule test {
    units Angstrom
    0 1
    --
    0 1
    C                2.260581999756018     3.000912053298515     0.100227064285746
    C                1.288581999756018     2.056912053298515     0.779227064285746
    O                0.098581999756018     2.048912053298515     0.478227064285746
    N                1.776581999756018     1.250912053298516     1.708227064285746
    H                2.496581999756018     3.794912053298515     0.789227064285746
    H                1.740581999756018     3.470912053298515    -0.733772935714254
    H                1.092581999756018     0.645912053298516     2.146227064285746
    H                2.746581999756018     0.999912053298516     1.741227064285746
    H                3.167806199756019     2.505672053298516    -0.276181935714254
    C               -2.723418000243982    -0.760087946701484    -1.702772935714254
    C                0.510581999756018    -1.459087946701485    -0.206772935714254
    C               -1.561418000243982    -1.305087946701485    -0.926772935714254
    C               -1.527418000243982    -2.250087946701484     0.048227064285746
    N               -0.280418000243982    -0.815087946701484    -1.052772935714254
    N               -0.218418000243982    -2.336087946701485     0.473227064285746
    H                1.575581999756018    -1.300087946701485    -0.087772935714254
    H                0.141581999756018    -2.963087946701484     1.185227064285746
    H               -2.370418000243982    -2.817087946701484     0.415227064285746
    H               -3.442418000243982    -1.565087946701484    -1.854772935714254
    H               -2.384418000243982    -0.433087946701485    -2.683772935714254
    H               -3.215250000243982     0.077902053298516    -1.187142935714254

}
e, wfn = energy('scf', return_wfn=True)
gdma(wfn)
dmavals = variable('DMA DISTRIBUTED MULTIPOLES')
charges = np.array(dmavals)
print(charges)
np.save('SSI-106ASN-130HIE-1-dimer.npy', np.array(charges))--------------------------------------------------------------------------

*** tstart() called on ds3
*** at Mon Apr 27 10:15:56 2020

   => Loading Basis Set <=

    Name: CC-PVDZ
    Role: ORBITAL
    Keyword: BASIS
    atoms 1-2, 10-13 entry C          line   138 file /theoryfs2/ds/metcalf/miniconda2/envs/tf2gpu/share/psi4/basis/cc-pvdz.gbs
    atoms 3          entry O          line   198 file /theoryfs2/ds/metcalf/miniconda2/envs/tf2gpu/share/psi4/basis/cc-pvdz.gbs
    atoms 4, 14-15   entry N          line   168 file /theoryfs2/ds/metcalf/miniconda2/envs/tf2gpu/share/psi4/basis/cc-pvdz.gbs
    atoms 5-9, 16-21 entry H          line    22 file /theoryfs2/ds/metcalf/miniconda2/envs/tf2gpu/share/psi4/basis/cc-pvdz.gbs

         ---------------------------------------------------------
                                   SCF
               by Justin Turney, Rob Parrish, Andy Simmonett
                          and Daniel G. A. Smith
                              RHF Reference
                        1 Threads,    500 MiB Core
         ---------------------------------------------------------

  ==> Geometry <==

    Molecular point group: c1
    Full point group: C1

    Geometry (in Angstrom), charge = 0, multiplicity = 1:

       Center              X                  Y                   Z               Mass
    ------------   -----------------  -----------------  -----------------  -----------------
         C            2.260581999756     3.000912053299     0.100227064286    12.000000000000
         C            1.288581999756     2.056912053299     0.779227064286    12.000000000000
         O            0.098581999756     2.048912053299     0.478227064286    15.994914619570
         N            1.776581999756     1.250912053299     1.708227064286    14.003074004430
         H            2.496581999756     3.794912053299     0.789227064286     1.007825032230
         H            1.740581999756     3.470912053299    -0.733772935714     1.007825032230
         H            1.092581999756     0.645912053299     2.146227064286     1.007825032230
         H            2.746581999756     0.999912053299     1.741227064286     1.007825032230
         H            3.167806199756     2.505672053299    -0.276181935714     1.007825032230
         C           -2.723418000244    -0.760087946701    -1.702772935714    12.000000000000
         C            0.510581999756    -1.459087946701    -0.206772935714    12.000000000000
         C           -1.561418000244    -1.305087946701    -0.926772935714    12.000000000000
         C           -1.527418000244    -2.250087946701     0.048227064286    12.000000000000
         N           -0.280418000244    -0.815087946701    -1.052772935714    14.003074004430
         N           -0.218418000244    -2.336087946701     0.473227064286    14.003074004430
         H            1.575581999756    -1.300087946701    -0.087772935714     1.007825032230
         H            0.141581999756    -2.963087946701     1.185227064286     1.007825032230
         H           -2.370418000244    -2.817087946701     0.415227064286     1.007825032230
         H           -3.442418000244    -1.565087946701    -1.854772935714     1.007825032230
         H           -2.384418000244    -0.433087946701    -2.683772935714     1.007825032230
         H           -3.215250000244     0.077902053299    -1.187142935714     1.007825032230

  Running in c1 symmetry.

  Rotational constants: A =      0.07526  B =      0.02091  C =      0.01801 [cm^-1]
  Rotational constants: A =   2256.10135  B =    626.80235  C =    539.96807 [MHz]
  Nuclear repulsion =  505.916936753695779

  Charge       = 0
  Multiplicity = 1
  Electrons    = 76
  Nalpha       = 38
  Nbeta        = 38

  ==> Algorithm <==

  SCF Algorithm Type is PK.
  DIIS enabled.
  MOM disabled.
  Fractional occupation disabled.
  Guess Type is SAD.
  Energy threshold   = 1.00e-06
  Density threshold  = 1.00e-10
  Integral threshold = 0.00e+00

  ==> Primary Basis <==

  Basis Set: CC-PVDZ
    Blend: CC-PVDZ
    Number of shells: 93
    Number of basis function: 195
    Number of Cartesian functions: 205
    Spherical Harmonics?: true
    Max angular momentum: 2

  ==> Pre-Iterations <==

   -------------------------------------------------------
    Irrep   Nso     Nmo     Nalpha   Nbeta   Ndocc  Nsocc
   -------------------------------------------------------
     A        195     195       0       0       0       0
   -------------------------------------------------------
    Total     195     195      38      38      38       0
   -------------------------------------------------------

  ==> Integral Setup <==

  Using integral reordering PK algorithm.
  Sizing the integral batches needed.
  Building batch lookup table.
   Calculation information:
      Number of atoms:                  21
      Number of AO shells:              93
      Number of primitives:            275
      Number of atomic orbitals:       205
      Number of basis functions:       195

      Integral cutoff                 1.00e-12
      Number of threads:                 1

	Batch   1 pq = [       0,    9405] index = [             0,44231715] size =     44231715
	Batch   2 pq = [    9405,   13301] index = [      44231715,88464951] size =     44233236
	Batch   3 pq = [   13301,   16290] index = [      88464951,132690195] size =     44225244
	Batch   4 pq = [   16290,   18810] index = [     132690195,176917455] size =     44227260
	Batch   5 pq = [   18810,   19110] index = [     176917455,182605605] size =      5688150
  Task number: 17
  Buffer size: 11059200
  Buffer per thread: 2
  We computed 7563959 shell quartets total.
  Whereas there are 9555006 unique shell quartets.

  ==> DiskJK: Disk-Based J/K Matrices <==

    J tasked:                  Yes
    K tasked:                  Yes
    wK tasked:                  No
    Memory [MiB]:              375
    Schwarz Cutoff:          1E-12

    OpenMP threads:              1

  Minimum eigenvalue in the overlap matrix is 1.2278315670E-03.
  Using Symmetric Orthogonalization.

  SCF Guess: Superposition of Atomic Densities via on-the-fly atomic UHF.

  ==> Iterations <==

                        Total Energy        Delta E     RMS |[F,P]|

   @RHF iter SAD:  -470.80924707363488   -4.70809e+02   0.00000e+00
   @RHF iter   1:  -471.55961337669379   -7.50366e-01   3.72579e-03 DIIS
   @RHF iter   2:  -471.77422845263385   -2.14615e-01   2.27414e-03 DIIS
   @RHF iter   3:  -471.85240383674937   -7.81754e-02   4.75683e-04 DIIS
   @RHF iter   4:  -471.85748304991210   -5.07921e-03   1.75454e-04 DIIS
   @RHF iter   5:  -471.85826041717519   -7.77367e-04   3.27749e-05 DIIS
   @RHF iter   6:  -471.85830975846676   -4.93413e-05   1.63479e-05 DIIS
   @RHF iter   7:  -471.85832044517093   -1.06867e-05   6.34461e-06 DIIS
   @RHF iter   8:  -471.85832257745761   -2.13229e-06   2.19858e-06 DIIS
   @RHF iter   9:  -471.85832285356554   -2.76108e-07   1.03283e-06 DIIS
   @RHF iter  10:  -471.85832288996619   -3.64006e-08   2.51740e-07 DIIS
   @RHF iter  11:  -471.85832289368051   -3.71432e-09   9.11525e-08 DIIS
   @RHF iter  12:  -471.85832289407529   -3.94778e-10   4.19617e-08 DIIS
   @RHF iter  13:  -471.85832289415987   -8.45830e-11   1.37062e-08 DIIS
   @RHF iter  14:  -471.85832289417021   -1.03455e-11   6.29379e-09 DIIS
   @RHF iter  15:  -471.85832289417306   -2.84217e-12   2.45207e-09 DIIS
   @RHF iter  16:  -471.85832289417931   -6.25278e-12   7.53058e-10 DIIS
   @RHF iter  17:  -471.85832289417607    3.24007e-12   2.84274e-10 DIIS
   @RHF iter  18:  -471.85832289417249    3.58114e-12   7.94018e-11 DIIS
  Energy and wave function converged.

  ==> Post-Iterations <==

    Orbital Energies [Eh]
    ---------------------

    Doubly Occupied:

       1A    -20.496236     2A    -15.615235     3A    -15.580901
       4A    -15.518343     5A    -11.337190     6A    -11.284468
       7A    -11.242230     8A    -11.232592     9A    -11.231851
      10A    -11.213113    11A     -1.360586    12A     -1.334703
      13A     -1.211083    14A     -1.145501    15A     -1.022603
      16A     -0.992757    17A     -0.932312    18A     -0.810977
      19A     -0.793344    20A     -0.754387    21A     -0.734648
      22A     -0.721857    23A     -0.644132    24A     -0.609555
      25A     -0.602465    26A     -0.595646    27A     -0.589588
      28A     -0.560618    29A     -0.544215    30A     -0.543570
      31A     -0.531835    32A     -0.515876    33A     -0.510697
      34A     -0.404467    35A     -0.401640    36A     -0.392708
      37A     -0.367384    38A     -0.301558

    Virtual:

      39A      0.153670    40A      0.180275    41A      0.191692
      42A      0.207668    43A      0.209529    44A      0.223249
      45A      0.229144    46A      0.241270    47A      0.249905
      48A      0.256336    49A      0.273153    50A      0.282571
      51A      0.287648    52A      0.313080    53A      0.381921
      54A      0.388889    55A      0.394597    56A      0.417213
      57A      0.468535    58A      0.490496    59A      0.501332
      60A      0.564439    61A      0.611426    62A      0.622809
      63A      0.635864    64A      0.653746    65A      0.663709
      66A      0.673602    67A      0.686077    68A      0.706898
      69A      0.709557    70A      0.723545    71A      0.740915
      72A      0.766430    73A      0.770896    74A      0.778132
      75A      0.812220    76A      0.842085    77A      0.851944
      78A      0.858265    79A      0.875015    80A      0.877499
      81A      0.891555    82A      0.903947    83A      0.909137
      84A      0.916102    85A      0.931014    86A      0.943397
      87A      0.960325    88A      0.973894    89A      0.985850
      90A      1.016274    91A      1.029728    92A      1.031084
      93A      1.051135    94A      1.088712    95A      1.100100
      96A      1.101263    97A      1.120489    98A      1.151401
      99A      1.156993   100A      1.171538   101A      1.203008
     102A      1.254151   103A      1.275815   104A      1.289426
     105A      1.311967   106A      1.324267   107A      1.335745
     108A      1.347759   109A      1.380423   110A      1.421516
     111A      1.430078   112A      1.445201   113A      1.456112
     114A      1.477134   115A      1.495042   116A      1.541652
     117A      1.570616   118A      1.588921   119A      1.625172
     120A      1.641561   121A      1.647726   122A      1.670718
     123A      1.703750   124A      1.716648   125A      1.736808
     126A      1.793422   127A      1.809357   128A      1.820197
     129A      1.840049   130A      1.860150   131A      1.870249
     132A      1.896855   133A      1.898965   134A      1.910439
     135A      1.926349   136A      1.936151   137A      1.954245
     138A      1.961205   139A      1.971516   140A      1.975837
     141A      1.979584   142A      2.007554   143A      2.053239
     144A      2.055199   145A      2.074113   146A      2.106177
     147A      2.127241   148A      2.150259   149A      2.179401
     150A      2.210619   151A      2.214405   152A      2.238446
     153A      2.252003   154A      2.279061   155A      2.299453
     156A      2.341091   157A      2.380329   158A      2.400182
     159A      2.436457   160A      2.456549   161A      2.465255
     162A      2.478538   163A      2.506918   164A      2.541590
     165A      2.574406   166A      2.606934   167A      2.623228
     168A      2.679475   169A      2.705217   170A      2.731977
     171A      2.737183   172A      2.761450   173A      2.764374
     174A      2.792654   175A      2.803042   176A      2.821104
     177A      2.852436   178A      2.859766   179A      2.885170
     180A      2.897228   181A      2.939963   182A      2.978029
     183A      3.005023   184A      3.073433   185A      3.102748
     186A      3.153802   187A      3.167255   188A      3.243738
     189A      3.268701   190A      3.481195   191A      3.517281
     192A      3.538514   193A      3.803253   194A      3.864891
     195A      3.910830

    Final Occupation by Irrep:
              A
    DOCC [    38 ]

  @RHF Final Energy:  -471.85832289417249

   => Energetics <=

    Nuclear Repulsion Energy =            505.9169367536957793
    One-Electron Energy =               -1646.1847789031455704
    Two-Electron Energy =                 668.4095192552772460
    Total Energy =                       -471.8583228941724883

Computation Completed

Properties will be evaluated at   0.000000,   0.000000,   0.000000 [a0]

Properties computed using the SCF density matrix

  Nuclear Dipole Moment: [e a0]
     X:     1.4487      Y:     2.2810      Z:    -0.5131

  Electronic Dipole Moment: [e a0]
     X:     0.0127      Y:    -3.4373      Z:     1.8682

  Dipole Moment: [e a0]
     X:     1.4614      Y:    -1.1563      Z:     1.3551     Total:     2.3041

  Dipole Moment: [D]
     X:     3.7146      Y:    -2.9390      Z:     3.4443     Total:     5.8565

*** tstop() called on ds3 at Mon Apr 27 10:22:51 2020
Module time:
	user time   =      58.85 seconds =       0.98 minutes
	system time =      26.40 seconds =       0.44 minutes
	total time  =        415 seconds =       6.92 minutes
Total time:
	user time   =      58.85 seconds =       0.98 minutes
	system time =      26.40 seconds =       0.44 minutes
	total time  =        415 seconds =       6.92 minutes
                                     G D M A

                                 by Anthony Stone

                           version 2.2.06, 22 June 2011

               Distributed Multipoles from Gaussian wavefunctions

Starting at 10:22:51 on 27 Apr 2020

Using SCF density matrix from file ./SSI/SSI-106ASN-130HIE-1-dimer.test.2467.fchk

                         Distributed Multipole Analysis

Standard DMA

Positions and radii in angstrom
Multipole moments in atomic units, ea_0^k for rank k

C          x =  2.260582  y =  3.000912  z =  0.100227 angstrom
           Maximum rank =  0   Radius =  0.650 angstrom
                   Q00  =  -0.267801

C          x =  1.288582  y =  2.056912  z =  0.779227 angstrom
           Maximum rank =  0   Radius =  0.650 angstrom
                   Q00  =   0.808229

O          x =  0.098582  y =  2.048912  z =  0.478227 angstrom
           Maximum rank =  0   Radius =  0.650 angstrom
                   Q00  =  -0.768891

N          x =  1.776582  y =  1.250912  z =  1.708227 angstrom
           Maximum rank =  0   Radius =  0.650 angstrom
                   Q00  =  -0.517338

H          x =  2.496582  y =  3.794912  z =  0.789227 angstrom
           Maximum rank =  0   Radius =  0.325 angstrom
                   Q00  =   0.120825

H          x =  1.740582  y =  3.470912  z = -0.733773 angstrom
           Maximum rank =  0   Radius =  0.325 angstrom
                   Q00  =   0.127322

H          x =  1.092582  y =  0.645912  z =  2.146227 angstrom
           Maximum rank =  0   Radius =  0.325 angstrom
                   Q00  =   0.208106

H          x =  2.746582  y =  0.999912  z =  1.741227 angstrom
           Maximum rank =  0   Radius =  0.325 angstrom
                   Q00  =   0.198419

H          x =  3.167806  y =  2.505672  z = -0.276182 angstrom
           Maximum rank =  0   Radius =  0.325 angstrom
                   Q00  =   0.094026

C          x = -2.723418  y = -0.760088  z = -1.702773 angstrom
           Maximum rank =  0   Radius =  0.650 angstrom
                   Q00  =  -0.198739

C          x =  0.510582  y = -1.459088  z = -0.206773 angstrom
           Maximum rank =  0   Radius =  0.650 angstrom
                   Q00  =   0.455144

C          x = -1.561418  y = -1.305088  z = -0.926773 angstrom
           Maximum rank =  0   Radius =  0.650 angstrom
                   Q00  =   0.239784

C          x = -1.527418  y = -2.250088  z =  0.048227 angstrom
           Maximum rank =  0   Radius =  0.650 angstrom
                   Q00  =  -0.008389

N          x = -0.280418  y = -0.815088  z = -1.052773 angstrom
           Maximum rank =  0   Radius =  0.650 angstrom
                   Q00  =  -0.755873

N          x = -0.218418  y = -2.336088  z =  0.473227 angstrom
           Maximum rank =  0   Radius =  0.650 angstrom
                   Q00  =  -0.473290

H          x =  1.575582  y = -1.300088  z = -0.087773 angstrom
           Maximum rank =  0   Radius =  0.325 angstrom
                   Q00  =   0.109292

H          x =  0.141582  y = -2.963088  z =  1.185227 angstrom
           Maximum rank =  0   Radius =  0.325 angstrom
                   Q00  =   0.211962

H          x = -2.370418  y = -2.817088  z =  0.415227 angstrom
           Maximum rank =  0   Radius =  0.325 angstrom
                   Q00  =   0.099153

H          x = -3.442418  y = -1.565088  z = -1.854773 angstrom
           Maximum rank =  0   Radius =  0.325 angstrom
                   Q00  =   0.086035

H          x = -2.384418  y = -0.433088  z = -2.683773 angstrom
           Maximum rank =  0   Radius =  0.325 angstrom
                   Q00  =   0.119770

H          x = -3.215250  y =  0.077902  z = -1.187143 angstrom
           Maximum rank =  0   Radius =  0.325 angstrom
                   Q00  =   0.112254

Total multipoles referred to origin at
           x =   0.000000,  y =    0.000000,  z =    0.000000 angstrom
                   Q00  =  -0.000000

Finished at 10:22:51 on 27 Apr 2020

  DMA results are available in the Python driver through the
	  variable('DMA DISTRIBUTED MULTIPOLES')
  and
	  variable('DMA TOTAL MULTIPOLES')
  commands.

    Psi4 stopped on: Monday, 27 April 2020 10:22AM
    Psi4 wall time for execution: 0:06:55.05

*** Psi4 exiting successfully. Buy a developer a beer!
