                               Psi4 1.3.2 release

  ==> Input File <==

--------------------------------------------------------------------------
import numpy as np
set {scf_type pk
basis cc-pvdz
d_convergence 10
gdma_switch   0
gdma_limit    0
gdma_origin   [ 0.0,  0.0,  0.0 ]
}
molecule test {
    units Angstrom
    0 1
    --
    0 1
    C                0.752985920647971    -1.585649003144016    -0.009737086455201
    C                0.598985920647971    -2.991649003144017     0.579262913544800
    H               -0.087014079352029    -0.967649003144017     0.306262913544799
    H                1.684985920647971    -1.124649003144016     0.317262913544799
    H                0.780985920647971    -1.616649003144016    -1.098737086455201
    H                1.449985920647971    -3.583649003144016     0.243262913544799
    H               -0.325204079352029    -3.460533003144016     0.210442913544799
    H                0.601845920647971    -2.980914003144016     1.679202913544799
    C               -0.102014079352029     1.874350996855983    -0.558737086455200
    C               -1.253014079352029     2.704350996855983    -0.010737086455201
    H                0.679985920647971     2.529350996855984    -0.940737086455201
    H                0.315985920647971     1.266350996855983     0.242262913544799
    H               -0.451014079352029     1.216350996855984    -1.352737086455201
    H               -2.085014079352029     2.041350996855984     0.222262913544799
    H               -1.569494079352029     3.454290996855983    -0.750627086455200
    H               -0.959644079352029     3.209630996855984     0.921262913544799

}
e, wfn = energy('scf', return_wfn=True)
gdma(wfn)
dmavals = variable('DMA DISTRIBUTED MULTIPOLES')
charges = np.array(dmavals)
print(charges)
np.save('SSI-053ILE-075LEU-1-dimer.npy', np.array(charges))--------------------------------------------------------------------------

*** tstart() called on ds3
*** at Tue Apr 28 04:27:32 2020

   => Loading Basis Set <=

    Name: CC-PVDZ
    Role: ORBITAL
    Keyword: BASIS
    atoms 1-2, 9-10  entry C          line   138 file /theoryfs2/ds/metcalf/miniconda2/envs/tf2gpu/share/psi4/basis/cc-pvdz.gbs
    atoms 3-8, 11-16 entry H          line    22 file /theoryfs2/ds/metcalf/miniconda2/envs/tf2gpu/share/psi4/basis/cc-pvdz.gbs

         ---------------------------------------------------------
                                   SCF
               by Justin Turney, Rob Parrish, Andy Simmonett
                          and Daniel G. A. Smith
                              RHF Reference
                        1 Threads,    500 MiB Core
         ---------------------------------------------------------

  ==> Geometry <==

    Molecular point group: c1
    Full point group: C1

    Geometry (in Angstrom), charge = 0, multiplicity = 1:

       Center              X                  Y                   Z               Mass
    ------------   -----------------  -----------------  -----------------  -----------------
         C            0.752985920648    -1.585649003144    -0.009737086455    12.000000000000
         C            0.598985920648    -2.991649003144     0.579262913545    12.000000000000
         H           -0.087014079352    -0.967649003144     0.306262913545     1.007825032230
         H            1.684985920648    -1.124649003144     0.317262913545     1.007825032230
         H            0.780985920648    -1.616649003144    -1.098737086455     1.007825032230
         H            1.449985920648    -3.583649003144     0.243262913545     1.007825032230
         H           -0.325204079352    -3.460533003144     0.210442913545     1.007825032230
         H            0.601845920648    -2.980914003144     1.679202913545     1.007825032230
         C           -0.102014079352     1.874350996856    -0.558737086455    12.000000000000
         C           -1.253014079352     2.704350996856    -0.010737086455    12.000000000000
         H            0.679985920648     2.529350996856    -0.940737086455     1.007825032230
         H            0.315985920648     1.266350996856     0.242262913545     1.007825032230
         H           -0.451014079352     1.216350996856    -1.352737086455     1.007825032230
         H           -2.085014079352     2.041350996856     0.222262913545     1.007825032230
         H           -1.569494079352     3.454290996856    -0.750627086455     1.007825032230
         H           -0.959644079352     3.209630996856     0.921262913545     1.007825032230

  Running in c1 symmetry.

  Rotational constants: A =      0.64069  B =      0.04394  C =      0.04244 [cm^-1]
  Rotational constants: A =  19207.48891  B =   1317.31863  C =   1272.27843 [MHz]
  Nuclear repulsion =  121.245769614162654

  Charge       = 0
  Multiplicity = 1
  Electrons    = 36
  Nalpha       = 18
  Nbeta        = 18

  ==> Algorithm <==

  SCF Algorithm Type is PK.
  DIIS enabled.
  MOM disabled.
  Fractional occupation disabled.
  Guess Type is SAD.
  Energy threshold   = 1.00e-06
  Density threshold  = 1.00e-10
  Integral threshold = 0.00e+00

  ==> Primary Basis <==

  Basis Set: CC-PVDZ
    Blend: CC-PVDZ
    Number of shells: 60
    Number of basis function: 116
    Number of Cartesian functions: 120
    Spherical Harmonics?: true
    Max angular momentum: 2

  ==> Pre-Iterations <==

   -------------------------------------------------------
    Irrep   Nso     Nmo     Nalpha   Nbeta   Ndocc  Nsocc
   -------------------------------------------------------
     A        116     116       0       0       0       0
   -------------------------------------------------------
    Total     116     116      18      18      18       0
   -------------------------------------------------------

  ==> Integral Setup <==

  Using integral reordering PK algorithm.
  Sizing the integral batches needed.
  Building batch lookup table.
   Calculation information:
      Number of atoms:                  16
      Number of AO shells:              60
      Number of primitives:            148
      Number of atomic orbitals:       120
      Number of basis functions:       116

      Integral cutoff                 1.00e-12
      Number of threads:                 1

	Batch   1 pq = [       0,    6786] index = [             0,23028291] size =     23028291
  Task number: 3
  Buffer size: 11059200
  Buffer per thread: 2
  We computed 1379037 shell quartets total.
  Whereas there are 1675365 unique shell quartets.

  ==> DiskJK: Disk-Based J/K Matrices <==

    J tasked:                  Yes
    K tasked:                  Yes
    wK tasked:                  No
    Memory [MiB]:              375
    Schwarz Cutoff:          1E-12

    OpenMP threads:              1

  Minimum eigenvalue in the overlap matrix is 6.5763260332E-03.
  Using Symmetric Orthogonalization.

  SCF Guess: Superposition of Atomic Densities via on-the-fly atomic UHF.

  ==> Iterations <==

                        Total Energy        Delta E     RMS |[F,P]|

   @RHF iter SAD:  -157.36302631545485   -1.57363e+02   0.00000e+00
   @RHF iter   1:  -158.30647053085482   -9.43444e-01   4.21571e-03 DIIS
   @RHF iter   2:  -158.44025675012688   -1.33786e-01   1.79361e-03 DIIS
   @RHF iter   3:  -158.46361121300745   -2.33545e-02   3.50955e-04 DIIS
   @RHF iter   4:  -158.46545790313402   -1.84669e-03   3.94473e-05 DIIS
   @RHF iter   5:  -158.46548216084213   -2.42577e-05   7.12789e-06 DIIS
   @RHF iter   6:  -158.46548286358518   -7.02743e-07   1.45002e-06 DIIS
   @RHF iter   7:  -158.46548288270142   -1.91162e-08   3.15837e-07 DIIS
   @RHF iter   8:  -158.46548288369215   -9.90724e-10   3.70097e-08 DIIS
   @RHF iter   9:  -158.46548288371346   -2.13163e-11   6.73578e-09 DIIS
   @RHF iter  10:  -158.46548288371434   -8.81073e-13   2.13049e-09 DIIS
   @RHF iter  11:  -158.46548288371463   -2.84217e-13   5.61466e-10 DIIS
   @RHF iter  12:  -158.46548288371480   -1.70530e-13   1.02830e-10 DIIS
   @RHF iter  13:  -158.46548288371471    8.52651e-14   1.87951e-11 DIIS
  Energy and wave function converged.

  ==> Post-Iterations <==

    Orbital Energies [Eh]
    ---------------------

    Doubly Occupied:

       1A    -11.219486     2A    -11.217655     3A    -11.216542
       4A    -11.213905     5A     -1.019805     6A     -1.016217
       7A     -0.840621     8A     -0.832472     9A     -0.603176
      10A     -0.597858    11A     -0.595419    12A     -0.593126
      13A     -0.507112    14A     -0.498133    15A     -0.490470
      16A     -0.487039    17A     -0.482046    18A     -0.474971

    Virtual:

      19A      0.175666    20A      0.195975    21A      0.221542
      22A      0.236945    23A      0.247220    24A      0.256024
      25A      0.265520    26A      0.275738    27A      0.281315
      28A      0.290277    29A      0.307047    30A      0.323843
      31A      0.378125    32A      0.415188    33A      0.567959
      34A      0.594253    35A      0.597316    36A      0.603961
      37A      0.610668    38A      0.639113    39A      0.673488
      40A      0.684875    41A      0.715362    42A      0.781580
      43A      0.838619    44A      0.880777    45A      0.888694
      46A      0.891482    47A      0.893688    48A      0.895593
      49A      0.899489    50A      0.908773    51A      0.916223
      52A      0.927737    53A      0.929716    54A      0.935816
      55A      0.979590    56A      0.987855    57A      1.118765
      58A      1.125866    59A      1.143483    60A      1.162159
      61A      1.221585    62A      1.254837    63A      1.460506
      64A      1.470319    65A      1.480997    66A      1.496772
      67A      1.571132    68A      1.588589    69A      1.681560
      70A      1.683960    71A      1.692450    72A      1.701310
      73A      1.859552    74A      1.862664    75A      1.883573
      76A      1.888894    77A      1.895143    78A      1.911073
      79A      1.932416    80A      1.935545    81A      1.942404
      82A      1.947176    83A      1.948825    84A      1.953309
      85A      1.960092    86A      1.968758    87A      1.997838
      88A      2.034408    89A      2.082687    90A      2.114578
      91A      2.121130    92A      2.136000    93A      2.298927
      94A      2.306015    95A      2.316791    96A      2.337280
      97A      2.445838    98A      2.449648    99A      2.466240
     100A      2.481566   101A      2.544867   102A      2.567889
     103A      2.577851   104A      2.589813   105A      2.757490
     106A      2.761528   107A      2.783347   108A      2.798711
     109A      2.848505   110A      2.855920   111A      2.859215
     112A      2.864276   113A      2.942462   114A      2.946410
     115A      2.963314   116A      2.977981

    Final Occupation by Irrep:
              A
    DOCC [    18 ]

  @RHF Final Energy:  -158.46548288371471

   => Energetics <=

    Nuclear Repulsion Energy =            121.2457696141626542
    One-Electron Energy =                -451.6103978910498427
    Two-Electron Energy =                 171.8991453931724607
    Total Energy =                       -158.4654828837147136

Computation Completed

Properties will be evaluated at   0.000000,   0.000000,   0.000000 [a0]

Properties computed using the SCF density matrix

  Nuclear Dipole Moment: [e a0]
     X:     0.0341      Y:    -0.0157      Z:    -0.0006

  Electronic Dipole Moment: [e a0]
     X:    -0.0167      Y:     0.0040      Z:    -0.0038

  Dipole Moment: [e a0]
     X:     0.0175      Y:    -0.0117      Z:    -0.0043     Total:     0.0214

  Dipole Moment: [D]
     X:     0.0444      Y:    -0.0297      Z:    -0.0110     Total:     0.0545

*** tstop() called on ds3 at Tue Apr 28 04:27:46 2020
Module time:
	user time   =       7.12 seconds =       0.12 minutes
	system time =       2.66 seconds =       0.04 minutes
	total time  =         14 seconds =       0.23 minutes
Total time:
	user time   =       7.12 seconds =       0.12 minutes
	system time =       2.66 seconds =       0.04 minutes
	total time  =         14 seconds =       0.23 minutes
                                     G D M A

                                 by Anthony Stone

                           version 2.2.06, 22 June 2011

               Distributed Multipoles from Gaussian wavefunctions

Starting at 4:27:46 on 28 Apr 2020

Using SCF density matrix from file ./SSI/SSI-053ILE-075LEU-1-dimer.test.27614.fchk

                         Distributed Multipole Analysis

Standard DMA

Positions and radii in angstrom
Multipole moments in atomic units, ea_0^k for rank k

C          x =  0.752986  y = -1.585649  z = -0.009737 angstrom
           Maximum rank =  0   Radius =  0.650 angstrom
                   Q00  =  -0.243612

C          x =  0.598986  y = -2.991649  z =  0.579263 angstrom
           Maximum rank =  0   Radius =  0.650 angstrom
                   Q00  =  -0.232351

H          x = -0.087014  y = -0.967649  z =  0.306263 angstrom
           Maximum rank =  0   Radius =  0.325 angstrom
                   Q00  =   0.077766

H          x =  1.684986  y = -1.124649  z =  0.317263 angstrom
           Maximum rank =  0   Radius =  0.325 angstrom
                   Q00  =   0.078580

H          x =  0.780986  y = -1.616649  z = -1.098737 angstrom
           Maximum rank =  0   Radius =  0.325 angstrom
                   Q00  =   0.081531

H          x =  1.449986  y = -3.583649  z =  0.243263 angstrom
           Maximum rank =  0   Radius =  0.325 angstrom
                   Q00  =   0.077267

H          x = -0.325204  y = -3.460533  z =  0.210443 angstrom
           Maximum rank =  0   Radius =  0.325 angstrom
                   Q00  =   0.080184

H          x =  0.601846  y = -2.980914  z =  1.679203 angstrom
           Maximum rank =  0   Radius =  0.325 angstrom
                   Q00  =   0.081209

C          x = -0.102014  y =  1.874351  z = -0.558737 angstrom
           Maximum rank =  0   Radius =  0.650 angstrom
                   Q00  =  -0.233413

C          x = -1.253014  y =  2.704351  z = -0.010737 angstrom
           Maximum rank =  0   Radius =  0.650 angstrom
                   Q00  =  -0.234058

H          x =  0.679986  y =  2.529351  z = -0.940737 angstrom
           Maximum rank =  0   Radius =  0.325 angstrom
                   Q00  =   0.077461

H          x =  0.315986  y =  1.266351  z =  0.242263 angstrom
           Maximum rank =  0   Radius =  0.325 angstrom
                   Q00  =   0.079981

H          x = -0.451014  y =  1.216351  z = -1.352737 angstrom
           Maximum rank =  0   Radius =  0.325 angstrom
                   Q00  =   0.078375

H          x = -2.085014  y =  2.041351  z =  0.222263 angstrom
           Maximum rank =  0   Radius =  0.325 angstrom
                   Q00  =   0.076305

H          x = -1.569494  y =  3.454291  z = -0.750627 angstrom
           Maximum rank =  0   Radius =  0.325 angstrom
                   Q00  =   0.077709

H          x = -0.959644  y =  3.209631  z =  0.921263 angstrom
           Maximum rank =  0   Radius =  0.325 angstrom
                   Q00  =   0.077064

Total multipoles referred to origin at
           x =   0.000000,  y =    0.000000,  z =    0.000000 angstrom
                   Q00  =  -0.000000

Finished at 4:27:46 on 28 Apr 2020

  DMA results are available in the Python driver through the
	  variable('DMA DISTRIBUTED MULTIPOLES')
  and
	  variable('DMA TOTAL MULTIPOLES')
  commands.

    Psi4 stopped on: Tuesday, 28 April 2020 04:27AM
    Psi4 wall time for execution: 0:00:14.46

*** Psi4 exiting successfully. Buy a developer a beer!
