                               Psi4 1.3.2 release

  ==> Input File <==

--------------------------------------------------------------------------
import numpy as np
set {scf_type pk
basis cc-pvdz
d_convergence 10
gdma_switch   0
gdma_limit    0
gdma_origin   [ 0.0,  0.0,  0.0 ]
}
molecule test {
    units Angstrom
    0 1
    --
    0 1
    C                0.580792064328343    -0.108259417222660     2.153140867353097
    C                0.816792064328343     0.856740582777340     1.020140867353096
    O                0.556792064328343     0.540740582777340    -0.137859132646904
    N                1.312792064328343     2.043740582777340     1.335140867353097
    H                1.075792064328343     0.243740582777340     3.041140867353097
    H                1.069792064328343    -1.046259417222660     1.885140867353096
    H                1.488792064328343     2.698740582777340     0.589140867353096
    H                1.538792064328343     2.290740582777340     2.292140867353096
    H               -0.486027935671657    -0.313309417222660     2.325920867353097
    C               -2.171207935671657    -1.473259417222660    -2.335859132646903
    O               -0.936207935671657    -1.682259417222660    -1.682859132646904
    H               -0.229207935671657    -1.309259417222660    -2.226859132646903
    H               -2.264207935671657    -2.141259417222660    -3.194859132646904
    H               -2.191207935671657    -0.442259417222660    -2.695859132646904
    H               -3.009897935671657    -1.630779417222660    -1.641749132646904

}
e, wfn = energy('scf', return_wfn=True)
gdma(wfn)
dmavals = variable('DMA DISTRIBUTED MULTIPOLES')
charges = np.array(dmavals)
print(charges)
np.save('SSI-029ASN-179SER-1-dimer.npy', np.array(charges))--------------------------------------------------------------------------

*** tstart() called on ds3
*** at Mon Apr 27 19:17:02 2020

   => Loading Basis Set <=

    Name: CC-PVDZ
    Role: ORBITAL
    Keyword: BASIS
    atoms 1-2, 10    entry C          line   138 file /theoryfs2/ds/metcalf/miniconda2/envs/tf2gpu/share/psi4/basis/cc-pvdz.gbs
    atoms 3, 11      entry O          line   198 file /theoryfs2/ds/metcalf/miniconda2/envs/tf2gpu/share/psi4/basis/cc-pvdz.gbs
    atoms 4          entry N          line   168 file /theoryfs2/ds/metcalf/miniconda2/envs/tf2gpu/share/psi4/basis/cc-pvdz.gbs
    atoms 5-9, 12-15 entry H          line    22 file /theoryfs2/ds/metcalf/miniconda2/envs/tf2gpu/share/psi4/basis/cc-pvdz.gbs

         ---------------------------------------------------------
                                   SCF
               by Justin Turney, Rob Parrish, Andy Simmonett
                          and Daniel G. A. Smith
                              RHF Reference
                        1 Threads,    500 MiB Core
         ---------------------------------------------------------

  ==> Geometry <==

    Molecular point group: c1
    Full point group: C1

    Geometry (in Angstrom), charge = 0, multiplicity = 1:

       Center              X                  Y                   Z               Mass
    ------------   -----------------  -----------------  -----------------  -----------------
         C            0.580792064328    -0.108259417223     2.153140867353    12.000000000000
         C            0.816792064328     0.856740582777     1.020140867353    12.000000000000
         O            0.556792064328     0.540740582777    -0.137859132647    15.994914619570
         N            1.312792064328     2.043740582777     1.335140867353    14.003074004430
         H            1.075792064328     0.243740582777     3.041140867353     1.007825032230
         H            1.069792064328    -1.046259417223     1.885140867353     1.007825032230
         H            1.488792064328     2.698740582777     0.589140867353     1.007825032230
         H            1.538792064328     2.290740582777     2.292140867353     1.007825032230
         H           -0.486027935672    -0.313309417223     2.325920867353     1.007825032230
         C           -2.171207935672    -1.473259417223    -2.335859132647    12.000000000000
         O           -0.936207935672    -1.682259417223    -1.682859132647    15.994914619570
         H           -0.229207935672    -1.309259417223    -2.226859132647     1.007825032230
         H           -2.264207935672    -2.141259417223    -3.194859132647     1.007825032230
         H           -2.191207935672    -0.442259417223    -2.695859132647     1.007825032230
         H           -3.009897935672    -1.630779417223    -1.641749132647     1.007825032230

  Running in c1 symmetry.

  Rotational constants: A =      0.24627  B =      0.03351  C =      0.03095 [cm^-1]
  Rotational constants: A =   7382.84281  B =   1004.57932  C =    927.76223 [MHz]
  Nuclear repulsion =  229.018548281986568

  Charge       = 0
  Multiplicity = 1
  Electrons    = 50
  Nalpha       = 25
  Nbeta        = 25

  ==> Algorithm <==

  SCF Algorithm Type is PK.
  DIIS enabled.
  MOM disabled.
  Fractional occupation disabled.
  Guess Type is SAD.
  Energy threshold   = 1.00e-06
  Density threshold  = 1.00e-10
  Integral threshold = 0.00e+00

  ==> Primary Basis <==

  Basis Set: CC-PVDZ
    Blend: CC-PVDZ
    Number of shells: 63
    Number of basis function: 129
    Number of Cartesian functions: 135
    Spherical Harmonics?: true
    Max angular momentum: 2

  ==> Pre-Iterations <==

   -------------------------------------------------------
    Irrep   Nso     Nmo     Nalpha   Nbeta   Ndocc  Nsocc
   -------------------------------------------------------
     A        129     129       0       0       0       0
   -------------------------------------------------------
    Total     129     129      25      25      25       0
   -------------------------------------------------------

  ==> Integral Setup <==

  Using integral reordering PK algorithm.
  Sizing the integral batches needed.
  Building batch lookup table.
   Calculation information:
      Number of atoms:                  15
      Number of AO shells:              63
      Number of primitives:            177
      Number of atomic orbitals:       135
      Number of basis functions:       129

      Integral cutoff                 1.00e-12
      Number of threads:                 1

	Batch   1 pq = [       0,    8385] index = [             0,35158305] size =     35158305
  Task number: 4
  Buffer size: 11059200
  Buffer per thread: 2
  We computed 1480727 shell quartets total.
  Whereas there are 2033136 unique shell quartets.

  ==> DiskJK: Disk-Based J/K Matrices <==

    J tasked:                  Yes
    K tasked:                  Yes
    wK tasked:                  No
    Memory [MiB]:              375
    Schwarz Cutoff:          1E-12

    OpenMP threads:              1

  Minimum eigenvalue in the overlap matrix is 4.4716543165E-03.
  Using Symmetric Orthogonalization.

  SCF Guess: Superposition of Atomic Densities via on-the-fly atomic UHF.

  ==> Iterations <==

                        Total Energy        Delta E     RMS |[F,P]|

   @RHF iter SAD:  -321.68634076411325   -3.21686e+02   0.00000e+00
   @RHF iter   1:  -322.82229164923922   -1.13595e+00   5.06515e-03 DIIS
   @RHF iter   2:  -322.98395650135194   -1.61665e-01   2.95255e-03 DIIS
   @RHF iter   3:  -323.03591804418403   -5.19615e-02   5.50873e-04 DIIS
   @RHF iter   4:  -323.03890319651759   -2.98515e-03   2.21599e-04 DIIS
   @RHF iter   5:  -323.03940906601576   -5.05869e-04   4.62432e-05 DIIS
   @RHF iter   6:  -323.03944331378318   -3.42478e-05   2.05227e-05 DIIS
   @RHF iter   7:  -323.03945050255754   -7.18877e-06   7.54319e-06 DIIS
   @RHF iter   8:  -323.03945188447989   -1.38192e-06   2.58631e-06 DIIS
   @RHF iter   9:  -323.03945204665729   -1.62177e-07   7.72924e-07 DIIS
   @RHF iter  10:  -323.03945205824562   -1.15883e-08   2.63977e-07 DIIS
   @RHF iter  11:  -323.03945205943222   -1.18661e-09   4.60323e-08 DIIS
   @RHF iter  12:  -323.03945205947645   -4.42242e-11   1.29450e-08 DIIS
   @RHF iter  13:  -323.03945205948031   -3.86535e-12   3.81778e-09 DIIS
   @RHF iter  14:  -323.03945205947986    4.54747e-13   1.36108e-09 DIIS
   @RHF iter  15:  -323.03945205948014   -2.84217e-13   4.62464e-10 DIIS
   @RHF iter  16:  -323.03945205948122   -1.08002e-12   1.75217e-10 DIIS
   @RHF iter  17:  -323.03945205947963    1.59162e-12   7.39502e-11 DIIS
  Energy and wave function converged.

  ==> Post-Iterations <==

    Orbital Energies [Eh]
    ---------------------

    Doubly Occupied:

       1A    -20.519670     2A    -20.495881     3A    -15.587217
       4A    -11.342020     5A    -11.255296     6A    -11.233979
       7A     -1.362183     8A     -1.322246     9A     -1.213487
      10A     -0.996974    11A     -0.897622    12A     -0.797152
      13A     -0.724145    14A     -0.656653    15A     -0.650698
      16A     -0.606733    17A     -0.594162    18A     -0.569926
      19A     -0.562148    20A     -0.553636    21A     -0.516059
      22A     -0.468130    23A     -0.415094    24A     -0.401877
      25A     -0.398812

    Virtual:

      26A      0.168508    27A      0.202467    28A      0.207589
      29A      0.221234    30A      0.228321    31A      0.248674
      32A      0.280115    33A      0.282544    34A      0.289120
      35A      0.294235    36A      0.383275    37A      0.388395
      38A      0.469635    39A      0.572158    40A      0.630434
      41A      0.650339    42A      0.660246    43A      0.676934
      44A      0.700428    45A      0.714794    46A      0.740360
      47A      0.754556    48A      0.757268    49A      0.821358
      50A      0.847768    51A      0.859086    52A      0.880531
      53A      0.896329    54A      0.912225    55A      0.918345
      56A      0.929282    57A      0.943033    58A      1.005345
      59A      1.008653    60A      1.047712    61A      1.117355
      62A      1.134355    63A      1.142489    64A      1.178791
      65A      1.196630    66A      1.274460    67A      1.332839
      68A      1.335616    69A      1.382985    70A      1.409531
      71A      1.415491    72A      1.451507    73A      1.465069
      74A      1.484384    75A      1.510379    76A      1.629819
      77A      1.642917    78A      1.666208    79A      1.686564
      80A      1.697679    81A      1.724700    82A      1.828228
      83A      1.858283    84A      1.881820    85A      1.891228
      86A      1.899247    87A      1.918230    88A      1.920387
      89A      1.934904    90A      1.939021    91A      1.980794
      92A      1.989612    93A      2.057905    94A      2.070163
      95A      2.082636    96A      2.114921    97A      2.169909
      98A      2.242813    99A      2.315325   100A      2.321896
     101A      2.381823   102A      2.401730   103A      2.412228
     104A      2.446509   105A      2.462171   106A      2.541924
     107A      2.557399   108A      2.562889   109A      2.635204
     110A      2.750386   111A      2.761151   112A      2.777962
     113A      2.790749   114A      2.802565   115A      2.805660
     116A      2.852589   117A      2.975302   118A      3.095288
     119A      3.139503   120A      3.271120   121A      3.333917
     122A      3.419766   123A      3.468667   124A      3.514066
     125A      3.528673   126A      3.629347   127A      3.885257
     128A      3.919673   129A      4.114870

    Final Occupation by Irrep:
              A
    DOCC [    25 ]

  @RHF Final Energy:  -323.03945205947963

   => Energetics <=

    Nuclear Repulsion Energy =            229.0185482819865683
    One-Electron Energy =                -895.8323984851539308
    Two-Electron Energy =                 343.7743981436877334
    Total Energy =                       -323.0394520594796290

Computation Completed

Properties will be evaluated at   0.000000,   0.000000,   0.000000 [a0]

Properties computed using the SCF density matrix

  Nuclear Dipole Moment: [e a0]
     X:    -2.8250      Y:    -1.5582      Z:     0.3381

  Electronic Dipole Moment: [e a0]
     X:     3.2633      Y:     2.6052      Z:     0.5518

  Dipole Moment: [e a0]
     X:     0.4383      Y:     1.0471      Z:     0.8900     Total:     1.4424

  Dipole Moment: [D]
     X:     1.1142      Y:     2.6614      Z:     2.2621     Total:     3.6662

*** tstop() called on ds3 at Mon Apr 27 19:17:36 2020
Module time:
	user time   =      10.90 seconds =       0.18 minutes
	system time =       5.09 seconds =       0.08 minutes
	total time  =         34 seconds =       0.57 minutes
Total time:
	user time   =      10.90 seconds =       0.18 minutes
	system time =       5.09 seconds =       0.08 minutes
	total time  =         34 seconds =       0.57 minutes
                                     G D M A

                                 by Anthony Stone

                           version 2.2.06, 22 June 2011

               Distributed Multipoles from Gaussian wavefunctions

Starting at 19:17:36 on 27 Apr 2020

Using SCF density matrix from file ./SSI/SSI-029ASN-179SER-1-dimer.test.4674.fchk

                         Distributed Multipole Analysis

Standard DMA

Positions and radii in angstrom
Multipole moments in atomic units, ea_0^k for rank k

C          x =  0.580792  y = -0.108259  z =  2.153141 angstrom
           Maximum rank =  0   Radius =  0.650 angstrom
                   Q00  =  -0.264198

C          x =  0.816792  y =  0.856741  z =  1.020141 angstrom
           Maximum rank =  0   Radius =  0.650 angstrom
                   Q00  =   0.818885

O          x =  0.556792  y =  0.540741  z = -0.137859 angstrom
           Maximum rank =  0   Radius =  0.650 angstrom
                   Q00  =  -0.794217

N          x =  1.312792  y =  2.043741  z =  1.335141 angstrom
           Maximum rank =  0   Radius =  0.650 angstrom
                   Q00  =  -0.524508

H          x =  1.075792  y =  0.243741  z =  3.041141 angstrom
           Maximum rank =  0   Radius =  0.325 angstrom
                   Q00  =   0.068966

H          x =  1.069792  y = -1.046259  z =  1.885141 angstrom
           Maximum rank =  0   Radius =  0.325 angstrom
                   Q00  =   0.133815

H          x =  1.488792  y =  2.698741  z =  0.589141 angstrom
           Maximum rank =  0   Radius =  0.325 angstrom
                   Q00  =   0.215542

H          x =  1.538792  y =  2.290741  z =  2.292141 angstrom
           Maximum rank =  0   Radius =  0.325 angstrom
                   Q00  =   0.207442

H          x = -0.486028  y = -0.313309  z =  2.325921 angstrom
           Maximum rank =  0   Radius =  0.325 angstrom
                   Q00  =   0.138812

C          x = -2.171208  y = -1.473259  z = -2.335859 angstrom
           Maximum rank =  0   Radius =  0.650 angstrom
                   Q00  =  -0.032181

O          x = -0.936208  y = -1.682259  z = -1.682859 angstrom
           Maximum rank =  0   Radius =  0.650 angstrom
                   Q00  =  -0.586853

H          x = -0.229208  y = -1.309259  z = -2.226859 angstrom
           Maximum rank =  0   Radius =  0.325 angstrom
                   Q00  =   0.395340

H          x = -2.264208  y = -2.141259  z = -3.194859 angstrom
           Maximum rank =  0   Radius =  0.325 angstrom
                   Q00  =   0.055447

H          x = -2.191208  y = -0.442259  z = -2.695859 angstrom
           Maximum rank =  0   Radius =  0.325 angstrom
                   Q00  =   0.062729

H          x = -3.009898  y = -1.630779  z = -1.641749 angstrom
           Maximum rank =  0   Radius =  0.325 angstrom
                   Q00  =   0.104978

Total multipoles referred to origin at
           x =   0.000000,  y =    0.000000,  z =    0.000000 angstrom
                   Q00  =  -0.000000

Finished at 19:17:36 on 27 Apr 2020

  DMA results are available in the Python driver through the
	  variable('DMA DISTRIBUTED MULTIPOLES')
  and
	  variable('DMA TOTAL MULTIPOLES')
  commands.

    Psi4 stopped on: Monday, 27 April 2020 07:17PM
    Psi4 wall time for execution: 0:00:34.03

*** Psi4 exiting successfully. Buy a developer a beer!
