                               Psi4 1.3.2 release

  ==> Input File <==

--------------------------------------------------------------------------
import numpy as np
set {scf_type pk
basis cc-pvdz
d_convergence 10
gdma_switch   0
gdma_limit    0
gdma_origin   [ 0.0,  0.0,  0.0 ]
}
molecule test {
    units Angstrom
    0 1
    --
    0 1
    C               -1.300609416009340     0.074672581909109    -2.166815098443295
    C               -1.555609416009340     1.202672581909109    -3.150815098443294
    H               -0.241609416009340    -0.178327418090891    -2.149815098443294
    H               -1.860609416009340    -0.810327418090891    -2.472815098443294
    H               -1.626609416009340     0.368672581909109    -1.168815098443294
    H               -1.233609416009340     0.856672581909109    -4.122815098443295
    H               -0.961749416009340     2.079562581909109    -2.853525098443294
    H               -2.624619416009340     1.454502581909109    -3.212515098443295
    C                0.616390583990660    -0.378327418090891     0.956184901556706
    C                1.187390583990660    -1.699327418090891     1.483184901556706
    C               -0.635609416009340     0.068672581909109     1.704184901556705
    O                1.599390583990660     0.638672581909109     1.106184901556706
    H                0.383390583990660    -0.486327418090891    -0.098815098443294
    H                1.371390583990660    -1.601327418090891     2.555184901556705
    H               -0.896609416009340     1.083672581909109     1.399184901556705
    H               -0.466609416009340     0.051672581909109     2.782184901556705
    H               -1.472609416009340    -0.580327418090891     1.454184901556705
    H                1.763390583990660     0.770672581909109     2.047184901556705
    H                2.126830583990660    -1.932857418090891     0.960764901556706
    H                0.455430583990660    -2.500653418090891     1.303984901556706

}
e, wfn = energy('scf', return_wfn=True)
gdma(wfn)
dmavals = variable('DMA DISTRIBUTED MULTIPOLES')
charges = np.array(dmavals)
print(charges)
np.save('SSI-049VAL-053THR-1-dimer.npy', np.array(charges))--------------------------------------------------------------------------

*** tstart() called on ds3
*** at Tue Apr 28 14:35:54 2020

   => Loading Basis Set <=

    Name: CC-PVDZ
    Role: ORBITAL
    Keyword: BASIS
    atoms 1-2, 9-11  entry C          line   138 file /theoryfs2/ds/metcalf/miniconda2/envs/tf2gpu/share/psi4/basis/cc-pvdz.gbs
    atoms 3-8, 13-20 entry H          line    22 file /theoryfs2/ds/metcalf/miniconda2/envs/tf2gpu/share/psi4/basis/cc-pvdz.gbs
    atoms 12         entry O          line   198 file /theoryfs2/ds/metcalf/miniconda2/envs/tf2gpu/share/psi4/basis/cc-pvdz.gbs

         ---------------------------------------------------------
                                   SCF
               by Justin Turney, Rob Parrish, Andy Simmonett
                          and Daniel G. A. Smith
                              RHF Reference
                        1 Threads,    500 MiB Core
         ---------------------------------------------------------

  ==> Geometry <==

    Molecular point group: c1
    Full point group: C1

    Geometry (in Angstrom), charge = 0, multiplicity = 1:

       Center              X                  Y                   Z               Mass
    ------------   -----------------  -----------------  -----------------  -----------------
         C           -1.300609416009     0.074672581909    -2.166815098443    12.000000000000
         C           -1.555609416009     1.202672581909    -3.150815098443    12.000000000000
         H           -0.241609416009    -0.178327418091    -2.149815098443     1.007825032230
         H           -1.860609416009    -0.810327418091    -2.472815098443     1.007825032230
         H           -1.626609416009     0.368672581909    -1.168815098443     1.007825032230
         H           -1.233609416009     0.856672581909    -4.122815098443     1.007825032230
         H           -0.961749416009     2.079562581909    -2.853525098443     1.007825032230
         H           -2.624619416009     1.454502581909    -3.212515098443     1.007825032230
         C            0.616390583991    -0.378327418091     0.956184901557    12.000000000000
         C            1.187390583991    -1.699327418091     1.483184901557    12.000000000000
         C           -0.635609416009     0.068672581909     1.704184901557    12.000000000000
         O            1.599390583991     0.638672581909     1.106184901557    15.994914619570
         H            0.383390583991    -0.486327418091    -0.098815098443     1.007825032230
         H            1.371390583991    -1.601327418091     2.555184901557     1.007825032230
         H           -0.896609416009     1.083672581909     1.399184901557     1.007825032230
         H           -0.466609416009     0.051672581909     2.782184901557     1.007825032230
         H           -1.472609416009    -0.580327418091     1.454184901557     1.007825032230
         H            1.763390583991     0.770672581909     2.047184901557     1.007825032230
         H            2.126830583991    -1.932857418091     0.960764901557     1.007825032230
         H            0.455430583991    -2.500653418091     1.303984901557     1.007825032230

  Running in c1 symmetry.

  Rotational constants: A =      0.15551  B =      0.03296  C =      0.03249 [cm^-1]
  Rotational constants: A =   4661.97805  B =    988.13818  C =    973.93571 [MHz]
  Nuclear repulsion =  246.532899859248062

  Charge       = 0
  Multiplicity = 1
  Electrons    = 52
  Nalpha       = 26
  Nbeta        = 26

  ==> Algorithm <==

  SCF Algorithm Type is PK.
  DIIS enabled.
  MOM disabled.
  Fractional occupation disabled.
  Guess Type is SAD.
  Energy threshold   = 1.00e-06
  Density threshold  = 1.00e-10
  Integral threshold = 0.00e+00

  ==> Primary Basis <==

  Basis Set: CC-PVDZ
    Blend: CC-PVDZ
    Number of shells: 78
    Number of basis function: 154
    Number of Cartesian functions: 160
    Spherical Harmonics?: true
    Max angular momentum: 2

  ==> Pre-Iterations <==

   -------------------------------------------------------
    Irrep   Nso     Nmo     Nalpha   Nbeta   Ndocc  Nsocc
   -------------------------------------------------------
     A        154     154       0       0       0       0
   -------------------------------------------------------
    Total     154     154      26      26      26       0
   -------------------------------------------------------

  ==> Integral Setup <==

  Using integral reordering PK algorithm.
  Sizing the integral batches needed.
  Building batch lookup table.
   Calculation information:
      Number of atoms:                  20
      Number of AO shells:              78
      Number of primitives:            202
      Number of atomic orbitals:       160
      Number of basis functions:       154

      Integral cutoff                 1.00e-12
      Number of threads:                 1

	Batch   1 pq = [       0,    9405] index = [             0,44231715] size =     44231715
	Batch   2 pq = [    9405,   11935] index = [      44231715,71228080] size =     26996365
  Task number: 7
  Buffer size: 11059200
  Buffer per thread: 2
  We computed 4057126 shell quartets total.
  Whereas there are 4747821 unique shell quartets.

  ==> DiskJK: Disk-Based J/K Matrices <==

    J tasked:                  Yes
    K tasked:                  Yes
    wK tasked:                  No
    Memory [MiB]:              375
    Schwarz Cutoff:          1E-12

    OpenMP threads:              1

  Minimum eigenvalue in the overlap matrix is 4.4169516743E-03.
  Using Symmetric Orthogonalization.

  SCF Guess: Superposition of Atomic Densities via on-the-fly atomic UHF.

  ==> Iterations <==

                        Total Energy        Delta E     RMS |[F,P]|

   @RHF iter SAD:  -271.14343063320064   -2.71143e+02   0.00000e+00
   @RHF iter   1:  -272.14334587613757   -9.99915e-01   3.87441e-03 DIIS
   @RHF iter   2:  -272.32832626053107   -1.84980e-01   1.71963e-03 DIIS
   @RHF iter   3:  -272.36027164801965   -3.19454e-02   3.49776e-04 DIIS
   @RHF iter   4:  -272.36273916600339   -2.46752e-03   1.14704e-04 DIIS
   @RHF iter   5:  -272.36290730380313   -1.68138e-04   2.27101e-05 DIIS
   @RHF iter   6:  -272.36291672037510   -9.41657e-06   5.07036e-06 DIIS
   @RHF iter   7:  -272.36291732010102   -5.99726e-07   1.38450e-06 DIIS
   @RHF iter   8:  -272.36291736658217   -4.64811e-08   4.28436e-07 DIIS
   @RHF iter   9:  -272.36291737226628   -5.68411e-09   1.10257e-07 DIIS
   @RHF iter  10:  -272.36291737261905   -3.52770e-10   2.60246e-08 DIIS
   @RHF iter  11:  -272.36291737263718   -1.81331e-11   6.81103e-09 DIIS
   @RHF iter  12:  -272.36291737263917   -1.98952e-12   1.91763e-09 DIIS
   @RHF iter  13:  -272.36291737263923   -5.68434e-14   4.40825e-10 DIIS
   @RHF iter  14:  -272.36291737263844    7.95808e-13   9.56959e-11 DIIS
  Energy and wave function converged.

  ==> Post-Iterations <==

    Orbital Energies [Eh]
    ---------------------

    Doubly Occupied:

       1A    -20.542296     2A    -11.274828     3A    -11.221565
       4A    -11.219364     5A    -11.217277     6A    -11.216583
       7A     -1.351013     8A     -1.037417     9A     -1.022079
      10A     -0.937688    11A     -0.837117    12A     -0.809238
      13A     -0.653540    14A     -0.641434    15A     -0.601819
      16A     -0.600049    17A     -0.594667    18A     -0.570382
      19A     -0.545379    20A     -0.515199    21A     -0.504650
      22A     -0.501262    23A     -0.485796    24A     -0.485115
      25A     -0.459168    26A     -0.425372

    Virtual:

      27A      0.171389    28A      0.189412    29A      0.212900
      30A      0.224026    31A      0.241556    32A      0.244504
      33A      0.253666    34A      0.264028    35A      0.270697
      36A      0.279892    37A      0.289990    38A      0.298473
      39A      0.314818    40A      0.337270    41A      0.364980
      42A      0.400119    43A      0.420171    44A      0.424087
      45A      0.571501    46A      0.590759    47A      0.601727
      48A      0.606582    49A      0.631873    50A      0.654995
      51A      0.679094    52A      0.691070    53A      0.745004
      54A      0.764168    55A      0.788568    56A      0.790988
      57A      0.811652    58A      0.860227    59A      0.870305
      60A      0.879340    61A      0.891038    62A      0.892626
      63A      0.896794    64A      0.901414    65A      0.904564
      66A      0.914365    67A      0.916841    68A      0.924736
      69A      0.937513    70A      0.947273    71A      0.970417
      72A      0.982349    73A      1.034564    74A      1.121120
      75A      1.127778    76A      1.132741    77A      1.146884
      78A      1.237383    79A      1.257558    80A      1.268056
      81A      1.349649    82A      1.381191    83A      1.392434
      84A      1.476164    85A      1.484083    86A      1.490134
      87A      1.521951    88A      1.538340    89A      1.576106
      90A      1.663392    91A      1.672015    92A      1.679497
      93A      1.683158    94A      1.694417    95A      1.700900
      96A      1.728695    97A      1.821759    98A      1.852519
      99A      1.861099   100A      1.873733   101A      1.883750
     102A      1.896660   103A      1.914711   104A      1.928700
     105A      1.937473   106A      1.949645   107A      1.953938
     108A      1.955853   109A      1.962779   110A      1.977490
     111A      1.983344   112A      1.995721   113A      2.009343
     114A      2.045105   115A      2.086657   116A      2.092053
     117A      2.101024   118A      2.133616   119A      2.185697
     120A      2.200896   121A      2.258040   122A      2.296199
     123A      2.311862   124A      2.317914   125A      2.327634
     126A      2.366794   127A      2.439750   128A      2.459152
     129A      2.492323   130A      2.514669   131A      2.517692
     132A      2.559514   133A      2.562572   134A      2.578702
     135A      2.588232   136A      2.648569   137A      2.753687
     138A      2.769733   139A      2.782099   140A      2.797185
     141A      2.803924   142A      2.817448   143A      2.850099
     144A      2.864833   145A      2.887967   146A      2.898279
     147A      2.954485   148A      2.984371   149A      3.043967
     150A      3.322590   151A      3.416083   152A      3.465472
     153A      3.689176   154A      4.121277

    Final Occupation by Irrep:
              A
    DOCC [    26 ]

  @RHF Final Energy:  -272.36291737263844

   => Energetics <=

    Nuclear Repulsion Energy =            246.5328998592480616
    One-Electron Energy =                -857.2510371595967626
    Two-Electron Energy =                 338.3552199277102090
    Total Energy =                       -272.3629173726384352

Computation Completed

Properties will be evaluated at   0.000000,   0.000000,   0.000000 [a0]

Properties computed using the SCF density matrix

  Nuclear Dipole Moment: [e a0]
     X:    -4.9461      Y:    -1.3326      Z:    -3.3475

  Electronic Dipole Moment: [e a0]
     X:     4.6295      Y:     1.0100      Z:     3.7502

  Dipole Moment: [e a0]
     X:    -0.3166      Y:    -0.3225      Z:     0.4027     Total:     0.6053

  Dipole Moment: [D]
     X:    -0.8046      Y:    -0.8198      Z:     1.0235     Total:     1.5385

*** tstop() called on ds3 at Tue Apr 28 14:36:27 2020
Module time:
	user time   =      23.91 seconds =       0.40 minutes
	system time =      10.24 seconds =       0.17 minutes
	total time  =         33 seconds =       0.55 minutes
Total time:
	user time   =      23.91 seconds =       0.40 minutes
	system time =      10.24 seconds =       0.17 minutes
	total time  =         33 seconds =       0.55 minutes
                                     G D M A

                                 by Anthony Stone

                           version 2.2.06, 22 June 2011

               Distributed Multipoles from Gaussian wavefunctions

Starting at 14:36:27 on 28 Apr 2020

Using SCF density matrix from file ./SSI/SSI-049VAL-053THR-1-dimer.test.2762.fchk

                         Distributed Multipole Analysis

Standard DMA

Positions and radii in angstrom
Multipole moments in atomic units, ea_0^k for rank k

C          x = -1.300609  y =  0.074673  z = -2.166815 angstrom
           Maximum rank =  0   Radius =  0.650 angstrom
                   Q00  =  -0.241516

C          x = -1.555609  y =  1.202673  z = -3.150815 angstrom
           Maximum rank =  0   Radius =  0.650 angstrom
                   Q00  =  -0.227382

H          x = -0.241609  y = -0.178327  z = -2.149815 angstrom
           Maximum rank =  0   Radius =  0.325 angstrom
                   Q00  =   0.079500

H          x = -1.860609  y = -0.810327  z = -2.472815 angstrom
           Maximum rank =  0   Radius =  0.325 angstrom
                   Q00  =   0.076168

H          x = -1.626609  y =  0.368673  z = -1.168815 angstrom
           Maximum rank =  0   Radius =  0.325 angstrom
                   Q00  =   0.076543

H          x = -1.233609  y =  0.856673  z = -4.122815 angstrom
           Maximum rank =  0   Radius =  0.325 angstrom
                   Q00  =   0.078388

H          x = -0.961749  y =  2.079563  z = -2.853525 angstrom
           Maximum rank =  0   Radius =  0.325 angstrom
                   Q00  =   0.080841

H          x = -2.624619  y =  1.454503  z = -3.212515 angstrom
           Maximum rank =  0   Radius =  0.325 angstrom
                   Q00  =   0.078839

C          x =  0.616391  y = -0.378327  z =  0.956185 angstrom
           Maximum rank =  0   Radius =  0.650 angstrom
                   Q00  =   0.078221

C          x =  1.187391  y = -1.699327  z =  1.483185 angstrom
           Maximum rank =  0   Radius =  0.650 angstrom
                   Q00  =  -0.246450

C          x = -0.635609  y =  0.068673  z =  1.704185 angstrom
           Maximum rank =  0   Radius =  0.650 angstrom
                   Q00  =  -0.254308

O          x =  1.599391  y =  0.638673  z =  1.106185 angstrom
           Maximum rank =  0   Radius =  0.650 angstrom
                   Q00  =  -0.518332

H          x =  0.383391  y = -0.486327  z = -0.098815 angstrom
           Maximum rank =  0   Radius =  0.325 angstrom
                   Q00  =   0.062468

H          x =  1.371391  y = -1.601327  z =  2.555185 angstrom
           Maximum rank =  0   Radius =  0.325 angstrom
                   Q00  =   0.075618

H          x = -0.896609  y =  1.083673  z =  1.399185 angstrom
           Maximum rank =  0   Radius =  0.325 angstrom
                   Q00  =   0.093885

H          x = -0.466609  y =  0.051673  z =  2.782185 angstrom
           Maximum rank =  0   Radius =  0.325 angstrom
                   Q00  =   0.075606

H          x = -1.472609  y = -0.580327  z =  1.454185 angstrom
           Maximum rank =  0   Radius =  0.325 angstrom
                   Q00  =   0.081380

H          x =  1.763391  y =  0.770673  z =  2.047185 angstrom
           Maximum rank =  0   Radius =  0.325 angstrom
                   Q00  =   0.375110

H          x =  2.126831  y = -1.932857  z =  0.960765 angstrom
           Maximum rank =  0   Radius =  0.325 angstrom
                   Q00  =   0.097218

H          x =  0.455431  y = -2.500653  z =  1.303985 angstrom
           Maximum rank =  0   Radius =  0.325 angstrom
                   Q00  =   0.078201

Total multipoles referred to origin at
           x =   0.000000,  y =    0.000000,  z =    0.000000 angstrom
                   Q00  =  -0.000000

Finished at 14:36:27 on 28 Apr 2020

  DMA results are available in the Python driver through the
	  variable('DMA DISTRIBUTED MULTIPOLES')
  and
	  variable('DMA TOTAL MULTIPOLES')
  commands.

    Psi4 stopped on: Tuesday, 28 April 2020 02:36PM
    Psi4 wall time for execution: 0:00:32.81

*** Psi4 exiting successfully. Buy a developer a beer!
