                               Psi4 1.3.2 release

  ==> Input File <==

--------------------------------------------------------------------------
import numpy as np
set {scf_type pk
basis cc-pvdz
d_convergence 10
gdma_switch   0
gdma_limit    0
gdma_origin   [ 0.0,  0.0,  0.0 ]
}
molecule test {
    units Angstrom
    0 1
    --
    0 1
    C               -1.868647477062077    -1.274914171807366    -2.232475902315896
    C                0.550352522937923    -1.453914171807366     0.688524097684104
    C               -0.035647477062077    -1.663914171807366    -0.558475902315896
    C               -0.054647477062077    -0.601914171807366     1.609524097684104
    C               -1.234647477062077    -1.041914171807366    -0.893475902315896
    C               -1.238647477062077     0.042085828192634     1.274524097684104
    C               -1.824647477062077    -0.184914171807366     0.029524097684104
    O                0.519352522937923    -0.388914171807366     2.830524097684104
    H                1.479352522937923    -1.949914171807366     0.935524097684104
    H                0.454352522937923    -2.314914171807366    -1.270475902315896
    H                1.303352522937923    -0.932914171807366     2.960524097684104
    H               -1.702647477062077     0.706085828192634     1.988524097684104
    H               -1.070647477062077    -1.299914171807366    -2.969475902315895
    H               -2.512647477062078    -0.431914171807366    -2.483475902315896
    H               -2.743647477062077     0.325085828192634    -0.220475902315896
    H               -2.442693477062078    -2.210614171807366    -2.302795902315895
    C                1.993352522937923     1.697085828192634    -0.941475902315896
    C                0.906352522937923     1.589085828192634    -2.010475902315895
    C                1.719352522937923     2.722085828192634     0.164524097684104
    H                2.121352522937922     0.714085828192634    -0.486475902315896
    H                2.933352522937923     1.960085828192634    -1.431475902315896
    H               -0.021647477062077     1.249085828192634    -1.548475902315896
    H                1.475352522937923     3.690085828192634    -0.270475902315896
    H                0.876352522937923     2.394085828192634     0.774524097684104
    H                1.234302522937923     0.866705828192634    -2.772453902315895
    H                0.710302522937923     2.579428828192634    -2.447265902315896
    H                2.611732522937923     2.865554828192634     0.791484097684104

}
e, wfn = energy('scf', return_wfn=True)
gdma(wfn)
dmavals = variable('DMA DISTRIBUTED MULTIPOLES')
charges = np.array(dmavals)
print(charges)
np.save('SSI-037TYR-050LYS-1-dimer.npy', np.array(charges))--------------------------------------------------------------------------

*** tstart() called on ds3
*** at Tue Apr 28 19:58:25 2020

   => Loading Basis Set <=

    Name: CC-PVDZ
    Role: ORBITAL
    Keyword: BASIS
    atoms 1-7, 17-19  entry C          line   138 file /theoryfs2/ds/metcalf/miniconda2/envs/tf2gpu/share/psi4/basis/cc-pvdz.gbs
    atoms 8           entry O          line   198 file /theoryfs2/ds/metcalf/miniconda2/envs/tf2gpu/share/psi4/basis/cc-pvdz.gbs
    atoms 9-16, 20-27 entry H          line    22 file /theoryfs2/ds/metcalf/miniconda2/envs/tf2gpu/share/psi4/basis/cc-pvdz.gbs

         ---------------------------------------------------------
                                   SCF
               by Justin Turney, Rob Parrish, Andy Simmonett
                          and Daniel G. A. Smith
                              RHF Reference
                        1 Threads,    500 MiB Core
         ---------------------------------------------------------

  ==> Geometry <==

    Molecular point group: c1
    Full point group: C1

    Geometry (in Angstrom), charge = 0, multiplicity = 1:

       Center              X                  Y                   Z               Mass
    ------------   -----------------  -----------------  -----------------  -----------------
         C           -1.868647477062    -1.274914171807    -2.232475902316    12.000000000000
         C            0.550352522938    -1.453914171807     0.688524097684    12.000000000000
         C           -0.035647477062    -1.663914171807    -0.558475902316    12.000000000000
         C           -0.054647477062    -0.601914171807     1.609524097684    12.000000000000
         C           -1.234647477062    -1.041914171807    -0.893475902316    12.000000000000
         C           -1.238647477062     0.042085828193     1.274524097684    12.000000000000
         C           -1.824647477062    -0.184914171807     0.029524097684    12.000000000000
         O            0.519352522938    -0.388914171807     2.830524097684    15.994914619570
         H            1.479352522938    -1.949914171807     0.935524097684     1.007825032230
         H            0.454352522938    -2.314914171807    -1.270475902316     1.007825032230
         H            1.303352522938    -0.932914171807     2.960524097684     1.007825032230
         H           -1.702647477062     0.706085828193     1.988524097684     1.007825032230
         H           -1.070647477062    -1.299914171807    -2.969475902316     1.007825032230
         H           -2.512647477062    -0.431914171807    -2.483475902316     1.007825032230
         H           -2.743647477062     0.325085828193    -0.220475902316     1.007825032230
         H           -2.442693477062    -2.210614171807    -2.302795902316     1.007825032230
         C            1.993352522938     1.697085828193    -0.941475902316    12.000000000000
         C            0.906352522938     1.589085828193    -2.010475902316    12.000000000000
         C            1.719352522938     2.722085828193     0.164524097684    12.000000000000
         H            2.121352522938     0.714085828193    -0.486475902316     1.007825032230
         H            2.933352522938     1.960085828193    -1.431475902316     1.007825032230
         H           -0.021647477062     1.249085828193    -1.548475902316     1.007825032230
         H            1.475352522938     3.690085828193    -0.270475902316     1.007825032230
         H            0.876352522938     2.394085828193     0.774524097684     1.007825032230
         H            1.234302522938     0.866705828193    -2.772453902316     1.007825032230
         H            0.710302522938     2.579428828193    -2.447265902316     1.007825032230
         H            2.611732522938     2.865554828193     0.791484097684     1.007825032230

  Running in c1 symmetry.

  Rotational constants: A =      0.03457  B =      0.02943  C =      0.01978 [cm^-1]
  Rotational constants: A =   1036.31234  B =    882.18379  C =    593.09936 [MHz]
  Nuclear repulsion =  608.280848997470343

  Charge       = 0
  Multiplicity = 1
  Electrons    = 84
  Nalpha       = 42
  Nbeta        = 42

  ==> Algorithm <==

  SCF Algorithm Type is PK.
  DIIS enabled.
  MOM disabled.
  Fractional occupation disabled.
  Guess Type is SAD.
  Energy threshold   = 1.00e-06
  Density threshold  = 1.00e-10
  Integral threshold = 0.00e+00

  ==> Primary Basis <==

  Basis Set: CC-PVDZ
    Blend: CC-PVDZ
    Number of shells: 114
    Number of basis function: 234
    Number of Cartesian functions: 245
    Spherical Harmonics?: true
    Max angular momentum: 2

  ==> Pre-Iterations <==

   -------------------------------------------------------
    Irrep   Nso     Nmo     Nalpha   Nbeta   Ndocc  Nsocc
   -------------------------------------------------------
     A        234     234       0       0       0       0
   -------------------------------------------------------
    Total     234     234      42      42      42       0
   -------------------------------------------------------

  ==> Integral Setup <==

  Using integral reordering PK algorithm.
  Sizing the integral batches needed.
  Building batch lookup table.
   Calculation information:
      Number of atoms:                  27
      Number of AO shells:             114
      Number of primitives:            322
      Number of atomic orbitals:       245
      Number of basis functions:       234

      Integral cutoff                 1.00e-12
      Number of threads:                 1

	Batch   1 pq = [       0,    9405] index = [             0,44231715] size =     44231715
	Batch   2 pq = [    9405,   13301] index = [      44231715,88464951] size =     44233236
	Batch   3 pq = [   13301,   16290] index = [      88464951,132690195] size =     44225244
	Batch   4 pq = [   16290,   18810] index = [     132690195,176917455] size =     44227260
	Batch   5 pq = [   18810,   21030] index = [     176917455,221140965] size =     44223510
	Batch   6 pq = [   21030,   23037] index = [     221140965,265363203] size =     44222238
	Batch   7 pq = [   23037,   24883] index = [     265363203,309594286] size =     44231083
	Batch   8 pq = [   24883,   26601] index = [     309594286,353819901] size =     44225615
	Batch   9 pq = [   26601,   27495] index = [     353819901,378001260] size =     24181359
  Task number: 35
  Buffer size: 11059200
  Buffer per thread: 2
  We computed 23809210 shell quartets total.
  Whereas there are 21487290 unique shell quartets.
    10.81 percent of shell quartets recomputed by reordering.

  ==> DiskJK: Disk-Based J/K Matrices <==

    J tasked:                  Yes
    K tasked:                  Yes
    wK tasked:                  No
    Memory [MiB]:              375
    Schwarz Cutoff:          1E-12

    OpenMP threads:              1

  Minimum eigenvalue in the overlap matrix is 3.1613457783E-04.
  Using Symmetric Orthogonalization.

  SCF Guess: Superposition of Atomic Densities via on-the-fly atomic UHF.

  ==> Iterations <==

                        Total Energy        Delta E     RMS |[F,P]|

   @RHF iter SAD:  -461.72852374987360   -4.61729e+02   0.00000e+00
   @RHF iter   1:  -462.60381608756586   -8.75292e-01   2.83079e-03 DIIS
   @RHF iter   2:  -462.84628815085580   -2.42472e-01   1.22185e-03 DIIS
   @RHF iter   3:  -462.88744068733325   -4.11525e-02   2.71842e-04 DIIS
   @RHF iter   4:  -462.89074694364234   -3.30626e-03   1.05725e-04 DIIS
   @RHF iter   5:  -462.89110597333848   -3.59030e-04   2.13367e-05 DIIS
   @RHF iter   6:  -462.89112646974866   -2.04964e-05   6.58238e-06 DIIS
   @RHF iter   7:  -462.89112854046675   -2.07072e-06   1.79822e-06 DIIS
   @RHF iter   8:  -462.89112875587966   -2.15413e-07   6.50881e-07 DIIS
   @RHF iter   9:  -462.89112878371941   -2.78397e-08   2.54097e-07 DIIS
   @RHF iter  10:  -462.89112878778991   -4.07050e-09   8.62808e-08 DIIS
   @RHF iter  11:  -462.89112878874067   -9.50763e-10   3.92188e-08 DIIS
   @RHF iter  12:  -462.89112878898015   -2.39481e-10   2.13813e-08 DIIS
   @RHF iter  13:  -462.89112878904155   -6.13909e-11   8.06139e-09 DIIS
   @RHF iter  14:  -462.89112878905019   -8.64020e-12   2.02658e-09 DIIS
   @RHF iter  15:  -462.89112878904859    1.59162e-12   7.36859e-10 DIIS
   @RHF iter  16:  -462.89112878904990   -1.30740e-12   2.41708e-10 DIIS
   @RHF iter  17:  -462.89112878905019   -2.84217e-13   1.09347e-10 DIIS
   @RHF iter  18:  -462.89112878904916    1.02318e-12   5.76849e-11 DIIS
  Energy and wave function converged.

  ==> Post-Iterations <==

    Orbital Energies [Eh]
    ---------------------

    Doubly Occupied:

       1A    -20.584587     2A    -11.301118     3A    -11.240333
       4A    -11.238901     5A    -11.236026     6A    -11.233572
       7A    -11.232140     8A    -11.227555     9A    -11.209253
      10A    -11.206471    11A    -11.206328    12A     -1.399788
      13A     -1.154115    14A     -1.041399    15A     -1.041023
      16A     -1.019550    17A     -0.928383    18A     -0.915183
      19A     -0.846533    20A     -0.803806    21A     -0.785331
      22A     -0.733693    23A     -0.669698    24A     -0.643261
      25A     -0.617268    26A     -0.609503    27A     -0.588171
      28A     -0.586230    29A     -0.583649    30A     -0.572142
      31A     -0.569090    32A     -0.541742    33A     -0.527105
      34A     -0.521412    35A     -0.500553    36A     -0.486516
      37A     -0.470852    38A     -0.462865    39A     -0.457910
      40A     -0.453222    41A     -0.339888    42A     -0.303676

    Virtual:

      43A      0.125319    44A      0.152402    45A      0.172191
      46A      0.180599    47A      0.203012    48A      0.208416
      49A      0.216547    50A      0.246139    51A      0.249146
      52A      0.250480    53A      0.258196    54A      0.272575
      55A      0.277449    56A      0.288141    57A      0.294113
      58A      0.311515    59A      0.314101    60A      0.338080
      61A      0.368875    62A      0.372140    63A      0.381794
      64A      0.428946    65A      0.442401    66A      0.456595
      67A      0.485013    68A      0.496516    69A      0.506762
      70A      0.578239    71A      0.588050    72A      0.596707
      73A      0.608770    74A      0.613834    75A      0.634337
      76A      0.654790    77A      0.659583    78A      0.680862
      79A      0.694018    80A      0.712008    81A      0.722639
      82A      0.733053    83A      0.756179    84A      0.770420
      85A      0.771669    86A      0.780107    87A      0.792371
      88A      0.808125    89A      0.831101    90A      0.835395
      91A      0.845278    92A      0.856861    93A      0.862427
      94A      0.869227    95A      0.875889    96A      0.889128
      97A      0.892719    98A      0.897203    99A      0.903938
     100A      0.907196   101A      0.911963   102A      0.924100
     103A      0.938622   104A      0.940768   105A      0.944333
     106A      0.954444   107A      0.966877   108A      0.986071
     109A      0.991634   110A      1.008956   111A      1.020256
     112A      1.025664   113A      1.054685   114A      1.105374
     115A      1.131100   116A      1.133588   117A      1.136692
     118A      1.141754   119A      1.170751   120A      1.200502
     121A      1.217185   122A      1.234648   123A      1.251206
     124A      1.265628   125A      1.287333   126A      1.294256
     127A      1.305611   128A      1.306410   129A      1.323927
     130A      1.359283   131A      1.362435   132A      1.384387
     133A      1.387853   134A      1.472654   135A      1.487247
     136A      1.494894   137A      1.519959   138A      1.525016
     139A      1.546073   140A      1.560115   141A      1.619438
     142A      1.621823   143A      1.639629   144A      1.679524
     145A      1.693437   146A      1.698771   147A      1.709548
     148A      1.711519   149A      1.747986   150A      1.753398
     151A      1.789277   152A      1.807013   153A      1.812495
     154A      1.856811   155A      1.870410   156A      1.878409
     157A      1.885606   158A      1.900173   159A      1.901906
     160A      1.910976   161A      1.918023   162A      1.929987
     163A      1.933985   164A      1.945006   165A      1.956888
     166A      1.965681   167A      1.975106   168A      1.976828
     169A      1.983005   170A      1.992094   171A      1.997677
     172A      2.012494   173A      2.019576   174A      2.023772
     175A      2.043404   176A      2.046341   177A      2.060278
     178A      2.075057   179A      2.090510   180A      2.096642
     181A      2.135655   182A      2.143664   183A      2.148316
     184A      2.165740   185A      2.179452   186A      2.210051
     187A      2.228424   188A      2.259837   189A      2.271611
     190A      2.291753   191A      2.314561   192A      2.323909
     193A      2.328428   194A      2.353556   195A      2.356300
     196A      2.375788   197A      2.425383   198A      2.455348
     199A      2.481267   200A      2.499151   201A      2.509187
     202A      2.539513   203A      2.541537   204A      2.556118
     205A      2.599100   206A      2.608209   207A      2.632365
     208A      2.642316   209A      2.647487   210A      2.755332
     211A      2.765929   212A      2.779897   213A      2.790024
     214A      2.794757   215A      2.805059   216A      2.822179
     217A      2.830272   218A      2.855470   219A      2.910001
     220A      2.939124   221A      2.970540   222A      3.000622
     223A      3.001908   224A      3.021282   225A      3.070133
     226A      3.091159   227A      3.119635   228A      3.249077
     229A      3.284350   230A      3.345659   231A      3.573998
     232A      3.673378   233A      3.972353   234A      4.190177

    Final Occupation by Irrep:
              A
    DOCC [    42 ]

  @RHF Final Energy:  -462.89112878904916

   => Energetics <=

    Nuclear Repulsion Energy =            608.2808489974703434
    One-Electron Energy =               -1834.1642737341662723
    Two-Electron Energy =                 762.9922959476466531
    Total Energy =                       -462.8911287890491622

Computation Completed

Properties will be evaluated at   0.000000,   0.000000,   0.000000 [a0]

Properties computed using the SCF density matrix

  Nuclear Dipole Moment: [e a0]
     X:     4.4141      Y:     7.6949      Z:   -10.0668

  Electronic Dipole Moment: [e a0]
     X:    -4.1700      Y:    -8.1890      Z:     9.8409

  Dipole Moment: [e a0]
     X:     0.2441      Y:    -0.4942      Z:    -0.2258     Total:     0.5956

  Dipole Moment: [D]
     X:     0.6204      Y:    -1.2561      Z:    -0.5740     Total:     1.5140

*** tstop() called on ds3 at Tue Apr 28 20:02:11 2020
Module time:
	user time   =     175.92 seconds =       2.93 minutes
	system time =      56.78 seconds =       0.95 minutes
	total time  =        226 seconds =       3.77 minutes
Total time:
	user time   =     175.92 seconds =       2.93 minutes
	system time =      56.78 seconds =       0.95 minutes
	total time  =        226 seconds =       3.77 minutes
                                     G D M A

                                 by Anthony Stone

                           version 2.2.06, 22 June 2011

               Distributed Multipoles from Gaussian wavefunctions

Starting at 20:2:12 on 28 Apr 2020

Using SCF density matrix from file ./SSI/SSI-037TYR-050LYS-1-dimer.test.1291.fchk

                         Distributed Multipole Analysis

Standard DMA

Positions and radii in angstrom
Multipole moments in atomic units, ea_0^k for rank k

C          x = -1.868647  y = -1.274914  z = -2.232476 angstrom
           Maximum rank =  0   Radius =  0.650 angstrom
                   Q00  =  -0.190110

C          x =  0.550353  y = -1.453914  z =  0.688524 angstrom
           Maximum rank =  0   Radius =  0.650 angstrom
                   Q00  =  -0.198934

C          x = -0.035647  y = -1.663914  z = -0.558476 angstrom
           Maximum rank =  0   Radius =  0.650 angstrom
                   Q00  =  -0.022566

C          x = -0.054647  y = -0.601914  z =  1.609524 angstrom
           Maximum rank =  0   Radius =  0.650 angstrom
                   Q00  =   0.339165

C          x = -1.234647  y = -1.041914  z = -0.893476 angstrom
           Maximum rank =  0   Radius =  0.650 angstrom
                   Q00  =  -0.139254

C          x = -1.238647  y =  0.042086  z =  1.274524 angstrom
           Maximum rank =  0   Radius =  0.650 angstrom
                   Q00  =  -0.123653

C          x = -1.824647  y = -0.184914  z =  0.029524 angstrom
           Maximum rank =  0   Radius =  0.650 angstrom
                   Q00  =   0.035982

O          x =  0.519353  y = -0.388914  z =  2.830524 angstrom
           Maximum rank =  0   Radius =  0.650 angstrom
                   Q00  =  -0.679214

H          x =  1.479353  y = -1.949914  z =  0.935524 angstrom
           Maximum rank =  0   Radius =  0.325 angstrom
                   Q00  =   0.071788

H          x =  0.454353  y = -2.314914  z = -1.270476 angstrom
           Maximum rank =  0   Radius =  0.325 angstrom
                   Q00  =   0.068236

H          x =  1.303353  y = -0.932914  z =  2.960524 angstrom
           Maximum rank =  0   Radius =  0.325 angstrom
                   Q00  =   0.407197

H          x = -1.702647  y =  0.706086  z =  1.988524 angstrom
           Maximum rank =  0   Radius =  0.325 angstrom
                   Q00  =   0.081665

H          x = -1.070647  y = -1.299914  z = -2.969476 angstrom
           Maximum rank =  0   Radius =  0.325 angstrom
                   Q00  =   0.094898

H          x = -2.512647  y = -0.431914  z = -2.483476 angstrom
           Maximum rank =  0   Radius =  0.325 angstrom
                   Q00  =   0.096973

H          x = -2.743647  y =  0.325086  z = -0.220476 angstrom
           Maximum rank =  0   Radius =  0.325 angstrom
                   Q00  =   0.063522

H          x = -2.442693  y = -2.210614  z = -2.302796 angstrom
           Maximum rank =  0   Radius =  0.325 angstrom
                   Q00  =   0.101251

C          x =  1.993353  y =  1.697086  z = -0.941476 angstrom
           Maximum rank =  0   Radius =  0.650 angstrom
                   Q00  =  -0.078336

C          x =  0.906353  y =  1.589086  z = -2.010476 angstrom
           Maximum rank =  0   Radius =  0.650 angstrom
                   Q00  =  -0.245659

C          x =  1.719353  y =  2.722086  z =  0.164524 angstrom
           Maximum rank =  0   Radius =  0.650 angstrom
                   Q00  =  -0.242903

H          x =  2.121353  y =  0.714086  z = -0.486476 angstrom
           Maximum rank =  0   Radius =  0.325 angstrom
                   Q00  =   0.049583

H          x =  2.933353  y =  1.960086  z = -1.431476 angstrom
           Maximum rank =  0   Radius =  0.325 angstrom
                   Q00  =   0.034822

H          x = -0.021647  y =  1.249086  z = -1.548476 angstrom
           Maximum rank =  0   Radius =  0.325 angstrom
                   Q00  =   0.091639

H          x =  1.475353  y =  3.690086  z = -0.270476 angstrom
           Maximum rank =  0   Radius =  0.325 angstrom
                   Q00  =   0.071499

H          x =  0.876353  y =  2.394086  z =  0.774524 angstrom
           Maximum rank =  0   Radius =  0.325 angstrom
                   Q00  =   0.087147

H          x =  1.234303  y =  0.866706  z = -2.772454 angstrom
           Maximum rank =  0   Radius =  0.325 angstrom
                   Q00  =   0.076569

H          x =  0.710303  y =  2.579429  z = -2.447266 angstrom
           Maximum rank =  0   Radius =  0.325 angstrom
                   Q00  =   0.069393

H          x =  2.611733  y =  2.865555  z =  0.791484 angstrom
           Maximum rank =  0   Radius =  0.325 angstrom
                   Q00  =   0.079298

Total multipoles referred to origin at
           x =   0.000000,  y =    0.000000,  z =    0.000000 angstrom
                   Q00  =  -0.000000

Finished at 20:2:12 on 28 Apr 2020

  DMA results are available in the Python driver through the
	  variable('DMA DISTRIBUTED MULTIPOLES')
  and
	  variable('DMA TOTAL MULTIPOLES')
  commands.

    Psi4 stopped on: Tuesday, 28 April 2020 08:02PM
    Psi4 wall time for execution: 0:03:46.81

*** Psi4 exiting successfully. Buy a developer a beer!
