                               Psi4 1.3.2 release

  ==> Input File <==

--------------------------------------------------------------------------
import numpy as np
set {scf_type pk
basis cc-pvdz
d_convergence 10
gdma_switch   0
gdma_limit    0
gdma_origin   [ 0.0,  0.0,  0.0 ]
}
molecule test {
    units Angstrom
    0 1
    --
    0 1
    C                1.394257988283006     1.398871652593190     0.490957594462191
    C                1.671257988283006     2.867871652593190     0.197957594462191
    H                0.973257988283006     0.929871652593190    -0.394042405537809
    H                2.335257988283006     0.901871652593190     0.725957594462191
    H                0.732257988283006     1.300871652593190     1.351957594462192
    H                2.123257988283006     2.971871652593190    -0.790042405537809
    H                2.376257988283006     3.227871652593191     0.947957594462192
    H                0.733419988283006     3.439921652593190     0.254730594462191
    C               -0.960742011716994    -0.882128347406810     0.042957594462191
    C               -1.585742011716994    -2.130128347406810     0.655957594462191
    O               -0.539742011716994    -1.130128347406810    -1.288042405537808
    H               -1.692742011716994    -0.074128347406810     0.041957594462191
    H               -0.116742011716994    -0.601128347406810     0.661957594462191
    H               -2.236742011716994    -1.836128347406810     1.480957594462192
    H                0.155257988283006    -1.815128347406810    -1.271042405537808
    H               -0.800692011716994    -2.812018347406810     1.014729594462191
    H               -2.195977011716994    -2.634748347406810    -0.107569405537809

}
e, wfn = energy('scf', return_wfn=True)
gdma(wfn)
dmavals = variable('DMA DISTRIBUTED MULTIPOLES')
charges = np.array(dmavals)
print(charges)
np.save('SSI-003ILE-065SER-1-dimer.npy', np.array(charges))--------------------------------------------------------------------------

*** tstart() called on ds3
*** at Mon Apr 27 20:12:11 2020

   => Loading Basis Set <=

    Name: CC-PVDZ
    Role: ORBITAL
    Keyword: BASIS
    atoms 1-2, 9-10  entry C          line   138 file /theoryfs2/ds/metcalf/miniconda2/envs/tf2gpu/share/psi4/basis/cc-pvdz.gbs
    atoms 3-8, 12-17 entry H          line    22 file /theoryfs2/ds/metcalf/miniconda2/envs/tf2gpu/share/psi4/basis/cc-pvdz.gbs
    atoms 11         entry O          line   198 file /theoryfs2/ds/metcalf/miniconda2/envs/tf2gpu/share/psi4/basis/cc-pvdz.gbs

         ---------------------------------------------------------
                                   SCF
               by Justin Turney, Rob Parrish, Andy Simmonett
                          and Daniel G. A. Smith
                              RHF Reference
                        1 Threads,    500 MiB Core
         ---------------------------------------------------------

  ==> Geometry <==

    Molecular point group: c1
    Full point group: C1

    Geometry (in Angstrom), charge = 0, multiplicity = 1:

       Center              X                  Y                   Z               Mass
    ------------   -----------------  -----------------  -----------------  -----------------
         C            1.394257988283     1.398871652593     0.490957594462    12.000000000000
         C            1.671257988283     2.867871652593     0.197957594462    12.000000000000
         H            0.973257988283     0.929871652593    -0.394042405538     1.007825032230
         H            2.335257988283     0.901871652593     0.725957594462     1.007825032230
         H            0.732257988283     1.300871652593     1.351957594462     1.007825032230
         H            2.123257988283     2.971871652593    -0.790042405538     1.007825032230
         H            2.376257988283     3.227871652593     0.947957594462     1.007825032230
         H            0.733419988283     3.439921652593     0.254730594462     1.007825032230
         C           -0.960742011717    -0.882128347407     0.042957594462    12.000000000000
         C           -1.585742011717    -2.130128347407     0.655957594462    12.000000000000
         O           -0.539742011717    -1.130128347407    -1.288042405538    15.994914619570
         H           -1.692742011717    -0.074128347407     0.041957594462     1.007825032230
         H           -0.116742011717    -0.601128347407     0.661957594462     1.007825032230
         H           -2.236742011717    -1.836128347407     1.480957594462     1.007825032230
         H            0.155257988283    -1.815128347407    -1.271042405538     1.007825032230
         H           -0.800692011717    -2.812018347407     1.014729594462     1.007825032230
         H           -2.195977011717    -2.634748347407    -0.107569405538     1.007825032230

  Running in c1 symmetry.

  Rotational constants: A =      0.30178  B =      0.04236  C =      0.03924 [cm^-1]
  Rotational constants: A =   9047.07953  B =   1269.86895  C =   1176.41795 [MHz]
  Nuclear repulsion =  181.327102924097971

  Charge       = 0
  Multiplicity = 1
  Electrons    = 44
  Nalpha       = 22
  Nbeta        = 22

  ==> Algorithm <==

  SCF Algorithm Type is PK.
  DIIS enabled.
  MOM disabled.
  Fractional occupation disabled.
  Guess Type is SAD.
  Energy threshold   = 1.00e-06
  Density threshold  = 1.00e-10
  Integral threshold = 0.00e+00

  ==> Primary Basis <==

  Basis Set: CC-PVDZ
    Blend: CC-PVDZ
    Number of shells: 66
    Number of basis function: 130
    Number of Cartesian functions: 135
    Spherical Harmonics?: true
    Max angular momentum: 2

  ==> Pre-Iterations <==

   -------------------------------------------------------
    Irrep   Nso     Nmo     Nalpha   Nbeta   Ndocc  Nsocc
   -------------------------------------------------------
     A        130     130       0       0       0       0
   -------------------------------------------------------
    Total     130     130      22      22      22       0
   -------------------------------------------------------

  ==> Integral Setup <==

  Using integral reordering PK algorithm.
  Sizing the integral batches needed.
  Building batch lookup table.
   Calculation information:
      Number of atoms:                  17
      Number of AO shells:              66
      Number of primitives:            170
      Number of atomic orbitals:       135
      Number of basis functions:       130

      Integral cutoff                 1.00e-12
      Number of threads:                 1

	Batch   1 pq = [       0,    8515] index = [             0,36256870] size =     36256870
  Task number: 4
  Buffer size: 11059200
  Buffer per thread: 2
  We computed 2013155 shell quartets total.
  Whereas there are 2445366 unique shell quartets.

  ==> DiskJK: Disk-Based J/K Matrices <==

    J tasked:                  Yes
    K tasked:                  Yes
    wK tasked:                  No
    Memory [MiB]:              375
    Schwarz Cutoff:          1E-12

    OpenMP threads:              1

  Minimum eigenvalue in the overlap matrix is 5.2474836619E-03.
  Using Symmetric Orthogonalization.

  SCF Guess: Superposition of Atomic Densities via on-the-fly atomic UHF.

  ==> Iterations <==

                        Total Energy        Delta E     RMS |[F,P]|

   @RHF iter SAD:  -232.15029044653159   -2.32150e+02   0.00000e+00
   @RHF iter   1:  -233.13623206363945   -9.85942e-01   4.19837e-03 DIIS
   @RHF iter   2:  -233.28669720403369   -1.50465e-01   1.92506e-03 DIIS
   @RHF iter   3:  -233.31467680429765   -2.79796e-02   3.90492e-04 DIIS
   @RHF iter   4:  -233.31681798314611   -2.14118e-03   1.30059e-04 DIIS
   @RHF iter   5:  -233.31697670476279   -1.58722e-04   2.59418e-05 DIIS
   @RHF iter   6:  -233.31698625049154   -9.54573e-06   4.97655e-06 DIIS
   @RHF iter   7:  -233.31698676670831   -5.16217e-07   1.20990e-06 DIIS
   @RHF iter   8:  -233.31698679801008   -3.13018e-08   4.04523e-07 DIIS
   @RHF iter   9:  -233.31698680129975   -3.28967e-09   1.07085e-07 DIIS
   @RHF iter  10:  -233.31698680156535   -2.65601e-10   2.33290e-08 DIIS
   @RHF iter  11:  -233.31698680157729   -1.19371e-11   6.15749e-09 DIIS
   @RHF iter  12:  -233.31698680157791   -6.25278e-13   1.82188e-09 DIIS
   @RHF iter  13:  -233.31698680157820   -2.84217e-13   5.14066e-10 DIIS
   @RHF iter  14:  -233.31698680157825   -5.68434e-14   1.69541e-10 DIIS
   @RHF iter  15:  -233.31698680157842   -1.70530e-13   4.86833e-11 DIIS
  Energy and wave function converged.

  ==> Post-Iterations <==

    Orbital Energies [Eh]
    ---------------------

    Doubly Occupied:

       1A    -20.551488     2A    -11.270990     3A    -11.220974
       4A    -11.215314     5A    -11.212284     6A     -1.350755
       7A     -1.019394     8A     -1.007804     9A     -0.844795
      10A     -0.829978    11A     -0.683195    12A     -0.622725
      13A     -0.605435    14A     -0.599607    15A     -0.592366
      16A     -0.537130    17A     -0.521806    18A     -0.498282
      19A     -0.485866    20A     -0.481407    21A     -0.471612
      22A     -0.430783

    Virtual:

      23A      0.175466    24A      0.190073    25A      0.211393
      26A      0.234025    27A      0.238575    28A      0.251942
      29A      0.266776    30A      0.269016    31A      0.274937
      32A      0.293696    33A      0.313523    34A      0.329822
      35A      0.388348    36A      0.407849    37A      0.421228
      38A      0.576746    39A      0.601613    40A      0.608589
      41A      0.611698    42A      0.642901    43A      0.671210
      44A      0.690313    45A      0.744844    46A      0.764668
      47A      0.780575    48A      0.844913    49A      0.867201
      50A      0.877262    51A      0.880334    52A      0.891369
      53A      0.895282    54A      0.896460    55A      0.906116
      56A      0.916496    57A      0.919952    58A      0.940378
      59A      0.950288    60A      0.971662    61A      0.992489
      62A      1.102963    63A      1.117665    64A      1.138620
      65A      1.181077    66A      1.190911    67A      1.229403
      68A      1.270422    69A      1.367375    70A      1.396194
      71A      1.487643    72A      1.493905    73A      1.505418
      74A      1.544233    75A      1.568384    76A      1.605402
      77A      1.654488    78A      1.675110    79A      1.681732
      80A      1.698679    81A      1.763266    82A      1.850659
      83A      1.863358    84A      1.866501    85A      1.885493
      86A      1.894783    87A      1.917085    88A      1.928790
      89A      1.937423    90A      1.943190    91A      1.953236
      92A      1.956675    93A      1.973871    94A      1.984089
      95A      2.011830    96A      2.051697    97A      2.079839
      98A      2.114999    99A      2.132802   100A      2.179638
     101A      2.197688   102A      2.263517   103A      2.293969
     104A      2.309819   105A      2.331422   106A      2.361090
     107A      2.421204   108A      2.447868   109A      2.465965
     110A      2.487460   111A      2.538030   112A      2.583744
     113A      2.589856   114A      2.606451   115A      2.755613
     116A      2.770124   117A      2.779957   118A      2.795901
     119A      2.813301   120A      2.835625   121A      2.852021
     122A      2.882681   123A      2.933282   124A      2.966740
     125A      2.978098   126A      3.308980   127A      3.394119
     128A      3.451346   129A      3.645305   130A      4.084871

    Final Occupation by Irrep:
              A
    DOCC [    22 ]

  @RHF Final Energy:  -233.31698680157842

   => Energetics <=

    Nuclear Repulsion Energy =            181.3271029240979715
    One-Electron Energy =                -675.1802036489677903
    Two-Electron Energy =                 260.5361139232913956
    Total Energy =                       -233.3169868015784232

Computation Completed

Properties will be evaluated at   0.000000,   0.000000,   0.000000 [a0]

Properties computed using the SCF density matrix

  Nuclear Dipole Moment: [e a0]
     X:     2.2343      Y:     2.8060      Z:     3.6664

  Electronic Dipole Moment: [e a0]
     X:    -2.0060      Y:    -3.1283      Z:    -3.1406

  Dipole Moment: [e a0]
     X:     0.2283      Y:    -0.3223      Z:     0.5258     Total:     0.6576

  Dipole Moment: [D]
     X:     0.5802      Y:    -0.8191      Z:     1.3364     Total:     1.6714

*** tstop() called on ds3 at Mon Apr 27 20:12:27 2020
Module time:
	user time   =      11.08 seconds =       0.18 minutes
	system time =       5.00 seconds =       0.08 minutes
	total time  =         16 seconds =       0.27 minutes
Total time:
	user time   =      11.08 seconds =       0.18 minutes
	system time =       5.00 seconds =       0.08 minutes
	total time  =         16 seconds =       0.27 minutes
                                     G D M A

                                 by Anthony Stone

                           version 2.2.06, 22 June 2011

               Distributed Multipoles from Gaussian wavefunctions

Starting at 20:12:27 on 27 Apr 2020

Using SCF density matrix from file ./SSI/SSI-003ILE-065SER-1-dimer.test.13784.fchk

                         Distributed Multipole Analysis

Standard DMA

Positions and radii in angstrom
Multipole moments in atomic units, ea_0^k for rank k

C          x =  1.394258  y =  1.398872  z =  0.490958 angstrom
           Maximum rank =  0   Radius =  0.650 angstrom
                   Q00  =  -0.226435

C          x =  1.671258  y =  2.867872  z =  0.197958 angstrom
           Maximum rank =  0   Radius =  0.650 angstrom
                   Q00  =  -0.221214

H          x =  0.973258  y =  0.929872  z = -0.394042 angstrom
           Maximum rank =  0   Radius =  0.325 angstrom
                   Q00  =   0.076005

H          x =  2.335258  y =  0.901872  z =  0.725958 angstrom
           Maximum rank =  0   Radius =  0.325 angstrom
                   Q00  =   0.071696

H          x =  0.732258  y =  1.300872  z =  1.351958 angstrom
           Maximum rank =  0   Radius =  0.325 angstrom
                   Q00  =   0.070035

H          x =  2.123258  y =  2.971872  z = -0.790042 angstrom
           Maximum rank =  0   Radius =  0.325 angstrom
                   Q00  =   0.082209

H          x =  2.376258  y =  3.227872  z =  0.947958 angstrom
           Maximum rank =  0   Radius =  0.325 angstrom
                   Q00  =   0.073553

H          x =  0.733420  y =  3.439922  z =  0.254731 angstrom
           Maximum rank =  0   Radius =  0.325 angstrom
                   Q00  =   0.077582

C          x = -0.960742  y = -0.882128  z =  0.042958 angstrom
           Maximum rank =  0   Radius =  0.650 angstrom
                   Q00  =   0.100756

C          x = -1.585742  y = -2.130128  z =  0.655958 angstrom
           Maximum rank =  0   Radius =  0.650 angstrom
                   Q00  =  -0.255153

O          x = -0.539742  y = -1.130128  z = -1.288042 angstrom
           Maximum rank =  0   Radius =  0.650 angstrom
                   Q00  =  -0.591836

H          x = -1.692742  y = -0.074128  z =  0.041958 angstrom
           Maximum rank =  0   Radius =  0.325 angstrom
                   Q00  =   0.083741

H          x = -0.116742  y = -0.601128  z =  0.661958 angstrom
           Maximum rank =  0   Radius =  0.325 angstrom
                   Q00  =   0.032556

H          x = -2.236742  y = -1.836128  z =  1.480958 angstrom
           Maximum rank =  0   Radius =  0.325 angstrom
                   Q00  =   0.084545

H          x =  0.155258  y = -1.815128  z = -1.271042 angstrom
           Maximum rank =  0   Radius =  0.325 angstrom
                   Q00  =   0.382670

H          x = -0.800692  y = -2.812018  z =  1.014730 angstrom
           Maximum rank =  0   Radius =  0.325 angstrom
                   Q00  =   0.071640

H          x = -2.195977  y = -2.634748  z = -0.107569 angstrom
           Maximum rank =  0   Radius =  0.325 angstrom
                   Q00  =   0.087650

Total multipoles referred to origin at
           x =   0.000000,  y =    0.000000,  z =    0.000000 angstrom
                   Q00  =  -0.000000

Finished at 20:12:27 on 27 Apr 2020

  DMA results are available in the Python driver through the
	  variable('DMA DISTRIBUTED MULTIPOLES')
  and
	  variable('DMA TOTAL MULTIPOLES')
  commands.

    Psi4 stopped on: Monday, 27 April 2020 08:12PM
    Psi4 wall time for execution: 0:00:16.13

*** Psi4 exiting successfully. Buy a developer a beer!
