                               Psi4 1.3.2 release

  ==> Input File <==

--------------------------------------------------------------------------
import numpy as np
set {scf_type pk
basis cc-pvdz
d_convergence 10
gdma_switch   0
gdma_limit    0
gdma_origin   [ 0.0,  0.0,  0.0 ]
}
molecule test {
    units Angstrom
    0 1
    --
    0 1
    C                1.026544699082543    -1.911017925848000     0.711154232563926
    C                0.559544699082543    -3.232017925848000     1.302154232563926
    H                1.885544699082543    -2.074017925848000     0.057154232563926
    H                0.221544699082543    -1.448017925848000     0.142154232563926
    H                1.290544699082543    -1.201017925848000     1.498154232563926
    H               -0.282455300917457    -3.030017925848000     1.966154232563926
    H                1.351444699082543    -3.727937925848000     1.882644232563926
    H                0.215104699082543    -3.888097925848001     0.489184232563926
    C               -1.730455300917457     1.092982074152000    -1.038845767436074
    C               -0.360455300917457     1.362982074152000    -0.456845767436074
    O               -0.248455300917457     1.745982074152000     0.719154232563926
    N                0.684544699082543     1.090982074152000    -1.230845767436074
    H               -2.209455300917457     0.353982074152000    -0.394845767436074
    H               -1.617455300917457     0.649982074152000    -2.025845767436074
    H                1.409544699082543     0.577982074152000    -0.767845767436074
    H                0.541544699082543     0.921982074152000    -2.229845767436073
    H               -2.363225300917457     1.991192074152000    -1.091935767436074

}
e, wfn = energy('scf', return_wfn=True)
gdma(wfn)
dmavals = variable('DMA DISTRIBUTED MULTIPOLES')
charges = np.array(dmavals)
print(charges)
np.save('SSI-018ILE-055ASN-1-dimer.npy', np.array(charges))--------------------------------------------------------------------------

*** tstart() called on ds3
*** at Mon Apr 27 21:43:38 2020

   => Loading Basis Set <=

    Name: CC-PVDZ
    Role: ORBITAL
    Keyword: BASIS
    atoms 1-2, 9-10  entry C          line   138 file /theoryfs2/ds/metcalf/miniconda2/envs/tf2gpu/share/psi4/basis/cc-pvdz.gbs
    atoms 3-8, 13-17 entry H          line    22 file /theoryfs2/ds/metcalf/miniconda2/envs/tf2gpu/share/psi4/basis/cc-pvdz.gbs
    atoms 11         entry O          line   198 file /theoryfs2/ds/metcalf/miniconda2/envs/tf2gpu/share/psi4/basis/cc-pvdz.gbs
    atoms 12         entry N          line   168 file /theoryfs2/ds/metcalf/miniconda2/envs/tf2gpu/share/psi4/basis/cc-pvdz.gbs

         ---------------------------------------------------------
                                   SCF
               by Justin Turney, Rob Parrish, Andy Simmonett
                          and Daniel G. A. Smith
                              RHF Reference
                        1 Threads,    500 MiB Core
         ---------------------------------------------------------

  ==> Geometry <==

    Molecular point group: c1
    Full point group: C1

    Geometry (in Angstrom), charge = 0, multiplicity = 1:

       Center              X                  Y                   Z               Mass
    ------------   -----------------  -----------------  -----------------  -----------------
         C            1.026544699083    -1.911017925848     0.711154232564    12.000000000000
         C            0.559544699083    -3.232017925848     1.302154232564    12.000000000000
         H            1.885544699083    -2.074017925848     0.057154232564     1.007825032230
         H            0.221544699083    -1.448017925848     0.142154232564     1.007825032230
         H            1.290544699083    -1.201017925848     1.498154232564     1.007825032230
         H           -0.282455300917    -3.030017925848     1.966154232564     1.007825032230
         H            1.351444699083    -3.727937925848     1.882644232564     1.007825032230
         H            0.215104699083    -3.888097925848     0.489184232564     1.007825032230
         C           -1.730455300917     1.092982074152    -1.038845767436    12.000000000000
         C           -0.360455300917     1.362982074152    -0.456845767436    12.000000000000
         O           -0.248455300917     1.745982074152     0.719154232564    15.994914619570
         N            0.684544699083     1.090982074152    -1.230845767436    14.003074004430
         H           -2.209455300917     0.353982074152    -0.394845767436     1.007825032230
         H           -1.617455300917     0.649982074152    -2.025845767436     1.007825032230
         H            1.409544699083     0.577982074152    -0.767845767436     1.007825032230
         H            0.541544699083     0.921982074152    -2.229845767436     1.007825032230
         H           -2.363225300917     1.991192074152    -1.091935767436     1.007825032230

  Running in c1 symmetry.

  Rotational constants: A =      0.16100  B =      0.03799  C =      0.03733 [cm^-1]
  Rotational constants: A =   4826.69707  B =   1138.80593  C =   1119.15896 [MHz]
  Nuclear repulsion =  233.306286735694016

  Charge       = 0
  Multiplicity = 1
  Electrons    = 50
  Nalpha       = 25
  Nbeta        = 25

  ==> Algorithm <==

  SCF Algorithm Type is PK.
  DIIS enabled.
  MOM disabled.
  Fractional occupation disabled.
  Guess Type is SAD.
  Energy threshold   = 1.00e-06
  Density threshold  = 1.00e-10
  Integral threshold = 0.00e+00

  ==> Primary Basis <==

  Basis Set: CC-PVDZ
    Blend: CC-PVDZ
    Number of shells: 69
    Number of basis function: 139
    Number of Cartesian functions: 145
    Spherical Harmonics?: true
    Max angular momentum: 2

  ==> Pre-Iterations <==

   -------------------------------------------------------
    Irrep   Nso     Nmo     Nalpha   Nbeta   Ndocc  Nsocc
   -------------------------------------------------------
     A        139     139       0       0       0       0
   -------------------------------------------------------
    Total     139     139      25      25      25       0
   -------------------------------------------------------

  ==> Integral Setup <==

  Using integral reordering PK algorithm.
  Sizing the integral batches needed.
  Building batch lookup table.
   Calculation information:
      Number of atoms:                  17
      Number of AO shells:              69
      Number of primitives:            187
      Number of atomic orbitals:       145
      Number of basis functions:       139

      Integral cutoff                 1.00e-12
      Number of threads:                 1

	Batch   1 pq = [       0,    9730] index = [             0,47341315] size =     47341315
  Task number: 5
  Buffer size: 11059200
  Buffer per thread: 2
  We computed 2513936 shell quartets total.
  Whereas there are 2917320 unique shell quartets.

  ==> DiskJK: Disk-Based J/K Matrices <==

    J tasked:                  Yes
    K tasked:                  Yes
    wK tasked:                  No
    Memory [MiB]:              375
    Schwarz Cutoff:          1E-12

    OpenMP threads:              1

  Minimum eigenvalue in the overlap matrix is 4.3327118120E-03.
  Using Symmetric Orthogonalization.

  SCF Guess: Superposition of Atomic Densities via on-the-fly atomic UHF.

  ==> Iterations <==

                        Total Energy        Delta E     RMS |[F,P]|

   @RHF iter SAD:  -285.93378111535503   -2.85934e+02   0.00000e+00
   @RHF iter   1:  -286.97939670512710   -1.04562e+00   4.67616e-03 DIIS
   @RHF iter   2:  -287.15603578018539   -1.76639e-01   2.68227e-03 DIIS
   @RHF iter   3:  -287.20918935652310   -5.31536e-02   5.59996e-04 DIIS
   @RHF iter   4:  -287.21282432822125   -3.63497e-03   2.28067e-04 DIIS
   @RHF iter   5:  -287.21349252962438   -6.68201e-04   3.67725e-05 DIIS
   @RHF iter   6:  -287.21352862178264   -3.60922e-05   1.70032e-05 DIIS
   @RHF iter   7:  -287.21353474062647   -6.11884e-06   7.01380e-06 DIIS
   @RHF iter   8:  -287.21353616885648   -1.42823e-06   2.41169e-06 DIIS
   @RHF iter   9:  -287.21353634673414   -1.77878e-07   6.24143e-07 DIIS
   @RHF iter  10:  -287.21353635574354   -9.00940e-09   2.00556e-07 DIIS
   @RHF iter  11:  -287.21353635679361   -1.05007e-09   4.78373e-08 DIIS
   @RHF iter  12:  -287.21353635686802   -7.44080e-11   1.44226e-08 DIIS
   @RHF iter  13:  -287.21353635687626   -8.24230e-12   5.64510e-09 DIIS
   @RHF iter  14:  -287.21353635688001   -3.75167e-12   2.15828e-09 DIIS
   @RHF iter  15:  -287.21353635687956    4.54747e-13   8.79857e-10 DIIS
   @RHF iter  16:  -287.21353635687956    0.00000e+00   2.20915e-10 DIIS
   @RHF iter  17:  -287.21353635688007   -5.11591e-13   6.89331e-11 DIIS
  Energy and wave function converged.

  ==> Post-Iterations <==

    Orbital Energies [Eh]
    ---------------------

    Doubly Occupied:

       1A    -20.508943     2A    -15.585378     3A    -11.349691
       4A    -11.242342     5A    -11.222975     6A    -11.222014
       7A     -1.362104     8A     -1.218606     9A     -1.024593
      10A     -1.000371    11A     -0.841771    12A     -0.794188
      13A     -0.722714    14A     -0.656159    15A     -0.616227
      16A     -0.603819    17A     -0.600120    18A     -0.572421
      19A     -0.560632    20A     -0.512009    21A     -0.503297
      22A     -0.489613    23A     -0.487539    24A     -0.413081
      25A     -0.404117

    Virtual:

      26A      0.153107    27A      0.178335    28A      0.187286
      29A      0.208393    30A      0.219304    31A      0.252785
      32A      0.255043    33A      0.268285    34A      0.271238
      35A      0.283714    36A      0.298511    37A      0.315463
      38A      0.381017    39A      0.409347    40A      0.466368
      41A      0.577924    42A      0.586663    43A      0.598801
      44A      0.630296    45A      0.634583    46A      0.657924
      47A      0.678641    48A      0.690810    49A      0.702267
      50A      0.706580    51A      0.761271    52A      0.825528
      53A      0.832085    54A      0.846348    55A      0.860220
      56A      0.885630    57A      0.889185    58A      0.893173
      59A      0.899739    60A      0.904556    61A      0.914106
      62A      0.918222    63A      0.936018    64A      0.992329
      65A      1.011476    66A      1.039084    67A      1.077598
      68A      1.106915    69A      1.121177    70A      1.130391
      71A      1.149420    72A      1.230020    73A      1.276469
      74A      1.367595    75A      1.372076    76A      1.390267
      77A      1.421192    78A      1.444318    79A      1.472471
      80A      1.481597    81A      1.535058    82A      1.588948
      83A      1.617060    84A      1.661720    85A      1.677086
      86A      1.691070    87A      1.703842    88A      1.808321
      89A      1.839425    90A      1.857814    91A      1.867388
      92A      1.888135    93A      1.902009    94A      1.906339
      95A      1.917699    96A      1.937798    97A      1.946406
      98A      1.955473    99A      1.963602   100A      1.974764
     101A      1.983009   102A      2.021498   103A      2.045349
     104A      2.081570   105A      2.098229   106A      2.116638
     107A      2.143905   108A      2.226135   109A      2.304246
     110A      2.312583   111A      2.317492   112A      2.398115
     113A      2.406472   114A      2.441191   115A      2.455103
     116A      2.464211   117A      2.511541   118A      2.546001
     119A      2.554475   120A      2.572567   121A      2.701879
     122A      2.755843   123A      2.761964   124A      2.783972
     125A      2.796655   126A      2.802184   127A      2.847679
     128A      2.862671   129A      2.929409   130A      2.948657
     131A      2.964586   132A      2.996183   133A      3.076664
     134A      3.133039   135A      3.210232   136A      3.422695
     137A      3.534877   138A      3.836579   139A      3.875227

    Final Occupation by Irrep:
              A
    DOCC [    25 ]

  @RHF Final Energy:  -287.21353635688007

   => Energetics <=

    Nuclear Repulsion Energy =            233.3062867356940160
    One-Electron Energy =                -852.0101991726224924
    Two-Electron Energy =                 331.4903760800484065
    Total Energy =                       -287.2135363568800699

Computation Completed

Properties will be evaluated at   0.000000,   0.000000,   0.000000 [a0]

Properties computed using the SCF density matrix

  Nuclear Dipole Moment: [e a0]
     X:     0.4118      Y:   -10.1888      Z:    -0.4381

  Electronic Dipole Moment: [e a0]
     X:    -0.4412      Y:     9.3504      Z:    -1.0231

  Dipole Moment: [e a0]
     X:    -0.0294      Y:    -0.8384      Z:    -1.4612     Total:     1.6849

  Dipole Moment: [D]
     X:    -0.0748      Y:    -2.1311      Z:    -3.7140     Total:     4.2827

*** tstop() called on ds3 at Mon Apr 27 21:44:01 2020
Module time:
	user time   =      16.05 seconds =       0.27 minutes
	system time =       7.10 seconds =       0.12 minutes
	total time  =         23 seconds =       0.38 minutes
Total time:
	user time   =      16.05 seconds =       0.27 minutes
	system time =       7.10 seconds =       0.12 minutes
	total time  =         23 seconds =       0.38 minutes
                                     G D M A

                                 by Anthony Stone

                           version 2.2.06, 22 June 2011

               Distributed Multipoles from Gaussian wavefunctions

Starting at 21:44:1 on 27 Apr 2020

Using SCF density matrix from file ./SSI/SSI-018ILE-055ASN-1-dimer.test.8153.fchk

                         Distributed Multipole Analysis

Standard DMA

Positions and radii in angstrom
Multipole moments in atomic units, ea_0^k for rank k

C          x =  1.026545  y = -1.911018  z =  0.711154 angstrom
           Maximum rank =  0   Radius =  0.650 angstrom
                   Q00  =  -0.251644

C          x =  0.559545  y = -3.232018  z =  1.302154 angstrom
           Maximum rank =  0   Radius =  0.650 angstrom
                   Q00  =  -0.224645

H          x =  1.885545  y = -2.074018  z =  0.057154 angstrom
           Maximum rank =  0   Radius =  0.325 angstrom
                   Q00  =   0.069766

H          x =  0.221545  y = -1.448018  z =  0.142154 angstrom
           Maximum rank =  0   Radius =  0.325 angstrom
                   Q00  =   0.066926

H          x =  1.290545  y = -1.201018  z =  1.498154 angstrom
           Maximum rank =  0   Radius =  0.325 angstrom
                   Q00  =   0.093097

H          x = -0.282455  y = -3.030018  z =  1.966154 angstrom
           Maximum rank =  0   Radius =  0.325 angstrom
                   Q00  =   0.083298

H          x =  1.351445  y = -3.727938  z =  1.882644 angstrom
           Maximum rank =  0   Radius =  0.325 angstrom
                   Q00  =   0.083907

H          x =  0.215105  y = -3.888098  z =  0.489184 angstrom
           Maximum rank =  0   Radius =  0.325 angstrom
                   Q00  =   0.074434

C          x = -1.730455  y =  1.092982  z = -1.038846 angstrom
           Maximum rank =  0   Radius =  0.650 angstrom
                   Q00  =  -0.266698

C          x = -0.360455  y =  1.362982  z = -0.456846 angstrom
           Maximum rank =  0   Radius =  0.650 angstrom
                   Q00  =   0.796784

O          x = -0.248455  y =  1.745982  z =  0.719154 angstrom
           Maximum rank =  0   Radius =  0.650 angstrom
                   Q00  =  -0.765468

N          x =  0.684545  y =  1.090982  z = -1.230846 angstrom
           Maximum rank =  0   Radius =  0.650 angstrom
                   Q00  =  -0.514464

H          x = -2.209455  y =  0.353982  z = -0.394846 angstrom
           Maximum rank =  0   Radius =  0.325 angstrom
                   Q00  =   0.135727

H          x = -1.617455  y =  0.649982  z = -2.025846 angstrom
           Maximum rank =  0   Radius =  0.325 angstrom
                   Q00  =   0.069378

H          x =  1.409545  y =  0.577982  z = -0.767846 angstrom
           Maximum rank =  0   Radius =  0.325 angstrom
                   Q00  =   0.219511

H          x =  0.541545  y =  0.921982  z = -2.229846 angstrom
           Maximum rank =  0   Radius =  0.325 angstrom
                   Q00  =   0.198958

H          x = -2.363225  y =  1.991192  z = -1.091936 angstrom
           Maximum rank =  0   Radius =  0.325 angstrom
                   Q00  =   0.131132

Total multipoles referred to origin at
           x =   0.000000,  y =    0.000000,  z =    0.000000 angstrom
                   Q00  =  -0.000000

Finished at 21:44:1 on 27 Apr 2020

  DMA results are available in the Python driver through the
	  variable('DMA DISTRIBUTED MULTIPOLES')
  and
	  variable('DMA TOTAL MULTIPOLES')
  commands.

    Psi4 stopped on: Monday, 27 April 2020 09:44PM
    Psi4 wall time for execution: 0:00:23.04

*** Psi4 exiting successfully. Buy a developer a beer!
