                               Psi4 1.3.2 release

  ==> Input File <==

--------------------------------------------------------------------------
import numpy as np
set {scf_type pk
basis cc-pvdz
d_convergence 10
gdma_switch   0
gdma_limit    0
gdma_origin   [ 0.0,  0.0,  0.0 ]
}
molecule test {
    units Angstrom
    0 1
    --
    0 1
    C                0.426632738449738     4.292825190938653    -0.018658466833099
    C                1.148632738449738     1.873825190938654     0.124341533166901
    C                1.111632738449738     3.070825190938654    -0.600658466833099
    C                1.766632738449738     0.734825190938654    -0.396658466833099
    C                2.323632738449738     0.767825190938654    -1.665658466833099
    C                1.685632738449738     3.093825190938654    -1.875658466833099
    C                2.295632738449738     1.949825190938654    -2.399658466833099
    O                2.916632738449738    -0.357174809061346    -2.170658466833099
    H                0.702632738449738     1.831825190938654     1.109341533166901
    H                1.787632738449738    -0.180174809061346     0.176341533166901
    H               -0.214367261550262     3.964825190938654     0.799341533166901
    H               -0.230367261550262     4.723825190938654    -0.775658466833099
    H                1.665632738449738     4.005825190938654    -2.455658466833099
    H                2.913632738449738    -1.083174809061346    -1.537658466833099
    H                2.759632738449738     1.968825190938654    -3.372658466833099
    H                1.106912738449738     5.068135190938654     0.363595533166901
    C               -2.482367261550262     0.797825190938654     2.052341533166901
    C               -0.771367261550262    -1.004174809061346     1.627341533166901
    C               -2.093367261550262    -0.576174809061346     1.560341533166901
    C               -0.412367261550262    -2.291174809061346     1.186341533166901
    C               -1.386367261550262    -3.151174809061346     0.699341533166901
    C               -3.063367261550262    -1.458174809061346     1.078341533166901
    C               -2.714367261550262    -2.739174809061346     0.636341533166901
    O               -1.023367261550262    -4.402174809061346     0.309341533166901
    H               -0.011367261550262    -0.338174809061346     2.010341533166901
    H                0.618632738449738    -2.612174809061346     1.236341533166901
    H               -3.558367261550262     0.936825190938654     1.933341533166901
    H               -1.971367261550262     1.538825190938654     1.437341533166901
    H               -4.098367261550262    -1.146174809061346     1.047341533166901
    H               -0.072367261550262    -4.537174809061346     0.300341533166901
    H               -3.460367261550262    -3.423174809061346     0.260341533166901
    H               -2.205297261550262     0.976555190938654     3.101763533166901

}
e, wfn = energy('scf', return_wfn=True)
gdma(wfn)
dmavals = variable('DMA DISTRIBUTED MULTIPOLES')
charges = np.array(dmavals)
print(charges)
np.save('SSI-010TYR-163TYR-1-dimer.npy', np.array(charges))--------------------------------------------------------------------------

*** tstart() called on ds3
*** at Mon Apr 27 22:23:25 2020

   => Loading Basis Set <=

    Name: CC-PVDZ
    Role: ORBITAL
    Keyword: BASIS
    atoms 1-7, 17-23  entry C          line   138 file /theoryfs2/ds/metcalf/miniconda2/envs/tf2gpu/share/psi4/basis/cc-pvdz.gbs
    atoms 8, 24       entry O          line   198 file /theoryfs2/ds/metcalf/miniconda2/envs/tf2gpu/share/psi4/basis/cc-pvdz.gbs
    atoms 9-16, 25-32 entry H          line    22 file /theoryfs2/ds/metcalf/miniconda2/envs/tf2gpu/share/psi4/basis/cc-pvdz.gbs

         ---------------------------------------------------------
                                   SCF
               by Justin Turney, Rob Parrish, Andy Simmonett
                          and Daniel G. A. Smith
                              RHF Reference
                        1 Threads,    500 MiB Core
         ---------------------------------------------------------

  ==> Geometry <==

    Molecular point group: c1
    Full point group: C1

    Geometry (in Angstrom), charge = 0, multiplicity = 1:

       Center              X                  Y                   Z               Mass
    ------------   -----------------  -----------------  -----------------  -----------------
         C            0.426632738450     4.292825190939    -0.018658466833    12.000000000000
         C            1.148632738450     1.873825190939     0.124341533167    12.000000000000
         C            1.111632738450     3.070825190939    -0.600658466833    12.000000000000
         C            1.766632738450     0.734825190939    -0.396658466833    12.000000000000
         C            2.323632738450     0.767825190939    -1.665658466833    12.000000000000
         C            1.685632738450     3.093825190939    -1.875658466833    12.000000000000
         C            2.295632738450     1.949825190939    -2.399658466833    12.000000000000
         O            2.916632738450    -0.357174809061    -2.170658466833    15.994914619570
         H            0.702632738450     1.831825190939     1.109341533167     1.007825032230
         H            1.787632738450    -0.180174809061     0.176341533167     1.007825032230
         H           -0.214367261550     3.964825190939     0.799341533167     1.007825032230
         H           -0.230367261550     4.723825190939    -0.775658466833     1.007825032230
         H            1.665632738450     4.005825190939    -2.455658466833     1.007825032230
         H            2.913632738450    -1.083174809061    -1.537658466833     1.007825032230
         H            2.759632738450     1.968825190939    -3.372658466833     1.007825032230
         H            1.106912738450     5.068135190939     0.363595533167     1.007825032230
         C           -2.482367261550     0.797825190939     2.052341533167    12.000000000000
         C           -0.771367261550    -1.004174809061     1.627341533167    12.000000000000
         C           -2.093367261550    -0.576174809061     1.560341533167    12.000000000000
         C           -0.412367261550    -2.291174809061     1.186341533167    12.000000000000
         C           -1.386367261550    -3.151174809061     0.699341533167    12.000000000000
         C           -3.063367261550    -1.458174809061     1.078341533167    12.000000000000
         C           -2.714367261550    -2.739174809061     0.636341533167    12.000000000000
         O           -1.023367261550    -4.402174809061     0.309341533167    15.994914619570
         H           -0.011367261550    -0.338174809061     2.010341533167     1.007825032230
         H            0.618632738450    -2.612174809061     1.236341533167     1.007825032230
         H           -3.558367261550     0.936825190939     1.933341533167     1.007825032230
         H           -1.971367261550     1.538825190939     1.437341533167     1.007825032230
         H           -4.098367261550    -1.146174809061     1.047341533167     1.007825032230
         H           -0.072367261550    -4.537174809061     0.300341533167     1.007825032230
         H           -3.460367261550    -3.423174809061     0.260341533167     1.007825032230
         H           -2.205297261550     0.976555190939     3.101763533167     1.007825032230

  Running in c1 symmetry.

  Rotational constants: A =      0.02348  B =      0.00875  C =      0.00679 [cm^-1]
  Rotational constants: A =    704.04777  B =    262.32501  C =    203.47967 [MHz]
  Nuclear repulsion =  986.231267953000611

  Charge       = 0
  Multiplicity = 1
  Electrons    = 116
  Nalpha       = 58
  Nbeta        = 58

  ==> Algorithm <==

  SCF Algorithm Type is PK.
  DIIS enabled.
  MOM disabled.
  Fractional occupation disabled.
  Guess Type is SAD.
  Energy threshold   = 1.00e-06
  Density threshold  = 1.00e-10
  Integral threshold = 0.00e+00

  ==> Primary Basis <==

  Basis Set: CC-PVDZ
    Blend: CC-PVDZ
    Number of shells: 144
    Number of basis function: 304
    Number of Cartesian functions: 320
    Spherical Harmonics?: true
    Max angular momentum: 2

  ==> Pre-Iterations <==

   -------------------------------------------------------
    Irrep   Nso     Nmo     Nalpha   Nbeta   Ndocc  Nsocc
   -------------------------------------------------------
     A        304     304       0       0       0       0
   -------------------------------------------------------
    Total     304     304      58      58      58       0
   -------------------------------------------------------

  ==> Integral Setup <==

  Using integral reordering PK algorithm.
  Sizing the integral batches needed.
  Building batch lookup table.
   Calculation information:
      Number of atoms:                  32
      Number of AO shells:             144
      Number of primitives:            432
      Number of atomic orbitals:       320
      Number of basis functions:       304

      Integral cutoff                 1.00e-12
      Number of threads:                 1

	Batch   1 pq = [       0,    9405] index = [             0,44231715] size =     44231715
	Batch   2 pq = [    9405,   13301] index = [      44231715,88464951] size =     44233236
	Batch   3 pq = [   13301,   16290] index = [      88464951,132690195] size =     44225244
	Batch   4 pq = [   16290,   18810] index = [     132690195,176917455] size =     44227260
	Batch   5 pq = [   18810,   21030] index = [     176917455,221140965] size =     44223510
	Batch   6 pq = [   21030,   23037] index = [     221140965,265363203] size =     44222238
	Batch   7 pq = [   23037,   24883] index = [     265363203,309594286] size =     44231083
	Batch   8 pq = [   24883,   26601] index = [     309594286,353819901] size =     44225615
	Batch   9 pq = [   26601,   28214] index = [     353819901,398029005] size =     44209104
	Batch  10 pq = [   28214,   29740] index = [     398029005,442248670] size =     44219665
	Batch  11 pq = [   29740,   31191] index = [     442248670,486454836] size =     44206166
	Batch  12 pq = [   31191,   32578] index = [     486454836,530679331] size =     44224495
	Batch  13 pq = [   32578,   33908] index = [     530679331,574893186] size =     44213855
	Batch  14 pq = [   33908,   35188] index = [     574893186,619115266] size =     44222080
	Batch  15 pq = [   35188,   36423] index = [     619115266,663335676] size =     44220410
	Batch  16 pq = [   36423,   37617] index = [     663335676,707538153] size =     44202477
	Batch  17 pq = [   37617,   38775] index = [     707538153,751769700] size =     44231547
	Batch  18 pq = [   38775,   39899] index = [     751769700,795985050] size =     44215350
	Batch  19 pq = [   39899,   40992] index = [     795985050,840192528] size =     44207478
	Batch  20 pq = [   40992,   42057] index = [     840192528,884416653] size =     44224125
	Batch  21 pq = [   42057,   43095] index = [     884416653,928611060] size =     44194407
	Batch  22 pq = [   43095,   44109] index = [     928611060,972823995] size =     44212935
	Batch  23 pq = [   44109,   45100] index = [     972823995,1017027550] size =     44203555
	Batch  24 pq = [   45100,   46070] index = [    1017027550,1061245485] size =     44217935
	Batch  25 pq = [   46070,   46360] index = [    1061245485,1074647980] size =     13402495
  Task number: 98
  Buffer size: 11059200
  Buffer per thread: 2
  We computed 50756486 shell quartets total.
  Whereas there are 54502020 unique shell quartets.

  ==> DiskJK: Disk-Based J/K Matrices <==

    J tasked:                  Yes
    K tasked:                  Yes
    wK tasked:                  No
    Memory [MiB]:              375
    Schwarz Cutoff:          1E-12

    OpenMP threads:              1

  Minimum eigenvalue in the overlap matrix is 3.1911491517E-04.
  Using Symmetric Orthogonalization.

  SCF Guess: Superposition of Atomic Densities via on-the-fly atomic UHF.

  ==> Iterations <==

                        Total Energy        Delta E     RMS |[F,P]|

   @RHF iter SAD:  -687.95023272441460   -6.87950e+02   0.00000e+00
   @RHF iter   1:  -688.89421577552093   -9.43983e-01   2.42093e-03 DIIS
   @RHF iter   2:  -689.19251313099949   -2.98297e-01   1.01916e-03 DIIS
   @RHF iter   3:  -689.23892298661508   -4.64099e-02   2.45305e-04 DIIS
   @RHF iter   4:  -689.24296042816457   -4.03744e-03   1.05837e-04 DIIS
   @RHF iter   5:  -689.24357172505302   -6.11297e-04   1.74108e-05 DIIS
   @RHF iter   6:  -689.24359853696978   -2.68119e-05   6.23576e-06 DIIS
   @RHF iter   7:  -689.24360184225793   -3.30529e-06   2.05851e-06 DIIS
   @RHF iter   8:  -689.24360234468224   -5.02424e-07   7.57480e-07 DIIS
   @RHF iter   9:  -689.24360242555701   -8.08748e-08   3.30346e-07 DIIS
   @RHF iter  10:  -689.24360244329978   -1.77428e-08   1.50661e-07 DIIS
   @RHF iter  11:  -689.24360244946070   -6.16092e-09   6.73674e-08 DIIS
   @RHF iter  12:  -689.24360245051105   -1.05035e-09   2.87588e-08 DIIS
   @RHF iter  13:  -689.24360245065702   -1.45974e-10   7.78624e-09 DIIS
   @RHF iter  14:  -689.24360245067055   -1.35287e-11   2.21442e-09 DIIS
   @RHF iter  15:  -689.24360245066680    3.75167e-12   8.65829e-10 DIIS
   @RHF iter  16:  -689.24360245066873   -1.93268e-12   3.85473e-10 DIIS
   @RHF iter  17:  -689.24360245066850    2.27374e-13   1.87719e-10 DIIS
   @RHF iter  18:  -689.24360245066759    9.09495e-13   8.21788e-11 DIIS
  Energy and wave function converged.

  ==> Post-Iterations <==

    Orbital Energies [Eh]
    ---------------------

    Doubly Occupied:

       1A    -20.584549     2A    -20.583164     3A    -11.302204
       4A    -11.299301     5A    -11.243717     6A    -11.242269
       7A    -11.240789     8A    -11.240328     9A    -11.237884
      10A    -11.236618    11A    -11.236493    12A    -11.233854
      13A    -11.233138    14A    -11.232186    15A    -11.231056
      16A    -11.230397    17A     -1.403445    18A     -1.397637
      19A     -1.152083    20A     -1.149518    21A     -1.040481
      22A     -1.037074    23A     -1.018916    24A     -1.016134
      25A     -0.929348    26A     -0.927455    27A     -0.849282
      28A     -0.844639    29A     -0.805814    30A     -0.801746
      31A     -0.737133    32A     -0.731207    33A     -0.669834
      34A     -0.667870    35A     -0.645939    36A     -0.642279
      37A     -0.613398    38A     -0.606944    39A     -0.592582
      40A     -0.588928    41A     -0.585708    42A     -0.582773
      43A     -0.572484    44A     -0.570307    45A     -0.567955
      46A     -0.567099    47A     -0.530256    48A     -0.526305
      49A     -0.500562    50A     -0.498032    51A     -0.489324
      52A     -0.484603    53A     -0.468723    54A     -0.466685
      55A     -0.342395    56A     -0.334609    57A     -0.305187
      58A     -0.303448

    Virtual:

      59A      0.122702    60A      0.128097    61A      0.148254
      62A      0.155616    63A      0.161278    64A      0.170622
      65A      0.188267    66A      0.199046    67A      0.205531
      68A      0.213907    69A      0.225713    70A      0.246398
      71A      0.253439    72A      0.257774    73A      0.262907
      74A      0.276373    75A      0.290253    76A      0.301892
      77A      0.322274    78A      0.330064    79A      0.362702
      80A      0.373065    81A      0.382733    82A      0.389628
      83A      0.426209    84A      0.430741    85A      0.449512
      86A      0.453751    87A      0.479433    88A      0.488162
      89A      0.494926    90A      0.506985    91A      0.514366
      92A      0.523128    93A      0.606234    94A      0.612876
      95A      0.621945    96A      0.636593    97A      0.645813
      98A      0.654351    99A      0.660583   100A      0.670772
     101A      0.674362   102A      0.686855   103A      0.691851
     104A      0.695572   105A      0.704559   106A      0.710965
     107A      0.717219   108A      0.728540   109A      0.734333
     110A      0.735385   111A      0.738240   112A      0.757057
     113A      0.760897   114A      0.763773   115A      0.772679
     116A      0.778244   117A      0.785170   118A      0.790381
     119A      0.797200   120A      0.808053   121A      0.812889
     122A      0.833478   123A      0.844142   124A      0.850246
     125A      0.854640   126A      0.875678   127A      0.879540
     128A      0.884276   129A      0.889595   130A      0.892367
     131A      0.894555   132A      0.899036   133A      0.911039
     134A      0.917929   135A      0.931694   136A      0.936677
     137A      0.941805   138A      0.945283   139A      0.950594
     140A      0.971212   141A      0.984373   142A      0.996000
     143A      1.014023   144A      1.021828   145A      1.038813
     146A      1.043020   147A      1.063871   148A      1.070768
     149A      1.112480   150A      1.126349   151A      1.131959
     152A      1.142006   153A      1.146855   154A      1.154408
     155A      1.175109   156A      1.183835   157A      1.201071
     158A      1.208045   159A      1.231990   160A      1.238409
     161A      1.244702   162A      1.258148   163A      1.261956
     164A      1.266004   165A      1.281724   166A      1.283666
     167A      1.294872   168A      1.299715   169A      1.310944
     170A      1.313361   171A      1.327127   172A      1.333082
     173A      1.353496   174A      1.357368   175A      1.358417
     176A      1.365203   177A      1.385479   178A      1.397196
     179A      1.481508   180A      1.489370   181A      1.493746
     182A      1.516525   183A      1.528691   184A      1.539839
     185A      1.549246   186A      1.563308   187A      1.612224
     188A      1.621463   189A      1.625873   190A      1.630726
     191A      1.680793   192A      1.684060   193A      1.695431
     194A      1.702969   195A      1.725852   196A      1.731561
     197A      1.744581   198A      1.752373   199A      1.776606
     200A      1.788679   201A      1.798369   202A      1.799855
     203A      1.805351   204A      1.813140   205A      1.857477
     206A      1.871443   207A      1.882956   208A      1.892820
     209A      1.896143   210A      1.898396   211A      1.899894
     212A      1.906689   213A      1.912564   214A      1.916990
     215A      1.921673   216A      1.930937   217A      1.945422
     218A      1.948666   219A      1.952596   220A      1.961554
     221A      1.966302   222A      1.974363   223A      1.990892
     224A      1.996369   225A      2.014449   226A      2.029609
     227A      2.035792   228A      2.042785   229A      2.052532
     230A      2.057533   231A      2.061297   232A      2.065508
     233A      2.079138   234A      2.081825   235A      2.113933
     236A      2.138929   237A      2.140872   238A      2.148898
     239A      2.165019   240A      2.187554   241A      2.198744
     242A      2.205236   243A      2.214233   244A      2.232701
     245A      2.252457   246A      2.255549   247A      2.271845
     248A      2.281667   249A      2.306796   250A      2.312804
     251A      2.340583   252A      2.355392   253A      2.367104
     254A      2.371907   255A      2.387100   256A      2.414757
     257A      2.453382   258A      2.462473   259A      2.476095
     260A      2.479792   261A      2.491917   262A      2.506480
     263A      2.524756   264A      2.527073   265A      2.534492
     266A      2.540740   267A      2.602182   268A      2.615150
     269A      2.642797   270A      2.646167   271A      2.732775
     272A      2.755504   273A      2.769576   274A      2.775579
     275A      2.788260   276A      2.791902   277A      2.806351
     278A      2.820807   279A      2.843508   280A      2.863803
     281A      2.885500   282A      2.897335   283A      2.945503
     284A      2.954585   285A      3.000050   286A      3.003681
     287A      3.077610   288A      3.081446   289A      3.104179
     290A      3.121153   291A      3.246404   292A      3.247887
     293A      3.273950   294A      3.283421   295A      3.344545
     296A      3.352332   297A      3.569145   298A      3.572229
     299A      3.656927   300A      3.659862   301A      3.971401
     302A      3.980334   303A      4.185068   304A      4.187321

    Final Occupation by Irrep:
              A
    DOCC [    58 ]

  @RHF Final Energy:  -689.24360245066759

   => Energetics <=

    Nuclear Repulsion Energy =            986.2312679530006108
    One-Electron Energy =               -2894.6015507566607994
    Two-Electron Energy =                1219.1266803529927074
    Total Energy =                       -689.2436024506675949

Computation Completed

Properties will be evaluated at   0.000000,   0.000000,   0.000000 [a0]

Properties computed using the SCF density matrix

  Nuclear Dipole Moment: [e a0]
     X:    -3.9916      Y:    10.9411      Z:     5.2729

  Electronic Dipole Moment: [e a0]
     X:     4.1977      Y:   -10.7454      Z:    -4.6788

  Dipole Moment: [e a0]
     X:     0.2061      Y:     0.1957      Z:     0.5941     Total:     0.6586

  Dipole Moment: [D]
     X:     0.5239      Y:     0.4973      Z:     1.5101     Total:     1.6740

*** tstop() called on ds3 at Mon Apr 27 22:36:04 2020
Module time:
	user time   =     467.66 seconds =       7.79 minutes
	system time =     195.28 seconds =       3.25 minutes
	total time  =        759 seconds =      12.65 minutes
Total time:
	user time   =     467.66 seconds =       7.79 minutes
	system time =     195.28 seconds =       3.25 minutes
	total time  =        759 seconds =      12.65 minutes
                                     G D M A

                                 by Anthony Stone

                           version 2.2.06, 22 June 2011

               Distributed Multipoles from Gaussian wavefunctions

Starting at 22:36:5 on 27 Apr 2020

Using SCF density matrix from file ./SSI/SSI-010TYR-163TYR-1-dimer.test.10593.fchk

                         Distributed Multipole Analysis

Standard DMA

Positions and radii in angstrom
Multipole moments in atomic units, ea_0^k for rank k

C          x =  0.426633  y =  4.292825  z = -0.018658 angstrom
           Maximum rank =  0   Radius =  0.650 angstrom
                   Q00  =  -0.199921

C          x =  1.148633  y =  1.873825  z =  0.124342 angstrom
           Maximum rank =  0   Radius =  0.650 angstrom
                   Q00  =   0.011822

C          x =  1.111633  y =  3.070825  z = -0.600658 angstrom
           Maximum rank =  0   Radius =  0.650 angstrom
                   Q00  =  -0.140323

C          x =  1.766633  y =  0.734825  z = -0.396658 angstrom
           Maximum rank =  0   Radius =  0.650 angstrom
                   Q00  =  -0.173287

C          x =  2.323633  y =  0.767825  z = -1.665658 angstrom
           Maximum rank =  0   Radius =  0.650 angstrom
                   Q00  =   0.321946

C          x =  1.685633  y =  3.093825  z = -1.875658 angstrom
           Maximum rank =  0   Radius =  0.650 angstrom
                   Q00  =  -0.054340

C          x =  2.295633  y =  1.949825  z = -2.399658 angstrom
           Maximum rank =  0   Radius =  0.650 angstrom
                   Q00  =  -0.059050

O          x =  2.916633  y = -0.357175  z = -2.170658 angstrom
           Maximum rank =  0   Radius =  0.650 angstrom
                   Q00  =  -0.683153

H          x =  0.702633  y =  1.831825  z =  1.109342 angstrom
           Maximum rank =  0   Radius =  0.325 angstrom
                   Q00  =   0.063840

H          x =  1.787633  y = -0.180175  z =  0.176342 angstrom
           Maximum rank =  0   Radius =  0.325 angstrom
                   Q00  =   0.067458

H          x = -0.214367  y =  3.964825  z =  0.799342 angstrom
           Maximum rank =  0   Radius =  0.325 angstrom
                   Q00  =   0.093190

H          x = -0.230367  y =  4.723825  z = -0.775658 angstrom
           Maximum rank =  0   Radius =  0.325 angstrom
                   Q00  =   0.098895

H          x =  1.665633  y =  4.005825  z = -2.455658 angstrom
           Maximum rank =  0   Radius =  0.325 angstrom
                   Q00  =   0.064771

H          x =  2.913633  y = -1.083175  z = -1.537658 angstrom
           Maximum rank =  0   Radius =  0.325 angstrom
                   Q00  =   0.404969

H          x =  2.759633  y =  1.968825  z = -3.372658 angstrom
           Maximum rank =  0   Radius =  0.325 angstrom
                   Q00  =   0.081922

H          x =  1.106913  y =  5.068135  z =  0.363596 angstrom
           Maximum rank =  0   Radius =  0.325 angstrom
                   Q00  =   0.101578

C          x = -2.482367  y =  0.797825  z =  2.052342 angstrom
           Maximum rank =  0   Radius =  0.650 angstrom
                   Q00  =  -0.195296

C          x = -0.771367  y = -1.004175  z =  1.627342 angstrom
           Maximum rank =  0   Radius =  0.650 angstrom
                   Q00  =  -0.069534

C          x = -2.093367  y = -0.576175  z =  1.560342 angstrom
           Maximum rank =  0   Radius =  0.650 angstrom
                   Q00  =  -0.128783

C          x = -0.412367  y = -2.291175  z =  1.186342 angstrom
           Maximum rank =  0   Radius =  0.650 angstrom
                   Q00  =  -0.166356

C          x = -1.386367  y = -3.151175  z =  0.699342 angstrom
           Maximum rank =  0   Radius =  0.650 angstrom
                   Q00  =   0.292682

C          x = -3.063367  y = -1.458175  z =  1.078342 angstrom
           Maximum rank =  0   Radius =  0.650 angstrom
                   Q00  =   0.053619

C          x = -2.714367  y = -2.739175  z =  0.636342 angstrom
           Maximum rank =  0   Radius =  0.650 angstrom
                   Q00  =  -0.121411

O          x = -1.023367  y = -4.402175  z =  0.309342 angstrom
           Maximum rank =  0   Radius =  0.650 angstrom
                   Q00  =  -0.646256

H          x = -0.011367  y = -0.338175  z =  2.010342 angstrom
           Maximum rank =  0   Radius =  0.325 angstrom
                   Q00  =   0.065212

H          x =  0.618633  y = -2.612175  z =  1.236342 angstrom
           Maximum rank =  0   Radius =  0.325 angstrom
                   Q00  =   0.063915

H          x = -3.558367  y =  0.936825  z =  1.933342 angstrom
           Maximum rank =  0   Radius =  0.325 angstrom
                   Q00  =   0.099805

H          x = -1.971367  y =  1.538825  z =  1.437342 angstrom
           Maximum rank =  0   Radius =  0.325 angstrom
                   Q00  =   0.097454

H          x = -4.098367  y = -1.146175  z =  1.047342 angstrom
           Maximum rank =  0   Radius =  0.325 angstrom
                   Q00  =   0.068071

H          x = -0.072367  y = -4.537175  z =  0.300342 angstrom
           Maximum rank =  0   Radius =  0.325 angstrom
                   Q00  =   0.406023

H          x = -3.460367  y = -3.423175  z =  0.260342 angstrom
           Maximum rank =  0   Radius =  0.325 angstrom
                   Q00  =   0.083928

H          x = -2.205297  y =  0.976555  z =  3.101764 angstrom
           Maximum rank =  0   Radius =  0.325 angstrom
                   Q00  =   0.096607

Total multipoles referred to origin at
           x =   0.000000,  y =    0.000000,  z =    0.000000 angstrom
                   Q00  =  -0.000000

Finished at 22:36:5 on 27 Apr 2020

  DMA results are available in the Python driver through the
	  variable('DMA DISTRIBUTED MULTIPOLES')
  and
	  variable('DMA TOTAL MULTIPOLES')
  commands.

    Psi4 stopped on: Monday, 27 April 2020 10:36PM
    Psi4 wall time for execution: 0:12:40.32

*** Psi4 exiting successfully. Buy a developer a beer!
