                               Psi4 1.3.2 release

  ==> Input File <==

--------------------------------------------------------------------------
import numpy as np
set {scf_type pk
basis cc-pvdz
d_convergence 10
gdma_switch   0
gdma_limit    0
gdma_origin   [ 0.0,  0.0,  0.0 ]
}
molecule test {
    units Angstrom
    1 1
    --
    1 1
    C               -3.231308853473898     1.940766862740277    -0.764067858582200
    C                0.469691146526101     1.057766862740277    -0.978067858582200
    C               -0.845308853473899     1.333766862740277    -1.339067858582200
    C                0.839691146526101     1.083766862740277     0.361932141417800
    C               -1.802308853473898     1.635766862740277    -0.371067858582200
    C               -0.104308853473898     1.384766862740277     1.337932141417800
    C               -1.417308853473898     1.660766862740277     0.967932141417800
    O                2.125691146526102     0.813766862740277     0.721932141417800
    H                1.201691146526102     0.826766862740277    -1.741067858582200
    H               -1.128308853473899     1.310766862740276    -2.385067858582201
    H                2.694691146526101     0.673766862740277    -0.044067858582200
    H                0.189691146526102     1.407766862740277     2.377932141417800
    H               -3.232308853473899     2.449766862740276    -1.729067858582200
    H               -3.638308853473898     2.637766862740277    -0.036067858582200
    H               -2.145308853473898     1.908766862740277     1.727932141417799
    H               -3.880482853473898     1.055596862740277    -0.835077858582200
    C                0.918691146526101    -2.610233137259724     0.021932141417800
    C                0.221691146526102    -3.593233137259724     0.953932141417800
    N                1.933691146526102    -3.290233137259724    -0.827067858582200
    H                0.161691146526101    -2.130233137259724    -0.608067858582200
    H                1.394691146526102    -1.831233137259723     0.626932141417800
    H                0.958691146526101    -4.050233137259723     1.616932141417800
    H               -0.244308853473898    -4.369233137259724     0.345932141417800
    H                1.512691146526102    -4.008233137259723    -1.404067858582201
    H                2.391691146526102    -2.634233137259724    -1.448067858582200
    H                2.653691146526102    -3.727233137259724    -0.265067858582200
    H               -0.545750853473899    -3.083773137259724     1.555172141417800

}
e, wfn = energy('scf', return_wfn=True)
gdma(wfn)
dmavals = variable('DMA DISTRIBUTED MULTIPOLES')
charges = np.array(dmavals)
print(charges)
np.save('SSI-064TYR-068LYS-1-dimer.npy', np.array(charges))--------------------------------------------------------------------------

*** tstart() called on ds3
*** at Tue Apr 28 16:55:34 2020

   => Loading Basis Set <=

    Name: CC-PVDZ
    Role: ORBITAL
    Keyword: BASIS
    atoms 1-7, 17-18  entry C          line   138 file /theoryfs2/ds/metcalf/miniconda2/envs/tf2gpu/share/psi4/basis/cc-pvdz.gbs
    atoms 8           entry O          line   198 file /theoryfs2/ds/metcalf/miniconda2/envs/tf2gpu/share/psi4/basis/cc-pvdz.gbs
    atoms 9-16, 20-27 entry H          line    22 file /theoryfs2/ds/metcalf/miniconda2/envs/tf2gpu/share/psi4/basis/cc-pvdz.gbs
    atoms 19          entry N          line   168 file /theoryfs2/ds/metcalf/miniconda2/envs/tf2gpu/share/psi4/basis/cc-pvdz.gbs

         ---------------------------------------------------------
                                   SCF
               by Justin Turney, Rob Parrish, Andy Simmonett
                          and Daniel G. A. Smith
                              RHF Reference
                        1 Threads,    500 MiB Core
         ---------------------------------------------------------

  ==> Geometry <==

    Molecular point group: c1
    Full point group: C1

    Geometry (in Angstrom), charge = 1, multiplicity = 1:

       Center              X                  Y                   Z               Mass
    ------------   -----------------  -----------------  -----------------  -----------------
         C           -3.231308853474     1.940766862740    -0.764067858582    12.000000000000
         C            0.469691146526     1.057766862740    -0.978067858582    12.000000000000
         C           -0.845308853474     1.333766862740    -1.339067858582    12.000000000000
         C            0.839691146526     1.083766862740     0.361932141418    12.000000000000
         C           -1.802308853474     1.635766862740    -0.371067858582    12.000000000000
         C           -0.104308853474     1.384766862740     1.337932141418    12.000000000000
         C           -1.417308853474     1.660766862740     0.967932141418    12.000000000000
         O            2.125691146526     0.813766862740     0.721932141418    15.994914619570
         H            1.201691146526     0.826766862740    -1.741067858582     1.007825032230
         H           -1.128308853474     1.310766862740    -2.385067858582     1.007825032230
         H            2.694691146526     0.673766862740    -0.044067858582     1.007825032230
         H            0.189691146526     1.407766862740     2.377932141418     1.007825032230
         H           -3.232308853474     2.449766862740    -1.729067858582     1.007825032230
         H           -3.638308853474     2.637766862740    -0.036067858582     1.007825032230
         H           -2.145308853474     1.908766862740     1.727932141418     1.007825032230
         H           -3.880482853474     1.055596862740    -0.835077858582     1.007825032230
         C            0.918691146526    -2.610233137260     0.021932141418    12.000000000000
         C            0.221691146526    -3.593233137260     0.953932141418    12.000000000000
         N            1.933691146526    -3.290233137260    -0.827067858582    14.003074004430
         H            0.161691146526    -2.130233137260    -0.608067858582     1.007825032230
         H            1.394691146526    -1.831233137260     0.626932141418     1.007825032230
         H            0.958691146526    -4.050233137260     1.616932141418     1.007825032230
         H           -0.244308853474    -4.369233137260     0.345932141418     1.007825032230
         H            1.512691146526    -4.008233137260    -1.404067858582     1.007825032230
         H            2.391691146526    -2.634233137260    -1.448067858582     1.007825032230
         H            2.653691146526    -3.727233137260    -0.265067858582     1.007825032230
         H           -0.545750853474    -3.083773137260     1.555172141418     1.007825032230

  Running in c1 symmetry.

  Rotational constants: A =      0.04554  B =      0.01677  C =      0.01509 [cm^-1]
  Rotational constants: A =   1365.12054  B =    502.83726  C =    452.31097 [MHz]
  Nuclear repulsion =  596.477034169158742

  Charge       = 1
  Multiplicity = 1
  Electrons    = 84
  Nalpha       = 42
  Nbeta        = 42

  ==> Algorithm <==

  SCF Algorithm Type is PK.
  DIIS enabled.
  MOM disabled.
  Fractional occupation disabled.
  Guess Type is SAD.
  Energy threshold   = 1.00e-06
  Density threshold  = 1.00e-10
  Integral threshold = 0.00e+00

  ==> Primary Basis <==

  Basis Set: CC-PVDZ
    Blend: CC-PVDZ
    Number of shells: 114
    Number of basis function: 234
    Number of Cartesian functions: 245
    Spherical Harmonics?: true
    Max angular momentum: 2

  ==> Pre-Iterations <==

   -------------------------------------------------------
    Irrep   Nso     Nmo     Nalpha   Nbeta   Ndocc  Nsocc
   -------------------------------------------------------
     A        234     234       0       0       0       0
   -------------------------------------------------------
    Total     234     234      42      42      42       0
   -------------------------------------------------------

  ==> Integral Setup <==

  Using integral reordering PK algorithm.
  Sizing the integral batches needed.
  Building batch lookup table.
   Calculation information:
      Number of atoms:                  27
      Number of AO shells:             114
      Number of primitives:            322
      Number of atomic orbitals:       245
      Number of basis functions:       234

      Integral cutoff                 1.00e-12
      Number of threads:                 1

	Batch   1 pq = [       0,    9405] index = [             0,44231715] size =     44231715
	Batch   2 pq = [    9405,   13301] index = [      44231715,88464951] size =     44233236
	Batch   3 pq = [   13301,   16290] index = [      88464951,132690195] size =     44225244
	Batch   4 pq = [   16290,   18810] index = [     132690195,176917455] size =     44227260
	Batch   5 pq = [   18810,   21030] index = [     176917455,221140965] size =     44223510
	Batch   6 pq = [   21030,   23037] index = [     221140965,265363203] size =     44222238
	Batch   7 pq = [   23037,   24883] index = [     265363203,309594286] size =     44231083
	Batch   8 pq = [   24883,   26601] index = [     309594286,353819901] size =     44225615
	Batch   9 pq = [   26601,   27495] index = [     353819901,378001260] size =     24181359
  Task number: 35
  Buffer size: 11059200
  Buffer per thread: 2
  We computed 18987644 shell quartets total.
  Whereas there are 21487290 unique shell quartets.

  ==> DiskJK: Disk-Based J/K Matrices <==

    J tasked:                  Yes
    K tasked:                  Yes
    wK tasked:                  No
    Memory [MiB]:              375
    Schwarz Cutoff:          1E-12

    OpenMP threads:              1

  Minimum eigenvalue in the overlap matrix is 3.1725368778E-04.
  Using Symmetric Orthogonalization.

  SCF Guess: Superposition of Atomic Densities via on-the-fly atomic UHF.

  ==> Iterations <==

                        Total Energy        Delta E     RMS |[F,P]|

   @RHF iter SAD:  -478.51227401367714   -4.78512e+02   0.00000e+00
   @RHF iter   1:  -478.98745537474593   -4.75181e-01   2.72424e-03 DIIS
   @RHF iter   2:  -479.22291259090412   -2.35457e-01   1.09373e-03 DIIS
   @RHF iter   3:  -479.25598944294063   -3.30769e-02   2.95467e-04 DIIS
   @RHF iter   4:  -479.25947857516326   -3.48913e-03   1.15322e-04 DIIS
   @RHF iter   5:  -479.25990466173147   -4.26087e-04   2.13433e-05 DIIS
   @RHF iter   6:  -479.25992801883461   -2.33571e-05   6.63437e-06 DIIS
   @RHF iter   7:  -479.25993011947673   -2.10064e-06   2.18131e-06 DIIS
   @RHF iter   8:  -479.25993039783566   -2.78359e-07   7.40550e-07 DIIS
   @RHF iter   9:  -479.25993043467440   -3.68387e-08   2.74006e-07 DIIS
   @RHF iter  10:  -479.25993044042934   -5.75494e-09   1.12024e-07 DIIS
   @RHF iter  11:  -479.25993044226510   -1.83576e-09   5.32209e-08 DIIS
   @RHF iter  12:  -479.25993044272383   -4.58726e-10   2.47572e-08 DIIS
   @RHF iter  13:  -479.25993044280108   -7.72502e-11   8.38005e-09 DIIS
   @RHF iter  14:  -479.25993044280858   -7.50333e-12   2.25277e-09 DIIS
   @RHF iter  15:  -479.25993044280870   -1.13687e-13   8.35271e-10 DIIS
   @RHF iter  16:  -479.25993044280722    1.47793e-12   2.89654e-10 DIIS
   @RHF iter  17:  -479.25993044281233   -5.11591e-12   1.39478e-10 DIIS
   @RHF iter  18:  -479.25993044281188    4.54747e-13   7.40795e-11 DIIS
  Energy and wave function converged.

  ==> Post-Iterations <==

    Orbital Energies [Eh]
    ---------------------

    Doubly Occupied:

       1A    -20.695769     2A    -15.903318     3A    -11.471406
       4A    -11.401733     5A    -11.400116     6A    -11.337740
       7A    -11.336545     8A    -11.333401     9A    -11.328933
      10A    -11.328623    11A    -11.309798    12A     -1.523736
      13A     -1.511355    14A     -1.249954    15A     -1.214975
      16A     -1.132217    17A     -1.117702    18A     -1.050954
      19A     -1.017654    20A     -0.980172    21A     -0.966870
      22A     -0.944751    23A     -0.901461    24A     -0.856853
      25A     -0.835980    26A     -0.791359    27A     -0.768862
      28A     -0.738813    29A     -0.718288    30A     -0.704935
      31A     -0.701196    32A     -0.687972    33A     -0.685181
      34A     -0.678360    35A     -0.667469    36A     -0.655653
      37A     -0.615557    38A     -0.589838    39A     -0.581313
      40A     -0.567487    41A     -0.438870    42A     -0.402575

    Virtual:

      43A     -0.050785    44A      0.006255    45A      0.019514
      46A      0.031512    47A      0.044367    48A      0.057785
      49A      0.080400    50A      0.092055    51A      0.104555
      52A      0.114469    53A      0.122843    54A      0.129079
      55A      0.130969    56A      0.144595    57A      0.162304
      58A      0.173546    59A      0.176809    60A      0.197527
      61A      0.210807    62A      0.212189    63A      0.277001
      64A      0.281158    65A      0.320791    66A      0.361690
      67A      0.379583    68A      0.385428    69A      0.394930
      70A      0.401580    71A      0.403742    72A      0.429358
      73A      0.438304    74A      0.446602    75A      0.518435
      76A      0.546922    77A      0.563673    78A      0.567015
      79A      0.583002    80A      0.590161    81A      0.599466
      82A      0.612307    83A      0.623871    84A      0.627306
      85A      0.638719    86A      0.640138    87A      0.649965
      88A      0.658917    89A      0.676674    90A      0.679505
      91A      0.693155    92A      0.711920    93A      0.719241
      94A      0.721965    95A      0.734509    96A      0.743080
      97A      0.751139    98A      0.762628    99A      0.772085
     100A      0.776595   101A      0.792057   102A      0.794364
     103A      0.798763   104A      0.803408   105A      0.809060
     106A      0.828095   107A      0.835395   108A      0.847119
     109A      0.848642   110A      0.856440   111A      0.867046
     112A      0.914531   113A      0.920601   114A      0.935977
     115A      0.947747   116A      0.966990   117A      1.024451
     118A      1.035961   119A      1.047083   120A      1.048602
     121A      1.072131   122A      1.103556   123A      1.147856
     124A      1.150156   125A      1.166865   126A      1.189983
     127A      1.201910   128A      1.208284   129A      1.211040
     130A      1.225889   131A      1.253047   132A      1.260869
     133A      1.272227   134A      1.288156   135A      1.317510
     136A      1.378801   137A      1.382762   138A      1.418461
     139A      1.434923   140A      1.457795   141A      1.465322
     142A      1.482987   143A      1.511650   144A      1.515534
     145A      1.525643   146A      1.582405   147A      1.593916
     148A      1.618496   149A      1.640194   150A      1.655907
     151A      1.676412   152A      1.683089   153A      1.686933
     154A      1.694980   155A      1.716017   156A      1.732258
     157A      1.747190   158A      1.764422   159A      1.771984
     160A      1.779187   161A      1.792589   162A      1.796933
     163A      1.806698   164A      1.814672   165A      1.824621
     166A      1.828102   167A      1.844244   168A      1.851735
     169A      1.868806   170A      1.883680   171A      1.888274
     172A      1.894219   173A      1.897451   174A      1.921270
     175A      1.947826   176A      1.950035   177A      1.960353
     178A      1.964518   179A      1.969971   180A      1.973054
     181A      1.999580   182A      2.038024   183A      2.048571
     184A      2.057539   185A      2.066404   186A      2.099492
     187A      2.125167   188A      2.141051   189A      2.163023
     190A      2.164991   191A      2.177084   192A      2.181643
     193A      2.209152   194A      2.224939   195A      2.275262
     196A      2.308866   197A      2.323421   198A      2.336988
     199A      2.349659   200A      2.373905   201A      2.380797
     202A      2.395937   203A      2.438561   204A      2.448035
     205A      2.469209   206A      2.510718   207A      2.528106
     208A      2.541238   209A      2.549268   210A      2.603367
     211A      2.630682   212A      2.655444   213A      2.671030
     214A      2.686256   215A      2.699382   216A      2.707766
     217A      2.745794   218A      2.761017   219A      2.791193
     220A      2.813830   221A      2.866963   222A      2.883704
     223A      2.905811   224A      2.990437   225A      3.014684
     226A      3.098489   227A      3.133029   228A      3.141359
     229A      3.181693   230A      3.236177   231A      3.473289
     232A      3.569334   233A      3.869835   234A      4.082233

    Final Occupation by Irrep:
              A
    DOCC [    42 ]

  @RHF Final Energy:  -479.25993044281188

   => Energetics <=

    Nuclear Repulsion Energy =            596.4770341691587419
    One-Electron Energy =               -1821.1824377518491929
    Two-Electron Energy =                 745.4454731398785725
    Total Energy =                       -479.2599304428118785

Computation Completed

Properties will be evaluated at   0.000000,   0.000000,   0.000000 [a0]

Properties computed using the SCF density matrix

  Nuclear Dipole Moment: [e a0]
     X:    -1.5474      Y:   -12.7018      Z:    -2.0986

  Electronic Dipole Moment: [e a0]
     X:     4.2219      Y:     7.1090      Z:     0.5304

  Dipole Moment: [e a0]
     X:     2.6745      Y:    -5.5929      Z:    -1.5682     Total:     6.3947

  Dipole Moment: [D]
     X:     6.7978      Y:   -14.2156      Z:    -3.9859     Total:    16.2537

*** tstop() called on ds3 at Tue Apr 28 16:58:51 2020
Module time:
	user time   =     131.74 seconds =       2.20 minutes
	system time =      54.73 seconds =       0.91 minutes
	total time  =        197 seconds =       3.28 minutes
Total time:
	user time   =     131.74 seconds =       2.20 minutes
	system time =      54.73 seconds =       0.91 minutes
	total time  =        197 seconds =       3.28 minutes
                                     G D M A

                                 by Anthony Stone

                           version 2.2.06, 22 June 2011

               Distributed Multipoles from Gaussian wavefunctions

Starting at 16:58:51 on 28 Apr 2020

Using SCF density matrix from file ./SSI/SSI-064TYR-068LYS-1-dimer.test.22815.fchk

                         Distributed Multipole Analysis

Standard DMA

Positions and radii in angstrom
Multipole moments in atomic units, ea_0^k for rank k

C          x = -3.231309  y =  1.940767  z = -0.764068 angstrom
           Maximum rank =  0   Radius =  0.650 angstrom
                   Q00  =  -0.190375

C          x =  0.469691  y =  1.057767  z = -0.978068 angstrom
           Maximum rank =  0   Radius =  0.650 angstrom
                   Q00  =  -0.223518

C          x = -0.845309  y =  1.333767  z = -1.339068 angstrom
           Maximum rank =  0   Radius =  0.650 angstrom
                   Q00  =  -0.027676

C          x =  0.839691  y =  1.083767  z =  0.361932 angstrom
           Maximum rank =  0   Radius =  0.650 angstrom
                   Q00  =   0.301803

C          x = -1.802309  y =  1.635767  z = -0.371068 angstrom
           Maximum rank =  0   Radius =  0.650 angstrom
                   Q00  =  -0.134401

C          x = -0.104309  y =  1.384767  z =  1.337932 angstrom
           Maximum rank =  0   Radius =  0.650 angstrom
                   Q00  =  -0.112343

C          x = -1.417309  y =  1.660767  z =  0.967932 angstrom
           Maximum rank =  0   Radius =  0.650 angstrom
                   Q00  =   0.036743

O          x =  2.125691  y =  0.813767  z =  0.721932 angstrom
           Maximum rank =  0   Radius =  0.650 angstrom
                   Q00  =  -0.670519

H          x =  1.201691  y =  0.826767  z = -1.741068 angstrom
           Maximum rank =  0   Radius =  0.325 angstrom
                   Q00  =   0.057446

H          x = -1.128309  y =  1.310767  z = -2.385068 angstrom
           Maximum rank =  0   Radius =  0.325 angstrom
                   Q00  =   0.080143

H          x =  2.694691  y =  0.673767  z = -0.044068 angstrom
           Maximum rank =  0   Radius =  0.325 angstrom
                   Q00  =   0.398053

H          x =  0.189691  y =  1.407767  z =  2.377932 angstrom
           Maximum rank =  0   Radius =  0.325 angstrom
                   Q00  =   0.090972

H          x = -3.232309  y =  2.449767  z = -1.729068 angstrom
           Maximum rank =  0   Radius =  0.325 angstrom
                   Q00  =   0.106399

H          x = -3.638309  y =  2.637767  z = -0.036068 angstrom
           Maximum rank =  0   Radius =  0.325 angstrom
                   Q00  =   0.110495

H          x = -2.145309  y =  1.908767  z =  1.727932 angstrom
           Maximum rank =  0   Radius =  0.325 angstrom
                   Q00  =   0.081814

H          x = -3.880483  y =  1.055597  z = -0.835078 angstrom
           Maximum rank =  0   Radius =  0.325 angstrom
                   Q00  =   0.104316

C          x =  0.918691  y = -2.610233  z =  0.021932 angstrom
           Maximum rank =  0   Radius =  0.650 angstrom
                   Q00  =  -0.033293

C          x =  0.221691  y = -3.593233  z =  0.953932 angstrom
           Maximum rank =  0   Radius =  0.650 angstrom
                   Q00  =  -0.216243

N          x =  1.933691  y = -3.290233  z = -0.827068 angstrom
           Maximum rank =  0   Radius =  0.650 angstrom
                   Q00  =  -0.136689

H          x =  0.161691  y = -2.130233  z = -0.608068 angstrom
           Maximum rank =  0   Radius =  0.325 angstrom
                   Q00  =   0.132613

H          x =  1.394691  y = -1.831233  z =  0.626932 angstrom
           Maximum rank =  0   Radius =  0.325 angstrom
                   Q00  =   0.124159

H          x =  0.958691  y = -4.050233  z =  1.616932 angstrom
           Maximum rank =  0   Radius =  0.325 angstrom
                   Q00  =   0.101635

H          x = -0.244309  y = -4.369233  z =  0.345932 angstrom
           Maximum rank =  0   Radius =  0.325 angstrom
                   Q00  =   0.095959

H          x =  1.512691  y = -4.008233  z = -1.404068 angstrom
           Maximum rank =  0   Radius =  0.325 angstrom
                   Q00  =   0.255397

H          x =  2.391691  y = -2.634233  z = -1.448068 angstrom
           Maximum rank =  0   Radius =  0.325 angstrom
                   Q00  =   0.253479

H          x =  2.653691  y = -3.727233  z = -0.265068 angstrom
           Maximum rank =  0   Radius =  0.325 angstrom
                   Q00  =   0.256161

H          x = -0.545751  y = -3.083773  z =  1.555172 angstrom
           Maximum rank =  0   Radius =  0.325 angstrom
                   Q00  =   0.157471

Total multipoles referred to origin at
           x =   0.000000,  y =    0.000000,  z =    0.000000 angstrom
                   Q00  =   1.000000

Finished at 16:58:51 on 28 Apr 2020

  DMA results are available in the Python driver through the
	  variable('DMA DISTRIBUTED MULTIPOLES')
  and
	  variable('DMA TOTAL MULTIPOLES')
  commands.

    Psi4 stopped on: Tuesday, 28 April 2020 04:58PM
    Psi4 wall time for execution: 0:03:16.99

*** Psi4 exiting successfully. Buy a developer a beer!
