                               Psi4 1.3.2 release

  ==> Input File <==

--------------------------------------------------------------------------
import numpy as np
set {scf_type pk
basis cc-pvdz
d_convergence 10
gdma_switch   0
gdma_limit    0
gdma_origin   [ 0.0,  0.0,  0.0 ]
}
molecule test {
    units Angstrom
    0 1
    --
    0 1
    C               -0.559474718540107    -0.193654861563012     3.361345695515865
    C               -2.112474718540107    -1.360654861563012     0.073345695515865
    C               -1.339474718540107    -1.325654861563012     1.245345695515865
    C               -2.905474718540107    -0.255654861563011    -0.267654304484135
    C               -1.349474718540107    -0.194654861563012     2.079345695515865
    C               -2.921474718540107     0.876345138436988     0.559345695515865
    C               -2.140474718540107     0.908345138436988     1.731345695515865
    H               -2.090474718540107    -2.230654861563012    -0.567654304484135
    H               -0.726474718540107    -2.177654861563012     1.503345695515865
    H               -3.505474718540107    -0.274654861563011    -1.166654304484135
    H               -3.540474718540108     1.722345138436988     0.302345695515865
    H               -0.434474718540107     0.828345138436989     3.722345695515865
    H                0.433525281459893    -0.588654861563012     3.141345695515866
    H               -2.157474718540108     1.783345138436988     2.364345695515865
    H               -1.027094718540107    -0.807804861563011     4.145025695515866
    C                3.450525281459893     1.373345138436988     0.191345695515865
    C                0.692525281459893    -0.650654861563012    -2.420654304484135
    C                1.155525281458893    -1.294654861563012    -1.285654304484135
    C                1.117525281459893     0.642345138436989    -2.716654304484134
    C                2.054525281459893    -0.637654861563012    -0.426654304484135
    C                2.010525281459893     1.298345138436988    -1.861654304484135
    C                2.484525281458893     0.663345138436989    -0.712654304484135
    H               -0.000474718540107    -1.155654861563012    -3.077654304484135
    H                0.816525281459893    -2.294654861563011    -1.053654304484135
    H                0.765525281459893     1.137345138436989    -3.609654304484135
    H                2.408525281458893    -1.140654861563011     0.462345695515865
    H                2.335525281458893     2.301345138436989    -2.102654304484135
    H                3.149525281458893     1.196345138436988     1.224345695515865
    H                3.395525281459892     2.446345138436989     0.008345695515865
    H                4.495705281459893     1.054905138436989     0.064115695515865

}
e, wfn = energy('scf', return_wfn=True)
gdma(wfn)
dmavals = variable('DMA DISTRIBUTED MULTIPOLES')
charges = np.array(dmavals)
print(charges)
np.save('SSI-042PHE-049PHE-1-dimer.npy', np.array(charges))--------------------------------------------------------------------------

*** tstart() called on ds3
*** at Mon Apr 27 22:49:46 2020

   => Loading Basis Set <=

    Name: CC-PVDZ
    Role: ORBITAL
    Keyword: BASIS
    atoms 1-7, 16-22  entry C          line   138 file /theoryfs2/ds/metcalf/miniconda2/envs/tf2gpu/share/psi4/basis/cc-pvdz.gbs
    atoms 8-15, 23-30 entry H          line    22 file /theoryfs2/ds/metcalf/miniconda2/envs/tf2gpu/share/psi4/basis/cc-pvdz.gbs

         ---------------------------------------------------------
                                   SCF
               by Justin Turney, Rob Parrish, Andy Simmonett
                          and Daniel G. A. Smith
                              RHF Reference
                        1 Threads,    500 MiB Core
         ---------------------------------------------------------

  ==> Geometry <==

    Molecular point group: c1
    Full point group: C1

    Geometry (in Angstrom), charge = 0, multiplicity = 1:

       Center              X                  Y                   Z               Mass
    ------------   -----------------  -----------------  -----------------  -----------------
         C           -0.559474718540    -0.193654861563     3.361345695516    12.000000000000
         C           -2.112474718540    -1.360654861563     0.073345695516    12.000000000000
         C           -1.339474718540    -1.325654861563     1.245345695516    12.000000000000
         C           -2.905474718540    -0.255654861563    -0.267654304484    12.000000000000
         C           -1.349474718540    -0.194654861563     2.079345695516    12.000000000000
         C           -2.921474718540     0.876345138437     0.559345695516    12.000000000000
         C           -2.140474718540     0.908345138437     1.731345695516    12.000000000000
         H           -2.090474718540    -2.230654861563    -0.567654304484     1.007825032230
         H           -0.726474718540    -2.177654861563     1.503345695516     1.007825032230
         H           -3.505474718540    -0.274654861563    -1.166654304484     1.007825032230
         H           -3.540474718540     1.722345138437     0.302345695516     1.007825032230
         H           -0.434474718540     0.828345138437     3.722345695516     1.007825032230
         H            0.433525281460    -0.588654861563     3.141345695516     1.007825032230
         H           -2.157474718540     1.783345138437     2.364345695516     1.007825032230
         H           -1.027094718540    -0.807804861563     4.145025695516     1.007825032230
         C            3.450525281460     1.373345138437     0.191345695516    12.000000000000
         C            0.692525281460    -0.650654861563    -2.420654304484    12.000000000000
         C            1.155525281459    -1.294654861563    -1.285654304484    12.000000000000
         C            1.117525281460     0.642345138437    -2.716654304484    12.000000000000
         C            2.054525281460    -0.637654861563    -0.426654304484    12.000000000000
         C            2.010525281460     1.298345138437    -1.861654304484    12.000000000000
         C            2.484525281459     0.663345138437    -0.712654304484    12.000000000000
         H           -0.000474718540    -1.155654861563    -3.077654304484     1.007825032230
         H            0.816525281460    -2.294654861563    -1.053654304484     1.007825032230
         H            0.765525281460     1.137345138437    -3.609654304484     1.007825032230
         H            2.408525281459    -1.140654861563     0.462345695516     1.007825032230
         H            2.335525281459     2.301345138437    -2.102654304484     1.007825032230
         H            3.149525281459     1.196345138437     1.224345695516     1.007825032230
         H            3.395525281460     2.446345138437     0.008345695516     1.007825032230
         H            4.495705281460     1.054905138437     0.064115695516     1.007825032230

  Running in c1 symmetry.

  Rotational constants: A =      0.03098  B =      0.01441  C =      0.01220 [cm^-1]
  Rotational constants: A =    928.74687  B =    431.91342  C =    365.83644 [MHz]
  Nuclear repulsion =  797.021707952110091

  Charge       = 0
  Multiplicity = 1
  Electrons    = 100
  Nalpha       = 50
  Nbeta        = 50

  ==> Algorithm <==

  SCF Algorithm Type is PK.
  DIIS enabled.
  MOM disabled.
  Fractional occupation disabled.
  Guess Type is SAD.
  Energy threshold   = 1.00e-06
  Density threshold  = 1.00e-10
  Integral threshold = 0.00e+00

  ==> Primary Basis <==

  Basis Set: CC-PVDZ
    Blend: CC-PVDZ
    Number of shells: 132
    Number of basis function: 276
    Number of Cartesian functions: 290
    Spherical Harmonics?: true
    Max angular momentum: 2

  ==> Pre-Iterations <==

   -------------------------------------------------------
    Irrep   Nso     Nmo     Nalpha   Nbeta   Ndocc  Nsocc
   -------------------------------------------------------
     A        276     276       0       0       0       0
   -------------------------------------------------------
    Total     276     276      50      50      50       0
   -------------------------------------------------------

  ==> Integral Setup <==

  Using integral reordering PK algorithm.
  Sizing the integral batches needed.
  Building batch lookup table.
   Calculation information:
      Number of atoms:                  30
      Number of AO shells:             132
      Number of primitives:            388
      Number of atomic orbitals:       290
      Number of basis functions:       276

      Integral cutoff                 1.00e-12
      Number of threads:                 1

	Batch   1 pq = [       0,    9405] index = [             0,44231715] size =     44231715
	Batch   2 pq = [    9405,   13301] index = [      44231715,88464951] size =     44233236
	Batch   3 pq = [   13301,   16290] index = [      88464951,132690195] size =     44225244
	Batch   4 pq = [   16290,   18810] index = [     132690195,176917455] size =     44227260
	Batch   5 pq = [   18810,   21030] index = [     176917455,221140965] size =     44223510
	Batch   6 pq = [   21030,   23037] index = [     221140965,265363203] size =     44222238
	Batch   7 pq = [   23037,   24883] index = [     265363203,309594286] size =     44231083
	Batch   8 pq = [   24883,   26601] index = [     309594286,353819901] size =     44225615
	Batch   9 pq = [   26601,   28214] index = [     353819901,398029005] size =     44209104
	Batch  10 pq = [   28214,   29740] index = [     398029005,442248670] size =     44219665
	Batch  11 pq = [   29740,   31191] index = [     442248670,486454836] size =     44206166
	Batch  12 pq = [   31191,   32578] index = [     486454836,530679331] size =     44224495
	Batch  13 pq = [   32578,   33908] index = [     530679331,574893186] size =     44213855
	Batch  14 pq = [   33908,   35188] index = [     574893186,619115266] size =     44222080
	Batch  15 pq = [   35188,   36423] index = [     619115266,663335676] size =     44220410
	Batch  16 pq = [   36423,   37617] index = [     663335676,707538153] size =     44202477
	Batch  17 pq = [   37617,   38226] index = [     707538153,730632651] size =     23094498
  Task number: 67
  Buffer size: 11059200
  Buffer per thread: 2
  We computed 42407572 shell quartets total.
  Whereas there are 38531031 unique shell quartets.
    10.06 percent of shell quartets recomputed by reordering.

  ==> DiskJK: Disk-Based J/K Matrices <==

    J tasked:                  Yes
    K tasked:                  Yes
    wK tasked:                  No
    Memory [MiB]:              375
    Schwarz Cutoff:          1E-12

    OpenMP threads:              1

  Minimum eigenvalue in the overlap matrix is 3.1692353913E-04.
  Using Symmetric Orthogonalization.

  SCF Guess: Superposition of Atomic Densities via on-the-fly atomic UHF.

  ==> Iterations <==

                        Total Energy        Delta E     RMS |[F,P]|

   @RHF iter SAD:  -538.21957340685947   -5.38220e+02   0.00000e+00
   @RHF iter   1:  -539.22517852472743   -1.00561e+00   2.29961e-03 DIIS
   @RHF iter   2:  -539.47473644494050   -2.49558e-01   9.53662e-04 DIIS
   @RHF iter   3:  -539.51256660232502   -3.78302e-02   2.18733e-04 DIIS
   @RHF iter   4:  -539.51577598346364   -3.20938e-03   5.12276e-05 DIIS
   @RHF iter   5:  -539.51590529613884   -1.29313e-04   1.54832e-05 DIIS
   @RHF iter   6:  -539.51591633293617   -1.10368e-05   4.78429e-06 DIIS
   @RHF iter   7:  -539.51591760030351   -1.26737e-06   1.15995e-06 DIIS
   @RHF iter   8:  -539.51591769212575   -9.18222e-08   2.89208e-07 DIIS
   @RHF iter   9:  -539.51591770218954   -1.00638e-08   1.13866e-07 DIIS
   @RHF iter  10:  -539.51591770394373   -1.75419e-09   5.37404e-08 DIIS
   @RHF iter  11:  -539.51591770457435   -6.30621e-10   2.16801e-08 DIIS
   @RHF iter  12:  -539.51591770469770   -1.23350e-10   1.06234e-08 DIIS
   @RHF iter  13:  -539.51591770471543   -1.77351e-11   4.10700e-09 DIIS
   @RHF iter  14:  -539.51591770472203   -6.59384e-12   1.11343e-09 DIIS
   @RHF iter  15:  -539.51591770472146    5.68434e-13   3.93308e-10 DIIS
   @RHF iter  16:  -539.51591770472601   -4.54747e-12   1.49004e-10 DIIS
   @RHF iter  17:  -539.51591770472282    3.18323e-12   7.80030e-11 DIIS
  Energy and wave function converged.

  ==> Post-Iterations <==

    Orbital Energies [Eh]
    ---------------------

    Doubly Occupied:

       1A    -11.239202     2A    -11.237129     3A    -11.235099
       4A    -11.234483     5A    -11.232216     6A    -11.231593
       7A    -11.229983     8A    -11.229579     9A    -11.229465
      10A    -11.228223    11A    -11.227941    12A    -11.226783
      13A    -11.226231    14A    -11.225688    15A     -1.145598
      16A     -1.141591    17A     -1.040926    18A     -1.038206
      19A     -1.004772    20A     -1.002454    21A     -0.927240
      22A     -0.926270    23A     -0.821403    24A     -0.819866
      25A     -0.790108    26A     -0.788332    27A     -0.686504
      28A     -0.683599    29A     -0.629886    30A     -0.627983
      31A     -0.625449    32A     -0.623213    33A     -0.579713
      34A     -0.575905    35A     -0.574585    36A     -0.572527
      37A     -0.558626    38A     -0.557562    39A     -0.532830
      40A     -0.532006    41A     -0.485861    42A     -0.482139
      43A     -0.481549    44A     -0.477513    45A     -0.476984
      46A     -0.472503    47A     -0.333350    48A     -0.322261
      49A     -0.314495    50A     -0.312074

    Virtual:

      51A      0.127656    52A      0.134343    53A      0.147950
      54A      0.153276    55A      0.166042    56A      0.185405
      57A      0.199251    58A      0.207151    59A      0.220371
      60A      0.231283    61A      0.237343    62A      0.246903
      63A      0.257030    64A      0.261162    65A      0.272919
      66A      0.281713    67A      0.286895    68A      0.295151
      69A      0.301383    70A      0.317918    71A      0.364354
      72A      0.367140    73A      0.380640    74A      0.382218
      75A      0.446613    76A      0.450869    77A      0.464448
      78A      0.470134    79A      0.478359    80A      0.480084
      81A      0.498146    82A      0.499522    83A      0.566076
      84A      0.569579    85A      0.583540    86A      0.604002
      87A      0.620279    88A      0.638669    89A      0.647228
      90A      0.674428    91A      0.679143    92A      0.688999
      93A      0.697268    94A      0.705796    95A      0.711181
      96A      0.721471    97A      0.728161    98A      0.737617
      99A      0.739957   100A      0.742481   101A      0.746516
     102A      0.747890   103A      0.751919   104A      0.759510
     105A      0.760381   106A      0.763576   107A      0.779323
     108A      0.789169   109A      0.817450   110A      0.830078
     111A      0.834418   112A      0.849811   113A      0.861595
     114A      0.864882   115A      0.868607   116A      0.874090
     117A      0.882263   118A      0.884586   119A      0.894856
     120A      0.899904   121A      0.901762   122A      0.904405
     123A      0.908192   124A      0.919535   125A      0.927267
     126A      0.934303   127A      0.943222   128A      0.955793
     129A      0.972623   130A      0.982971   131A      0.985718
     132A      0.992632   133A      0.999398   134A      1.038988
     135A      1.054554   136A      1.059905   137A      1.113885
     138A      1.120718   139A      1.133533   140A      1.139936
     141A      1.148488   142A      1.154735   143A      1.161348
     144A      1.165619   145A      1.192072   146A      1.198038
     147A      1.227706   148A      1.235027   149A      1.240625
     150A      1.247210   151A      1.252460   152A      1.259734
     153A      1.263566   154A      1.274345   155A      1.294010
     156A      1.308175   157A      1.309023   158A      1.310991
     159A      1.322074   160A      1.322409   161A      1.331232
     162A      1.340927   163A      1.417805   164A      1.420041
     165A      1.500793   166A      1.505488   167A      1.520234
     168A      1.534519   169A      1.560996   170A      1.565449
     171A      1.602165   172A      1.616684   173A      1.675619
     174A      1.690648   175A      1.695865   176A      1.699617
     177A      1.723702   178A      1.731341   179A      1.742771
     180A      1.751521   181A      1.773122   182A      1.780930
     183A      1.800267   184A      1.804627   185A      1.810024
     186A      1.818129   187A      1.852255   188A      1.866488
     189A      1.884520   190A      1.884980   191A      1.901347
     192A      1.905741   193A      1.909478   194A      1.913889
     195A      1.915278   196A      1.924404   197A      1.926710
     198A      1.932092   199A      1.937056   200A      1.944550
     201A      1.955984   202A      1.964283   203A      1.970773
     204A      1.973726   205A      1.977778   206A      1.992334
     207A      2.000479   208A      2.006363   209A      2.032560
     210A      2.039725   211A      2.049505   212A      2.061844
     213A      2.072805   214A      2.080124   215A      2.107896
     216A      2.113430   217A      2.132649   218A      2.141195
     219A      2.148371   220A      2.155540   221A      2.158486
     222A      2.166167   223A      2.169105   224A      2.174834
     225A      2.182386   226A      2.202014   227A      2.245934
     228A      2.261540   229A      2.272172   230A      2.278374
     231A      2.289642   232A      2.295313   233A      2.301514
     234A      2.308298   235A      2.325304   236A      2.331987
     237A      2.336593   238A      2.341977   239A      2.455659
     240A      2.463465   241A      2.475513   242A      2.478299
     243A      2.506145   244A      2.506757   245A      2.528456
     246A      2.541340   247A      2.621823   248A      2.625414
     249A      2.727613   250A      2.740057   251A      2.744698
     252A      2.759148   253A      2.767997   254A      2.778282
     255A      2.780074   256A      2.790300   257A      2.803419
     258A      2.815291   259A      2.841770   260A      2.854709
     261A      2.866565   262A      2.876555   263A      2.964001
     264A      2.976265   265A      2.996446   266A      3.017741
     267A      3.025352   268A      3.031237   269A      3.141801
     270A      3.158275   271A      3.183904   272A      3.199795
     273A      3.280594   274A      3.295868   275A      3.936085
     276A      3.963572

    Final Occupation by Irrep:
              A
    DOCC [    50 ]

  @RHF Final Energy:  -539.51591770472282

   => Energetics <=

    Nuclear Repulsion Energy =            797.0217079521100914
    One-Electron Energy =               -2310.6762570729797517
    Two-Electron Energy =                 974.1386314161468363
    Total Energy =                       -539.5159177047228241

Computation Completed

Properties will be evaluated at   0.000000,   0.000000,   0.000000 [a0]

Properties computed using the SCF density matrix

  Nuclear Dipole Moment: [e a0]
     X:     4.0480      Y:     1.6874      Z:     5.0248

  Electronic Dipole Moment: [e a0]
     X:    -3.9396      Y:    -1.6157      Z:    -4.8663

  Dipole Moment: [e a0]
     X:     0.1083      Y:     0.0717      Z:     0.1585     Total:     0.2049

  Dipole Moment: [D]
     X:     0.2754      Y:     0.1822      Z:     0.4029     Total:     0.5209

*** tstop() called on ds3 at Mon Apr 27 22:57:22 2020
Module time:
	user time   =     349.11 seconds =       5.82 minutes
	system time =     113.30 seconds =       1.89 minutes
	total time  =        456 seconds =       7.60 minutes
Total time:
	user time   =     349.11 seconds =       5.82 minutes
	system time =     113.30 seconds =       1.89 minutes
	total time  =        456 seconds =       7.60 minutes
                                     G D M A

                                 by Anthony Stone

                           version 2.2.06, 22 June 2011

               Distributed Multipoles from Gaussian wavefunctions

Starting at 22:57:22 on 27 Apr 2020

Using SCF density matrix from file ./SSI/SSI-042PHE-049PHE-1-dimer.test.25090.fchk

                         Distributed Multipole Analysis

Standard DMA

Positions and radii in angstrom
Multipole moments in atomic units, ea_0^k for rank k

C          x = -0.559475  y = -0.193655  z =  3.361346 angstrom
           Maximum rank =  0   Radius =  0.650 angstrom
                   Q00  =  -0.195044

C          x = -2.112475  y = -1.360655  z =  0.073346 angstrom
           Maximum rank =  0   Radius =  0.650 angstrom
                   Q00  =  -0.073740

C          x = -1.339475  y = -1.325655  z =  1.245346 angstrom
           Maximum rank =  0   Radius =  0.650 angstrom
                   Q00  =  -0.006568

C          x = -2.905475  y = -0.255655  z = -0.267654 angstrom
           Maximum rank =  0   Radius =  0.650 angstrom
                   Q00  =  -0.078544

C          x = -1.349475  y = -0.194655  z =  2.079346 angstrom
           Maximum rank =  0   Radius =  0.650 angstrom
                   Q00  =  -0.096782

C          x = -2.921475  y =  0.876345  z =  0.559346 angstrom
           Maximum rank =  0   Radius =  0.650 angstrom
                   Q00  =  -0.061165

C          x = -2.140475  y =  0.908345  z =  1.731346 angstrom
           Maximum rank =  0   Radius =  0.650 angstrom
                   Q00  =  -0.089276

H          x = -2.090475  y = -2.230655  z = -0.567654 angstrom
           Maximum rank =  0   Radius =  0.325 angstrom
                   Q00  =   0.063136

H          x = -0.726475  y = -2.177655  z =  1.503346 angstrom
           Maximum rank =  0   Radius =  0.325 angstrom
                   Q00  =   0.053271

H          x = -3.505475  y = -0.274655  z = -1.166654 angstrom
           Maximum rank =  0   Radius =  0.325 angstrom
                   Q00  =   0.061642

H          x = -3.540475  y =  1.722345  z =  0.302346 angstrom
           Maximum rank =  0   Radius =  0.325 angstrom
                   Q00  =   0.066278

H          x = -0.434475  y =  0.828345  z =  3.722346 angstrom
           Maximum rank =  0   Radius =  0.325 angstrom
                   Q00  =   0.097870

H          x =  0.433525  y = -0.588655  z =  3.141346 angstrom
           Maximum rank =  0   Radius =  0.325 angstrom
                   Q00  =   0.094083

H          x = -2.157475  y =  1.783345  z =  2.364346 angstrom
           Maximum rank =  0   Radius =  0.325 angstrom
                   Q00  =   0.059919

H          x = -1.027095  y = -0.807805  z =  4.145026 angstrom
           Maximum rank =  0   Radius =  0.325 angstrom
                   Q00  =   0.103627

C          x =  3.450525  y =  1.373345  z =  0.191346 angstrom
           Maximum rank =  0   Radius =  0.650 angstrom
                   Q00  =  -0.203043

C          x =  0.692525  y = -0.650655  z = -2.420654 angstrom
           Maximum rank =  0   Radius =  0.650 angstrom
                   Q00  =  -0.090801

C          x =  1.155525  y = -1.294655  z = -1.285654 angstrom
           Maximum rank =  0   Radius =  0.650 angstrom
                   Q00  =  -0.056734

C          x =  1.117525  y =  0.642345  z = -2.716654 angstrom
           Maximum rank =  0   Radius =  0.650 angstrom
                   Q00  =  -0.014630

C          x =  2.054525  y = -0.637655  z = -0.426654 angstrom
           Maximum rank =  0   Radius =  0.650 angstrom
                   Q00  =  -0.041618

C          x =  2.010525  y =  1.298345  z = -1.861654 angstrom
           Maximum rank =  0   Radius =  0.650 angstrom
                   Q00  =  -0.090255

C          x =  2.484525  y =  0.663345  z = -0.712654 angstrom
           Maximum rank =  0   Radius =  0.650 angstrom
                   Q00  =  -0.090858

H          x = -0.000475  y = -1.155655  z = -3.077654 angstrom
           Maximum rank =  0   Radius =  0.325 angstrom
                   Q00  =   0.056709

H          x =  0.816525  y = -2.294655  z = -1.053654 angstrom
           Maximum rank =  0   Radius =  0.325 angstrom
                   Q00  =   0.060256

H          x =  0.765525  y =  1.137345  z = -3.609654 angstrom
           Maximum rank =  0   Radius =  0.325 angstrom
                   Q00  =   0.064166

H          x =  2.408525  y = -1.140655  z =  0.462346 angstrom
           Maximum rank =  0   Radius =  0.325 angstrom
                   Q00  =   0.054039

H          x =  2.335525  y =  2.301345  z = -2.102654 angstrom
           Maximum rank =  0   Radius =  0.325 angstrom
                   Q00  =   0.057186

H          x =  3.149525  y =  1.196345  z =  1.224346 angstrom
           Maximum rank =  0   Radius =  0.325 angstrom
                   Q00  =   0.096839

H          x =  3.395525  y =  2.446345  z =  0.008346 angstrom
           Maximum rank =  0   Radius =  0.325 angstrom
                   Q00  =   0.096990

H          x =  4.495705  y =  1.054905  z =  0.064116 angstrom
           Maximum rank =  0   Radius =  0.325 angstrom
                   Q00  =   0.103046

Total multipoles referred to origin at
           x =   0.000000,  y =    0.000000,  z =    0.000000 angstrom
                   Q00  =  -0.000000

Finished at 22:57:22 on 27 Apr 2020

  DMA results are available in the Python driver through the
	  variable('DMA DISTRIBUTED MULTIPOLES')
  and
	  variable('DMA TOTAL MULTIPOLES')
  commands.

    Psi4 stopped on: Monday, 27 April 2020 10:57PM
    Psi4 wall time for execution: 0:07:36.24

*** Psi4 exiting successfully. Buy a developer a beer!
