                               Psi4 1.3.2 release

  ==> Input File <==

--------------------------------------------------------------------------
import numpy as np
set {scf_type pk
basis cc-pvdz
d_convergence 10
gdma_switch   0
gdma_limit    0
gdma_origin   [ 0.0,  0.0,  0.0 ]
}
molecule test {
    units Angstrom
    0 1
    --
    0 1
    C               -1.609869208968256    -3.145370232301914    -2.037802182378273
    C               -0.343869208968256     0.200629767698086    -2.697802182378273
    C               -1.002869208968256    -1.899370232301914    -2.614802182378273
    C               -0.510869208968256    -1.665370232301914    -3.858802182378273
    N               -0.944869208968256    -0.705370232301914    -1.931802182378273
    N               -0.122869208968256    -0.337370232301914    -3.892802182378273
    H               -0.163869208968256     1.235629767698086    -2.432802182378274
    H                0.263130791031744     0.160629767698086    -4.688802182378273
    H               -0.436869208968256    -2.389370232301915    -4.657802182378273
    H               -1.029869208968256    -3.471370232301914    -1.185802182378273
    H               -1.538869208968256    -3.934370232301915    -2.784802182378273
    H               -2.658129208968256    -3.011106232301914    -1.732652182378273
    C                2.699130791031744     1.855629767698086     4.017197817621726
    C                0.904130791031744     0.624629767698086     0.815197817621727
    C                1.930130791031744     1.073629767698086     1.683197817621727
    C               -0.429869208968256     0.538629767698086     1.311197817621727
    C                1.622130791031744     1.432629767698086     3.018197817621727
    C               -0.709869208968256     0.901629767698086     2.629197817621727
    C                0.302130791031744     1.348629767698086     3.451197817621727
    O               -1.488869208968256     0.075629767698086     0.587197817621727
    H                1.130130791031744     0.323629767698086    -0.196802182378273
    H                2.951130791031744     1.127629767698086     1.328197817621727
    H               -1.228869208968256    -0.196370232301914    -0.312802182378273
    H               -1.721869208968256     0.828629767698086     2.994197817621727
    H                2.253130791031744     2.223629767698086     4.943197817621727
    H                3.273130791031744     2.668629767698086     3.569197817621727
    H                0.060130791031744     1.633629767698086     4.465197817621727
    H                3.372840791031744     1.015269767698086     4.240587817621728

}
e, wfn = energy('scf', return_wfn=True)
gdma(wfn)
dmavals = variable('DMA DISTRIBUTED MULTIPOLES')
charges = np.array(dmavals)
print(charges)
np.save('SSI-180HIE-209TYR-1-dimer.npy', np.array(charges))--------------------------------------------------------------------------

*** tstart() called on ds3
*** at Mon Apr 27 16:38:35 2020

   => Loading Basis Set <=

    Name: CC-PVDZ
    Role: ORBITAL
    Keyword: BASIS
    atoms 1-4, 13-19  entry C          line   138 file /theoryfs2/ds/metcalf/miniconda2/envs/tf2gpu/share/psi4/basis/cc-pvdz.gbs
    atoms 5-6         entry N          line   168 file /theoryfs2/ds/metcalf/miniconda2/envs/tf2gpu/share/psi4/basis/cc-pvdz.gbs
    atoms 7-12, 21-28 entry H          line    22 file /theoryfs2/ds/metcalf/miniconda2/envs/tf2gpu/share/psi4/basis/cc-pvdz.gbs
    atoms 20          entry O          line   198 file /theoryfs2/ds/metcalf/miniconda2/envs/tf2gpu/share/psi4/basis/cc-pvdz.gbs

         ---------------------------------------------------------
                                   SCF
               by Justin Turney, Rob Parrish, Andy Simmonett
                          and Daniel G. A. Smith
                              RHF Reference
                        1 Threads,    500 MiB Core
         ---------------------------------------------------------

  ==> Geometry <==

    Molecular point group: c1
    Full point group: C1

    Geometry (in Angstrom), charge = 0, multiplicity = 1:

       Center              X                  Y                   Z               Mass
    ------------   -----------------  -----------------  -----------------  -----------------
         C           -1.609869208968    -3.145370232302    -2.037802182378    12.000000000000
         C           -0.343869208968     0.200629767698    -2.697802182378    12.000000000000
         C           -1.002869208968    -1.899370232302    -2.614802182378    12.000000000000
         C           -0.510869208968    -1.665370232302    -3.858802182378    12.000000000000
         N           -0.944869208968    -0.705370232302    -1.931802182378    14.003074004430
         N           -0.122869208968    -0.337370232302    -3.892802182378    14.003074004430
         H           -0.163869208968     1.235629767698    -2.432802182378     1.007825032230
         H            0.263130791032     0.160629767698    -4.688802182378     1.007825032230
         H           -0.436869208968    -2.389370232302    -4.657802182378     1.007825032230
         H           -1.029869208968    -3.471370232302    -1.185802182378     1.007825032230
         H           -1.538869208968    -3.934370232302    -2.784802182378     1.007825032230
         H           -2.658129208968    -3.011106232302    -1.732652182378     1.007825032230
         C            2.699130791032     1.855629767698     4.017197817622    12.000000000000
         C            0.904130791032     0.624629767698     0.815197817622    12.000000000000
         C            1.930130791032     1.073629767698     1.683197817622    12.000000000000
         C           -0.429869208968     0.538629767698     1.311197817622    12.000000000000
         C            1.622130791032     1.432629767698     3.018197817622    12.000000000000
         C           -0.709869208968     0.901629767698     2.629197817622    12.000000000000
         C            0.302130791032     1.348629767698     3.451197817622    12.000000000000
         O           -1.488869208968     0.075629767698     0.587197817622    15.994914619570
         H            1.130130791032     0.323629767698    -0.196802182378     1.007825032230
         H            2.951130791032     1.127629767698     1.328197817622     1.007825032230
         H           -1.228869208968    -0.196370232302    -0.312802182378     1.007825032230
         H           -1.721869208968     0.828629767698     2.994197817622     1.007825032230
         H            2.253130791032     2.223629767698     4.943197817622     1.007825032230
         H            3.273130791032     2.668629767698     3.569197817622     1.007825032230
         H            0.060130791032     1.633629767698     4.465197817622     1.007825032230
         H            3.372840791032     1.015269767698     4.240587817622     1.007825032230

  Running in c1 symmetry.

  Rotational constants: A =      0.05307  B =      0.00891  C =      0.00826 [cm^-1]
  Rotational constants: A =   1590.91469  B =    266.96683  C =    247.58900 [MHz]
  Nuclear repulsion =  810.870145065488032

  Charge       = 0
  Multiplicity = 1
  Electrons    = 102
  Nalpha       = 51
  Nbeta        = 51

  ==> Algorithm <==

  SCF Algorithm Type is PK.
  DIIS enabled.
  MOM disabled.
  Fractional occupation disabled.
  Guess Type is SAD.
  Energy threshold   = 1.00e-06
  Density threshold  = 1.00e-10
  Integral threshold = 0.00e+00

  ==> Primary Basis <==

  Basis Set: CC-PVDZ
    Blend: CC-PVDZ
    Number of shells: 126
    Number of basis function: 266
    Number of Cartesian functions: 280
    Spherical Harmonics?: true
    Max angular momentum: 2

  ==> Pre-Iterations <==

   -------------------------------------------------------
    Irrep   Nso     Nmo     Nalpha   Nbeta   Ndocc  Nsocc
   -------------------------------------------------------
     A        266     266       0       0       0       0
   -------------------------------------------------------
    Total     266     266      51      51      51       0
   -------------------------------------------------------

  ==> Integral Setup <==

  Using integral reordering PK algorithm.
  Sizing the integral batches needed.
  Building batch lookup table.
   Calculation information:
      Number of atoms:                  28
      Number of AO shells:             126
      Number of primitives:            378
      Number of atomic orbitals:       280
      Number of basis functions:       266

      Integral cutoff                 1.00e-12
      Number of threads:                 1

	Batch   1 pq = [       0,    9405] index = [             0,44231715] size =     44231715
	Batch   2 pq = [    9405,   13301] index = [      44231715,88464951] size =     44233236
	Batch   3 pq = [   13301,   16290] index = [      88464951,132690195] size =     44225244
	Batch   4 pq = [   16290,   18810] index = [     132690195,176917455] size =     44227260
	Batch   5 pq = [   18810,   21030] index = [     176917455,221140965] size =     44223510
	Batch   6 pq = [   21030,   23037] index = [     221140965,265363203] size =     44222238
	Batch   7 pq = [   23037,   24883] index = [     265363203,309594286] size =     44231083
	Batch   8 pq = [   24883,   26601] index = [     309594286,353819901] size =     44225615
	Batch   9 pq = [   26601,   28214] index = [     353819901,398029005] size =     44209104
	Batch  10 pq = [   28214,   29740] index = [     398029005,442248670] size =     44219665
	Batch  11 pq = [   29740,   31191] index = [     442248670,486454836] size =     44206166
	Batch  12 pq = [   31191,   32578] index = [     486454836,530679331] size =     44224495
	Batch  13 pq = [   32578,   33908] index = [     530679331,574893186] size =     44213855
	Batch  14 pq = [   33908,   35188] index = [     574893186,619115266] size =     44222080
	Batch  15 pq = [   35188,   35511] index = [     619115266,630533316] size =     11418050
  Task number: 58
  Buffer size: 11059200
  Buffer per thread: 2
  We computed 25865539 shell quartets total.
  Whereas there are 32012001 unique shell quartets.

  ==> DiskJK: Disk-Based J/K Matrices <==

    J tasked:                  Yes
    K tasked:                  Yes
    wK tasked:                  No
    Memory [MiB]:              375
    Schwarz Cutoff:          1E-12

    OpenMP threads:              1

  Minimum eigenvalue in the overlap matrix is 3.3490764288E-04.
  Using Symmetric Orthogonalization.

  SCF Guess: Superposition of Atomic Densities via on-the-fly atomic UHF.

  ==> Iterations <==

                        Total Energy        Delta E     RMS |[F,P]|

   @RHF iter SAD:  -607.48039370097831   -6.07480e+02   0.00000e+00
   @RHF iter   1:  -608.21205278538218   -7.31659e-01   2.53177e-03 DIIS
   @RHF iter   2:  -608.45636878125424   -2.44316e-01   1.14510e-03 DIIS
   @RHF iter   3:  -608.49960185497889   -4.32331e-02   3.13388e-04 DIIS
   @RHF iter   4:  -608.50396578327775   -4.36393e-03   1.28345e-04 DIIS
   @RHF iter   5:  -608.50462904567269   -6.63262e-04   2.06410e-05 DIIS
   @RHF iter   6:  -608.50466009926413   -3.10536e-05   1.03370e-05 DIIS
   @RHF iter   7:  -608.50466634281474   -6.24355e-06   3.33896e-06 DIIS
   @RHF iter   8:  -608.50466770319315   -1.36038e-06   1.45586e-06 DIIS
   @RHF iter   9:  -608.50466796428827   -2.61095e-07   6.30761e-07 DIIS
   @RHF iter  10:  -608.50466801908101   -5.47927e-08   2.54504e-07 DIIS
   @RHF iter  11:  -608.50466802923449   -1.01535e-08   1.01245e-07 DIIS
   @RHF iter  12:  -608.50466803100926   -1.77477e-09   4.56256e-08 DIIS
   @RHF iter  13:  -608.50466803128370   -2.74440e-10   1.75250e-08 DIIS
   @RHF iter  14:  -608.50466803133020   -4.64979e-11   7.59400e-09 DIIS
   @RHF iter  15:  -608.50466803133895   -8.75389e-12   2.79666e-09 DIIS
   @RHF iter  16:  -608.50466803134225   -3.29692e-12   1.20061e-09 DIIS
   @RHF iter  17:  -608.50466803133975    2.50111e-12   4.41363e-10 DIIS
   @RHF iter  18:  -608.50466803133418    5.57066e-12   1.51804e-10 DIIS
   @RHF iter  19:  -608.50466803133747   -3.29692e-12   7.42493e-11 DIIS
  Energy and wave function converged.

  ==> Post-Iterations <==

    Orbital Energies [Eh]
    ---------------------

    Doubly Occupied:

       1A    -20.527369     2A    -15.645079     3A    -15.560157
       4A    -11.321945     5A    -11.276565     6A    -11.272287
       7A    -11.266289     8A    -11.237272     9A    -11.227517
      10A    -11.217646    11A    -11.216920    12A    -11.216346
      13A    -11.214697    14A    -11.201961    15A     -1.366822
      16A     -1.348996    17A     -1.182046    18A     -1.121977
      19A     -1.053971    20A     -1.009164    21A     -0.993739
      22A     -0.959303    23A     -0.903346    24A     -0.844757
      25A     -0.818839    26A     -0.790286    27A     -0.774062
      28A     -0.762664    29A     -0.698497    30A     -0.636950
      31A     -0.632191    32A     -0.626045    33A     -0.618756
      34A     -0.616938    35A     -0.585647    36A     -0.567965
      37A     -0.566034    38A     -0.561442    39A     -0.560501
      40A     -0.540285    41A     -0.538760    42A     -0.536357
      43A     -0.507270    44A     -0.477471    45A     -0.465556
      46A     -0.438494    47A     -0.434113    48A     -0.407575
      49A     -0.332485    50A     -0.318247    51A     -0.271809

    Virtual:

      52A      0.145893    53A      0.159526    54A      0.162141
      55A      0.177204    56A      0.187614    57A      0.199683
      58A      0.205610    59A      0.211352    60A      0.226167
      61A      0.231317    62A      0.239667    63A      0.268710
      64A      0.271337    65A      0.280414    66A      0.285197
      67A      0.299530    68A      0.309218    69A      0.333331
      70A      0.362928    71A      0.375848    72A      0.382073
      73A      0.389852    74A      0.430058    75A      0.449497
      76A      0.463443    77A      0.472504    78A      0.486472
      79A      0.505991    80A      0.528571    81A      0.531473
      82A      0.585368    83A      0.600062    84A      0.621928
      85A      0.629588    86A      0.639328    87A      0.643568
      88A      0.666231    89A      0.673097    90A      0.677899
      91A      0.701384    92A      0.713146    93A      0.716650
      94A      0.731419    95A      0.735222    96A      0.744134
      97A      0.754450    98A      0.759616    99A      0.762714
     100A      0.772833   101A      0.781432   102A      0.785477
     103A      0.806346   104A      0.809532   105A      0.818493
     106A      0.826089   107A      0.841676   108A      0.855787
     109A      0.864177   110A      0.866930   111A      0.873793
     112A      0.888464   113A      0.895821   114A      0.900936
     115A      0.907923   116A      0.911251   117A      0.928092
     118A      0.930167   119A      0.945105   120A      0.952037
     121A      0.955296   122A      0.956409   123A      0.961055
     124A      0.977947   125A      1.005674   126A      1.027875
     127A      1.044476   128A      1.070675   129A      1.072033
     130A      1.094101   131A      1.112390   132A      1.132375
     133A      1.151911   134A      1.163304   135A      1.166390
     136A      1.174380   137A      1.216504   138A      1.230914
     139A      1.233425   140A      1.242041   141A      1.255222
     142A      1.261807   143A      1.286440   144A      1.294948
     145A      1.299328   146A      1.308475   147A      1.316688
     148A      1.320451   149A      1.329361   150A      1.332087
     151A      1.373315   152A      1.388134   153A      1.393117
     154A      1.433560   155A      1.452598   156A      1.464863
     157A      1.486282   158A      1.519062   159A      1.528434
     160A      1.550512   161A      1.575446   162A      1.582051
     163A      1.591746   164A      1.594647   165A      1.620685
     166A      1.663387   167A      1.678448   168A      1.693007
     169A      1.700964   170A      1.707427   171A      1.723262
     172A      1.748078   173A      1.765929   174A      1.774596
     175A      1.792340   176A      1.797869   177A      1.818798
     178A      1.822776   179A      1.839619   180A      1.847411
     181A      1.875235   182A      1.888122   183A      1.899588
     184A      1.908155   185A      1.909914   186A      1.913845
     187A      1.926416   188A      1.938087   189A      1.945902
     190A      1.952530   191A      1.956626   192A      1.966530
     193A      1.980627   194A      1.983539   195A      1.992609
     196A      2.018096   197A      2.022343   198A      2.042297
     199A      2.068745   200A      2.074107   201A      2.082898
     202A      2.087120   203A      2.093144   204A      2.103247
     205A      2.114782   206A      2.142782   207A      2.147235
     208A      2.173273   209A      2.179681   210A      2.185998
     211A      2.210824   212A      2.215720   213A      2.240402
     214A      2.265296   215A      2.290240   216A      2.293758
     217A      2.315343   218A      2.342187   219A      2.376127
     220A      2.380272   221A      2.404216   222A      2.410932
     223A      2.415946   224A      2.428504   225A      2.465649
     226A      2.481021   227A      2.514434   228A      2.526686
     229A      2.535169   230A      2.549357   231A      2.584282
     232A      2.619692   233A      2.636364   234A      2.670822
     235A      2.717456   236A      2.718936   237A      2.739672
     238A      2.757348   239A      2.774496   240A      2.781792
     241A      2.790990   242A      2.804539   243A      2.821152
     244A      2.828712   245A      2.846266   246A      2.884059
     247A      2.895021   248A      2.902201   249A      2.914584
     250A      2.967999   251A      2.970182   252A      3.041968
     253A      3.080693   254A      3.098483   255A      3.134923
     256A      3.140106   257A      3.227161   258A      3.286377
     259A      3.295576   260A      3.415596   261A      3.461279
     262A      3.601634   263A      3.737651   264A      3.775003
     265A      3.951001   266A      4.315166

    Final Occupation by Irrep:
              A
    DOCC [    51 ]

  @RHF Final Energy:  -608.50466803133747

   => Energetics <=

    Nuclear Repulsion Energy =            810.8701450654880318
    One-Electron Energy =               -2436.2068088718601757
    Two-Electron Energy =                1016.8319957750346703
    Total Energy =                       -608.5046680313374736

Computation Completed

Properties will be evaluated at   0.000000,   0.000000,   0.000000 [a0]

Properties computed using the SCF density matrix

  Nuclear Dipole Moment: [e a0]
     X:     4.2383      Y:    -1.6703      Z:     3.3462

  Electronic Dipole Moment: [e a0]
     X:    -3.4845      Y:     1.5153      Z:    -5.7193

  Dipole Moment: [e a0]
     X:     0.7537      Y:    -0.1550      Z:    -2.3731     Total:     2.4947

  Dipole Moment: [D]
     X:     1.9158      Y:    -0.3939      Z:    -6.0318     Total:     6.3410

*** tstop() called on ds3 at Mon Apr 27 16:44:33 2020
Module time:
	user time   =     254.42 seconds =       4.24 minutes
	system time =     119.42 seconds =       1.99 minutes
	total time  =        358 seconds =       5.97 minutes
Total time:
	user time   =     254.42 seconds =       4.24 minutes
	system time =     119.42 seconds =       1.99 minutes
	total time  =        358 seconds =       5.97 minutes
                                     G D M A

                                 by Anthony Stone

                           version 2.2.06, 22 June 2011

               Distributed Multipoles from Gaussian wavefunctions

Starting at 16:44:33 on 27 Apr 2020

Using SCF density matrix from file ./SSI/SSI-180HIE-209TYR-1-dimer.test.27543.fchk

                         Distributed Multipole Analysis

Standard DMA

Positions and radii in angstrom
Multipole moments in atomic units, ea_0^k for rank k

C          x = -1.609869  y = -3.145370  z = -2.037802 angstrom
           Maximum rank =  0   Radius =  0.650 angstrom
                   Q00  =  -0.202339

C          x = -0.343869  y =  0.200630  z = -2.697802 angstrom
           Maximum rank =  0   Radius =  0.650 angstrom
                   Q00  =   0.470449

C          x = -1.002869  y = -1.899370  z = -2.614802 angstrom
           Maximum rank =  0   Radius =  0.650 angstrom
                   Q00  =   0.209430

C          x = -0.510869  y = -1.665370  z = -3.858802 angstrom
           Maximum rank =  0   Radius =  0.650 angstrom
                   Q00  =   0.001502

N          x = -0.944869  y = -0.705370  z = -1.931802 angstrom
           Maximum rank =  0   Radius =  0.650 angstrom
                   Q00  =  -0.819591

N          x = -0.122869  y = -0.337370  z = -3.892802 angstrom
           Maximum rank =  0   Radius =  0.650 angstrom
                   Q00  =  -0.460202

H          x = -0.163869  y =  1.235630  z = -2.432802 angstrom
           Maximum rank =  0   Radius =  0.325 angstrom
                   Q00  =   0.136422

H          x =  0.263131  y =  0.160630  z = -4.688802 angstrom
           Maximum rank =  0   Radius =  0.325 angstrom
                   Q00  =   0.231083

H          x = -0.436869  y = -2.389370  z = -4.657802 angstrom
           Maximum rank =  0   Radius =  0.325 angstrom
                   Q00  =   0.112017

H          x = -1.029869  y = -3.471370  z = -1.185802 angstrom
           Maximum rank =  0   Radius =  0.325 angstrom
                   Q00  =   0.122321

H          x = -1.538869  y = -3.934370  z = -2.784802 angstrom
           Maximum rank =  0   Radius =  0.325 angstrom
                   Q00  =   0.095737

H          x = -2.658129  y = -3.011106  z = -1.732652 angstrom
           Maximum rank =  0   Radius =  0.325 angstrom
                   Q00  =   0.122131

C          x =  2.699131  y =  1.855630  z =  4.017198 angstrom
           Maximum rank =  0   Radius =  0.650 angstrom
                   Q00  =  -0.199539

C          x =  0.904131  y =  0.624630  z =  0.815198 angstrom
           Maximum rank =  0   Radius =  0.650 angstrom
                   Q00  =  -0.208236

C          x =  1.930131  y =  1.073630  z =  1.683198 angstrom
           Maximum rank =  0   Radius =  0.650 angstrom
                   Q00  =  -0.072308

C          x = -0.429869  y =  0.538630  z =  1.311198 angstrom
           Maximum rank =  0   Radius =  0.650 angstrom
                   Q00  =   0.361838

C          x =  1.622131  y =  1.432630  z =  3.018198 angstrom
           Maximum rank =  0   Radius =  0.650 angstrom
                   Q00  =  -0.149505

C          x = -0.709869  y =  0.901630  z =  2.629198 angstrom
           Maximum rank =  0   Radius =  0.650 angstrom
                   Q00  =  -0.093529

C          x =  0.302131  y =  1.348630  z =  3.451198 angstrom
           Maximum rank =  0   Radius =  0.650 angstrom
                   Q00  =   0.028116

O          x = -1.488869  y =  0.075630  z =  0.587198 angstrom
           Maximum rank =  0   Radius =  0.650 angstrom
                   Q00  =  -0.764173

H          x =  1.130131  y =  0.323630  z = -0.196802 angstrom
           Maximum rank =  0   Radius =  0.325 angstrom
                   Q00  =   0.073306

H          x =  2.951131  y =  1.127630  z =  1.328198 angstrom
           Maximum rank =  0   Radius =  0.325 angstrom
                   Q00  =   0.062707

H          x = -1.228869  y = -0.196370  z = -0.312802 angstrom
           Maximum rank =  0   Radius =  0.325 angstrom
                   Q00  =   0.538919

H          x = -1.721869  y =  0.828630  z =  2.994198 angstrom
           Maximum rank =  0   Radius =  0.325 angstrom
                   Q00  =   0.069435

H          x =  2.253131  y =  2.223630  z =  4.943198 angstrom
           Maximum rank =  0   Radius =  0.325 angstrom
                   Q00  =   0.095714

H          x =  3.273131  y =  2.668630  z =  3.569198 angstrom
           Maximum rank =  0   Radius =  0.325 angstrom
                   Q00  =   0.090965

H          x =  0.060131  y =  1.633630  z =  4.465198 angstrom
           Maximum rank =  0   Radius =  0.325 angstrom
                   Q00  =   0.053403

H          x =  3.372841  y =  1.015270  z =  4.240588 angstrom
           Maximum rank =  0   Radius =  0.325 angstrom
                   Q00  =   0.093925

Total multipoles referred to origin at
           x =   0.000000,  y =    0.000000,  z =    0.000000 angstrom
                   Q00  =  -0.000000

Finished at 16:44:33 on 27 Apr 2020

  DMA results are available in the Python driver through the
	  variable('DMA DISTRIBUTED MULTIPOLES')
  and
	  variable('DMA TOTAL MULTIPOLES')
  commands.

    Psi4 stopped on: Monday, 27 April 2020 04:44PM
    Psi4 wall time for execution: 0:05:57.78

*** Psi4 exiting successfully. Buy a developer a beer!
