                               Psi4 1.3.2 release

  ==> Input File <==

--------------------------------------------------------------------------
import numpy as np
set {scf_type pk
basis cc-pvdz
d_convergence 10
gdma_switch   0
gdma_limit    0
gdma_origin   [ 0.0,  0.0,  0.0 ]
}
molecule test {
    units Angstrom
    -1 1
    --
    -1 1
    C                4.049542626366645    -0.562957943755686    -0.918072793279210
    C                1.976542626366645     0.798042056244314    -0.238072793279210
    C                0.505542626366645    -0.765957943755686     0.330927206720790
    C                2.650542626366645    -0.373957943755687    -0.410072793279210
    C                1.711542626366646    -1.404957943755687    -0.058072793279210
    C               -0.608457373633355    -1.491957943755687     0.733927206720790
    C               -0.509457373633355    -2.868957943755687     0.742927206720790
    C                1.787542626366646    -2.809957943755687    -0.042072793279210
    C                0.658542626366645    -3.539957943755686     0.365927206720790
    N                0.698542626366645     0.578042056244313     0.211927206720790
    H               -0.033457373633355     1.291042056244313     0.285927206720790
    H                2.384542626366645     1.779042056244313    -0.458072793279210
    H               -1.517457373633355    -0.992957943755686     1.024927206720790
    H                4.065542626366645    -0.242957943755686    -1.960072793279210
    H                4.295542626366645    -1.625957943755687    -0.902072793279210
    H               -1.369457373633354    -3.447957943755687     1.040927206720790
    H                2.696542626366646    -3.315957943755687    -0.332072793279210
    H                0.700542626366645    -4.614957943755686     0.406927206720790
    H                4.827302626366644    -0.005045943755687    -0.376022793279210
    C               -4.036457373633355     1.913042056244314    -0.550072793279210
    C               -2.849457373633355     2.735042056244314    -0.104072793279210
    O               -1.788457373633354     2.168042056244313     0.217927206720790
    O               -3.016457373633354     3.986042056244314    -0.088072793279210
    H               -4.418457373633355     2.313042056244313    -1.492072793279210
    H               -4.818457373633355     2.002042056244314     0.199927206720790
    H               -3.795508373633354     0.849694056244313    -0.695792793279210

}
e, wfn = energy('scf', return_wfn=True)
gdma(wfn)
dmavals = variable('DMA DISTRIBUTED MULTIPOLES')
charges = np.array(dmavals)
print(charges)
np.save('SSI-030TRP-042GLU-1-dimer.npy', np.array(charges))--------------------------------------------------------------------------

*** tstart() called on ds3
*** at Tue Apr 28 03:39:17 2020

   => Loading Basis Set <=

    Name: CC-PVDZ
    Role: ORBITAL
    Keyword: BASIS
    atoms 1-9, 20-21   entry C          line   138 file /theoryfs2/ds/metcalf/miniconda2/envs/tf2gpu/share/psi4/basis/cc-pvdz.gbs
    atoms 10           entry N          line   168 file /theoryfs2/ds/metcalf/miniconda2/envs/tf2gpu/share/psi4/basis/cc-pvdz.gbs
    atoms 11-19, 24-26 entry H          line    22 file /theoryfs2/ds/metcalf/miniconda2/envs/tf2gpu/share/psi4/basis/cc-pvdz.gbs
    atoms 22-23        entry O          line   198 file /theoryfs2/ds/metcalf/miniconda2/envs/tf2gpu/share/psi4/basis/cc-pvdz.gbs

         ---------------------------------------------------------
                                   SCF
               by Justin Turney, Rob Parrish, Andy Simmonett
                          and Daniel G. A. Smith
                              RHF Reference
                        1 Threads,    500 MiB Core
         ---------------------------------------------------------

  ==> Geometry <==

    Molecular point group: c1
    Full point group: C1

    Geometry (in Angstrom), charge = -1, multiplicity = 1:

       Center              X                  Y                   Z               Mass
    ------------   -----------------  -----------------  -----------------  -----------------
         C            4.049542626367    -0.562957943756    -0.918072793279    12.000000000000
         C            1.976542626367     0.798042056244    -0.238072793279    12.000000000000
         C            0.505542626367    -0.765957943756     0.330927206721    12.000000000000
         C            2.650542626367    -0.373957943756    -0.410072793279    12.000000000000
         C            1.711542626367    -1.404957943756    -0.058072793279    12.000000000000
         C           -0.608457373633    -1.491957943756     0.733927206721    12.000000000000
         C           -0.509457373633    -2.868957943756     0.742927206721    12.000000000000
         C            1.787542626367    -2.809957943756    -0.042072793279    12.000000000000
         C            0.658542626367    -3.539957943756     0.365927206721    12.000000000000
         N            0.698542626367     0.578042056244     0.211927206721    14.003074004430
         H           -0.033457373633     1.291042056244     0.285927206721     1.007825032230
         H            2.384542626367     1.779042056244    -0.458072793279     1.007825032230
         H           -1.517457373633    -0.992957943756     1.024927206721     1.007825032230
         H            4.065542626367    -0.242957943756    -1.960072793279     1.007825032230
         H            4.295542626367    -1.625957943756    -0.902072793279     1.007825032230
         H           -1.369457373633    -3.447957943756     1.040927206721     1.007825032230
         H            2.696542626367    -3.315957943756    -0.332072793279     1.007825032230
         H            0.700542626367    -4.614957943756     0.406927206721     1.007825032230
         H            4.827302626367    -0.005045943756    -0.376022793279     1.007825032230
         C           -4.036457373633     1.913042056244    -0.550072793279    12.000000000000
         C           -2.849457373633     2.735042056244    -0.104072793279    12.000000000000
         O           -1.788457373633     2.168042056244     0.217927206721    15.994914619570
         O           -3.016457373633     3.986042056244    -0.088072793279    15.994914619570
         H           -4.418457373633     2.313042056244    -1.492072793279     1.007825032230
         H           -4.818457373633     2.002042056244     0.199927206721     1.007825032230
         H           -3.795508373633     0.849694056244    -0.695792793279     1.007825032230

  Running in c1 symmetry.

  Rotational constants: A =      0.03687  B =      0.01049  C =      0.00838 [cm^-1]
  Rotational constants: A =   1105.34399  B =    314.61373  C =    251.18489 [MHz]
  Nuclear repulsion =  797.417861559360858

  Charge       = -1
  Multiplicity = 1
  Electrons    = 102
  Nalpha       = 51
  Nbeta        = 51

  ==> Algorithm <==

  SCF Algorithm Type is PK.
  DIIS enabled.
  MOM disabled.
  Fractional occupation disabled.
  Guess Type is SAD.
  Energy threshold   = 1.00e-06
  Density threshold  = 1.00e-10
  Integral threshold = 0.00e+00

  ==> Primary Basis <==

  Basis Set: CC-PVDZ
    Blend: CC-PVDZ
    Number of shells: 120
    Number of basis function: 256
    Number of Cartesian functions: 270
    Spherical Harmonics?: true
    Max angular momentum: 2

  ==> Pre-Iterations <==

   -------------------------------------------------------
    Irrep   Nso     Nmo     Nalpha   Nbeta   Ndocc  Nsocc
   -------------------------------------------------------
     A        256     256       0       0       0       0
   -------------------------------------------------------
    Total     256     256      51      51      51       0
   -------------------------------------------------------

  ==> Integral Setup <==

  Using integral reordering PK algorithm.
  Sizing the integral batches needed.
  Building batch lookup table.
   Calculation information:
      Number of atoms:                  26
      Number of AO shells:             120
      Number of primitives:            368
      Number of atomic orbitals:       270
      Number of basis functions:       256

      Integral cutoff                 1.00e-12
      Number of threads:                 1

	Batch   1 pq = [       0,    9405] index = [             0,44231715] size =     44231715
	Batch   2 pq = [    9405,   13301] index = [      44231715,88464951] size =     44233236
	Batch   3 pq = [   13301,   16290] index = [      88464951,132690195] size =     44225244
	Batch   4 pq = [   16290,   18810] index = [     132690195,176917455] size =     44227260
	Batch   5 pq = [   18810,   21030] index = [     176917455,221140965] size =     44223510
	Batch   6 pq = [   21030,   23037] index = [     221140965,265363203] size =     44222238
	Batch   7 pq = [   23037,   24883] index = [     265363203,309594286] size =     44231083
	Batch   8 pq = [   24883,   26601] index = [     309594286,353819901] size =     44225615
	Batch   9 pq = [   26601,   28214] index = [     353819901,398029005] size =     44209104
	Batch  10 pq = [   28214,   29740] index = [     398029005,442248670] size =     44219665
	Batch  11 pq = [   29740,   31191] index = [     442248670,486454836] size =     44206166
	Batch  12 pq = [   31191,   32578] index = [     486454836,530679331] size =     44224495
	Batch  13 pq = [   32578,   32896] index = [     530679331,541089856] size =     10410525
  Task number: 49
  Buffer size: 11059200
  Buffer per thread: 2
  We computed 21095483 shell quartets total.
  Whereas there are 26357430 unique shell quartets.

  ==> DiskJK: Disk-Based J/K Matrices <==

    J tasked:                  Yes
    K tasked:                  Yes
    wK tasked:                  No
    Memory [MiB]:              375
    Schwarz Cutoff:          1E-12

    OpenMP threads:              1

  Minimum eigenvalue in the overlap matrix is 2.3988395627E-04.
  Using Symmetric Orthogonalization.

  SCF Guess: Superposition of Atomic Densities via on-the-fly atomic UHF.

  ==> Iterations <==

                        Total Energy        Delta E     RMS |[F,P]|

   @RHF iter SAD:  -626.55775356349818   -6.26558e+02   0.00000e+00
   @RHF iter   1:  -627.44231693536528   -8.84563e-01   3.16398e-03 DIIS
   @RHF iter   2:  -627.72941089865594   -2.87094e-01   1.67103e-03 DIIS
   @RHF iter   3:  -627.80114110473176   -7.17302e-02   3.13160e-04 DIIS
   @RHF iter   4:  -627.80528929728450   -4.14819e-03   1.17436e-04 DIIS
   @RHF iter   5:  -627.80585072167139   -5.61424e-04   2.16784e-05 DIIS
   @RHF iter   6:  -627.80587510954365   -2.43879e-05   1.10824e-05 DIIS
   @RHF iter   7:  -627.80588092436858   -5.81482e-06   2.68575e-06 DIIS
   @RHF iter   8:  -627.80588179308643   -8.68718e-07   1.07320e-06 DIIS
   @RHF iter   9:  -627.80588193467827   -1.41592e-07   4.43872e-07 DIIS
   @RHF iter  10:  -627.80588195645771   -2.17794e-08   1.55428e-07 DIIS
   @RHF iter  11:  -627.80588196037502   -3.91731e-09   7.26860e-08 DIIS
   @RHF iter  12:  -627.80588196116923   -7.94216e-10   3.91766e-08 DIIS
   @RHF iter  13:  -627.80588196146027   -2.91038e-10   1.58431e-08 DIIS
   @RHF iter  14:  -627.80588196150245   -4.21778e-11   4.32765e-09 DIIS
   @RHF iter  15:  -627.80588196150063    1.81899e-12   1.27072e-09 DIIS
   @RHF iter  16:  -627.80588196150791   -7.27596e-12   5.69262e-10 DIIS
   @RHF iter  17:  -627.80588196150507    2.84217e-12   2.67881e-10 DIIS
   @RHF iter  18:  -627.80588196150507    0.00000e+00   1.18345e-10 DIIS
   @RHF iter  19:  -627.80588196150529   -2.27374e-13   5.26470e-11 DIIS
  Energy and wave function converged.

  ==> Post-Iterations <==

    Orbital Energies [Eh]
    ---------------------

    Doubly Occupied:

       1A    -20.295579     2A    -20.275241     3A    -15.474197
       4A    -11.156911     5A    -11.152658     6A    -11.142271
       7A    -11.141235     8A    -11.135613     9A    -11.127456
      10A    -11.126308    11A    -11.122496    12A    -11.119603
      13A    -11.113235    14A    -11.064086    15A     -1.179375
      16A     -1.173105    17A     -1.060273    18A     -1.024259
      19A     -0.969811    20A     -0.895203    21A     -0.884221
      22A     -0.832534    23A     -0.813891    24A     -0.734782
      25A     -0.697185    26A     -0.648590    27A     -0.609337
      28A     -0.556101    29A     -0.542333    30A     -0.526667
      31A     -0.501580    32A     -0.491410    33A     -0.486762
      34A     -0.467052    35A     -0.453618    36A     -0.443336
      37A     -0.429810    38A     -0.429434    39A     -0.423725
      40A     -0.423069    41A     -0.397995    42A     -0.371619
      43A     -0.360712    44A     -0.357335    45A     -0.326144
      46A     -0.270449    47A     -0.210815    48A     -0.194847
      49A     -0.190134    50A     -0.187059    51A     -0.169375

    Virtual:

      52A      0.226995    53A      0.271238    54A      0.272689
      55A      0.292096    56A      0.311178    57A      0.313319
      58A      0.325217    59A      0.334829    60A      0.341145
      61A      0.370659    62A      0.382433    63A      0.386717
      64A      0.398889    65A      0.431389    66A      0.433704
      67A      0.467330    68A      0.470732    69A      0.485587
      70A      0.520107    71A      0.536001    72A      0.546281
      73A      0.562261    74A      0.568140    75A      0.586277
      76A      0.612736    77A      0.633931    78A      0.683377
      79A      0.695703    80A      0.716349    81A      0.725220
      82A      0.742043    83A      0.751937    84A      0.763420
      85A      0.789082    86A      0.795690    87A      0.807365
      88A      0.812823    89A      0.825343    90A      0.834721
      91A      0.838010    92A      0.844673    93A      0.852114
      94A      0.854801    95A      0.860999    96A      0.870620
      97A      0.879553    98A      0.895392    99A      0.903550
     100A      0.927509   101A      0.940013   102A      0.947644
     103A      0.953820   104A      0.955140   105A      0.968250
     106A      0.989909   107A      0.991557   108A      0.998806
     109A      1.001398   110A      1.014292   111A      1.019061
     112A      1.026969   113A      1.035099   114A      1.057644
     115A      1.067017   116A      1.076237   117A      1.079871
     118A      1.102723   119A      1.125651   120A      1.148138
     121A      1.164401   122A      1.195253   123A      1.195937
     124A      1.205778   125A      1.229256   126A      1.239574
     127A      1.247017   128A      1.249279   129A      1.272555
     130A      1.307673   131A      1.320351   132A      1.328100
     133A      1.330692   134A      1.338144   135A      1.343979
     136A      1.347267   137A      1.381993   138A      1.386825
     139A      1.403693   140A      1.431674   141A      1.441283
     142A      1.455376   143A      1.461755   144A      1.497433
     145A      1.525614   146A      1.526636   147A      1.543528
     148A      1.554076   149A      1.582494   150A      1.598359
     151A      1.633484   152A      1.635810   153A      1.660412
     154A      1.660724   155A      1.676734   156A      1.707913
     157A      1.731261   158A      1.741124   159A      1.753551
     160A      1.760779   161A      1.773132   162A      1.803936
     163A      1.831028   164A      1.845188   165A      1.853523
     166A      1.867123   167A      1.876852   168A      1.896781
     169A      1.923877   170A      1.932523   171A      1.947701
     172A      1.979220   173A      1.986864   174A      1.993442
     175A      2.007539   176A      2.013413   177A      2.023653
     178A      2.027084   179A      2.036718   180A      2.062939
     181A      2.067560   182A      2.082538   183A      2.088007
     184A      2.098179   185A      2.110063   186A      2.111606
     187A      2.117923   188A      2.147585   189A      2.174592
     190A      2.175414   191A      2.196005   192A      2.199009
     193A      2.211660   194A      2.215359   195A      2.238586
     196A      2.255251   197A      2.256548   198A      2.265764
     199A      2.279587   200A      2.305665   201A      2.307838
     202A      2.359220   203A      2.369725   204A      2.373820
     205A      2.397689   206A      2.403088   207A      2.422379
     208A      2.432046   209A      2.445036   210A      2.471988
     211A      2.491325   212A      2.513500   213A      2.555562
     214A      2.564871   215A      2.582020   216A      2.641878
     217A      2.676647   218A      2.692707   219A      2.712923
     220A      2.726059   221A      2.735175   222A      2.752771
     223A      2.779331   224A      2.795607   225A      2.852889
     226A      2.868178   227A      2.870584   228A      2.894493
     229A      2.900012   230A      2.904357   231A      2.912981
     232A      2.952246   233A      2.959917   234A      2.965802
     235A      2.986398   236A      3.037783   237A      3.091101
     238A      3.134703   239A      3.159574   240A      3.186224
     241A      3.214106   242A      3.225400   243A      3.248395
     244A      3.270968   245A      3.318549   246A      3.335338
     247A      3.409881   248A      3.483655   249A      3.597737
     250A      3.777561   251A      3.804401   252A      3.863704
     253A      4.033941   254A      4.053099   255A      4.092461
     256A      4.171301

    Final Occupation by Irrep:
              A
    DOCC [    51 ]

  @RHF Final Energy:  -627.80588196150529

   => Energetics <=

    Nuclear Repulsion Energy =            797.4178615593608583
    One-Electron Energy =               -2452.0858195774790147
    Two-Electron Energy =                1026.8620760566127501
    Total Energy =                       -627.8058819615052926

Computation Completed

Properties will be evaluated at   0.000000,   0.000000,   0.000000 [a0]

Properties computed using the SCF density matrix

  Nuclear Dipole Moment: [e a0]
     X:     2.8034      Y:    -5.6072      Z:    -3.0538

  Electronic Dipole Moment: [e a0]
     X:     0.4182      Y:     1.5681      Z:     2.8140

  Dipole Moment: [e a0]
     X:     3.2217      Y:    -4.0391      Z:    -0.2399     Total:     5.1721

  Dipole Moment: [D]
     X:     8.1887      Y:   -10.2663      Z:    -0.6097     Total:    13.1462

*** tstop() called on ds3 at Tue Apr 28 03:43:50 2020
Module time:
	user time   =     196.91 seconds =       3.28 minutes
	system time =      87.69 seconds =       1.46 minutes
	total time  =        273 seconds =       4.55 minutes
Total time:
	user time   =     196.91 seconds =       3.28 minutes
	system time =      87.69 seconds =       1.46 minutes
	total time  =        273 seconds =       4.55 minutes
                                     G D M A

                                 by Anthony Stone

                           version 2.2.06, 22 June 2011

               Distributed Multipoles from Gaussian wavefunctions

Starting at 3:43:50 on 28 Apr 2020

Using SCF density matrix from file ./SSI/SSI-030TRP-042GLU-1-dimer.test.11369.fchk

                         Distributed Multipole Analysis

Standard DMA

Positions and radii in angstrom
Multipole moments in atomic units, ea_0^k for rank k

C          x =  4.049543  y = -0.562958  z = -0.918073 angstrom
           Maximum rank =  0   Radius =  0.650 angstrom
                   Q00  =  -0.221628

C          x =  1.976543  y =  0.798042  z = -0.238073 angstrom
           Maximum rank =  0   Radius =  0.650 angstrom
                   Q00  =   0.138086

C          x =  0.505543  y = -0.765958  z =  0.330927 angstrom
           Maximum rank =  0   Radius =  0.650 angstrom
                   Q00  =   0.271755

C          x =  2.650543  y = -0.373958  z = -0.410073 angstrom
           Maximum rank =  0   Radius =  0.650 angstrom
                   Q00  =  -0.168600

C          x =  1.711543  y = -1.404958  z = -0.058073 angstrom
           Maximum rank =  0   Radius =  0.650 angstrom
                   Q00  =  -0.061219

C          x = -0.608457  y = -1.491958  z =  0.733927 angstrom
           Maximum rank =  0   Radius =  0.650 angstrom
                   Q00  =  -0.091387

C          x = -0.509457  y = -2.868958  z =  0.742927 angstrom
           Maximum rank =  0   Radius =  0.650 angstrom
                   Q00  =  -0.004220

C          x =  1.787543  y = -2.809958  z = -0.042073 angstrom
           Maximum rank =  0   Radius =  0.650 angstrom
                   Q00  =  -0.119098

C          x =  0.658543  y = -3.539958  z =  0.365927 angstrom
           Maximum rank =  0   Radius =  0.650 angstrom
                   Q00  =  -0.106116

N          x =  0.698543  y =  0.578042  z =  0.211927 angstrom
           Maximum rank =  0   Radius =  0.650 angstrom
                   Q00  =  -0.526344

H          x = -0.033457  y =  1.291042  z =  0.285927 angstrom
           Maximum rank =  0   Radius =  0.325 angstrom
                   Q00  =   0.299334

H          x =  2.384543  y =  1.779042  z = -0.458073 angstrom
           Maximum rank =  0   Radius =  0.325 angstrom
                   Q00  =   0.080121

H          x = -1.517457  y = -0.992958  z =  1.024927 angstrom
           Maximum rank =  0   Radius =  0.325 angstrom
                   Q00  =   0.082230

H          x =  4.065543  y = -0.242958  z = -1.960073 angstrom
           Maximum rank =  0   Radius =  0.325 angstrom
                   Q00  =   0.089106

H          x =  4.295543  y = -1.625958  z = -0.902073 angstrom
           Maximum rank =  0   Radius =  0.325 angstrom
                   Q00  =   0.097868

H          x = -1.369457  y = -3.447958  z =  1.040927 angstrom
           Maximum rank =  0   Radius =  0.325 angstrom
                   Q00  =   0.039562

H          x =  2.696543  y = -3.315958  z = -0.332073 angstrom
           Maximum rank =  0   Radius =  0.325 angstrom
                   Q00  =   0.047342

H          x =  0.700543  y = -4.614958  z =  0.406927 angstrom
           Maximum rank =  0   Radius =  0.325 angstrom
                   Q00  =   0.035710

H          x =  4.827303  y = -0.005046  z = -0.376023 angstrom
           Maximum rank =  0   Radius =  0.325 angstrom
                   Q00  =   0.090618

C          x = -4.036457  y =  1.913042  z = -0.550073 angstrom
           Maximum rank =  0   Radius =  0.650 angstrom
                   Q00  =  -0.286799

C          x = -2.849457  y =  2.735042  z = -0.104073 angstrom
           Maximum rank =  0   Radius =  0.650 angstrom
                   Q00  =   0.974571

O          x = -1.788457  y =  2.168042  z =  0.217927 angstrom
           Maximum rank =  0   Radius =  0.650 angstrom
                   Q00  =  -0.938654

O          x = -3.016457  y =  3.986042  z = -0.088073 angstrom
           Maximum rank =  0   Radius =  0.650 angstrom
                   Q00  =  -0.929908

H          x = -4.418457  y =  2.313042  z = -1.492073 angstrom
           Maximum rank =  0   Radius =  0.325 angstrom
                   Q00  =   0.074286

H          x = -4.818457  y =  2.002042  z =  0.199927 angstrom
           Maximum rank =  0   Radius =  0.325 angstrom
                   Q00  =   0.082361

H          x = -3.795508  y =  0.849694  z = -0.695793 angstrom
           Maximum rank =  0   Radius =  0.325 angstrom
                   Q00  =   0.051024

Total multipoles referred to origin at
           x =   0.000000,  y =    0.000000,  z =    0.000000 angstrom
                   Q00  =  -1.000000

Finished at 3:43:50 on 28 Apr 2020

  DMA results are available in the Python driver through the
	  variable('DMA DISTRIBUTED MULTIPOLES')
  and
	  variable('DMA TOTAL MULTIPOLES')
  commands.

    Psi4 stopped on: Tuesday, 28 April 2020 03:43AM
    Psi4 wall time for execution: 0:04:33.09

*** Psi4 exiting successfully. Buy a developer a beer!
