                               Psi4 1.3.2 release

  ==> Input File <==

--------------------------------------------------------------------------
import numpy as np
set {scf_type pk
basis cc-pvdz
d_convergence 10
gdma_switch   0
gdma_limit    0
gdma_origin   [ 0.0,  0.0,  0.0 ]
}
molecule test {
    units Angstrom
    0 1
    --
    0 1
    C                0.565383781202817    -1.985133795279353     1.563993313320321
    C               -0.737616218797183    -1.987133795279352     2.357993313320321
    H                1.416383781202817    -2.226133795279353     2.198993313320321
    H                0.498383781202817    -2.745133795279353     0.789993313320321
    H                0.737383781202817    -1.019133795279353     1.098993313320321
    H               -1.560616218797183    -1.881133795279353     1.655993313320321
    H               -0.759036218797183    -1.131693795279353     3.049203313320321
    H               -0.853416218797183    -2.938743795279352     2.897453313320321
    C               -0.708616218797183    -0.610133795279353    -2.307006686679679
    C               -0.912616218797183     0.759866204720647    -0.127006686679679
    C               -0.251616218797183     0.313866204720647    -1.225006686679678
    C                1.131383781202817     1.571866204720647    -0.069006686679679
    N               -0.027616218797183     1.545866204720648     0.578993313320321
    N                1.025383781202817     0.835866204720647    -1.170006686679679
    H               -1.928616218797183     0.507866204720647     0.149993313320321
    H               -0.180616218797183     1.958866204720647     1.490993313320321
    H               -1.262616218797183    -1.427133795279353    -1.859006686679679
    H                0.187383781202817    -1.032133795279352    -2.762006686679679
    H                2.039383781202817     2.043866204720648     0.284993313320321
    H               -1.318096218797183    -0.140803795279353    -3.093296686679678

}
e, wfn = energy('scf', return_wfn=True)
gdma(wfn)
dmavals = variable('DMA DISTRIBUTED MULTIPOLES')
charges = np.array(dmavals)
print(charges)
np.save('SSI-113VAL-120HIE-2-dimer.npy', np.array(charges))--------------------------------------------------------------------------

*** tstart() called on ds3
*** at Mon Apr 27 10:11:34 2020

   => Loading Basis Set <=

    Name: CC-PVDZ
    Role: ORBITAL
    Keyword: BASIS
    atoms 1-2, 9-12  entry C          line   138 file /theoryfs2/ds/metcalf/miniconda2/envs/tf2gpu/share/psi4/basis/cc-pvdz.gbs
    atoms 3-8, 15-20 entry H          line    22 file /theoryfs2/ds/metcalf/miniconda2/envs/tf2gpu/share/psi4/basis/cc-pvdz.gbs
    atoms 13-14      entry N          line   168 file /theoryfs2/ds/metcalf/miniconda2/envs/tf2gpu/share/psi4/basis/cc-pvdz.gbs

         ---------------------------------------------------------
                                   SCF
               by Justin Turney, Rob Parrish, Andy Simmonett
                          and Daniel G. A. Smith
                              RHF Reference
                        1 Threads,    500 MiB Core
         ---------------------------------------------------------

  ==> Geometry <==

    Molecular point group: c1
    Full point group: C1

    Geometry (in Angstrom), charge = 0, multiplicity = 1:

       Center              X                  Y                   Z               Mass
    ------------   -----------------  -----------------  -----------------  -----------------
         C            0.565383781203    -1.985133795279     1.563993313320    12.000000000000
         C           -0.737616218797    -1.987133795279     2.357993313320    12.000000000000
         H            1.416383781203    -2.226133795279     2.198993313320     1.007825032230
         H            0.498383781203    -2.745133795279     0.789993313320     1.007825032230
         H            0.737383781203    -1.019133795279     1.098993313320     1.007825032230
         H           -1.560616218797    -1.881133795279     1.655993313320     1.007825032230
         H           -0.759036218797    -1.131693795279     3.049203313320     1.007825032230
         H           -0.853416218797    -2.938743795279     2.897453313320     1.007825032230
         C           -0.708616218797    -0.610133795279    -2.307006686680    12.000000000000
         C           -0.912616218797     0.759866204721    -0.127006686680    12.000000000000
         C           -0.251616218797     0.313866204721    -1.225006686680    12.000000000000
         C            1.131383781203     1.571866204721    -0.069006686680    12.000000000000
         N           -0.027616218797     1.545866204721     0.578993313320    14.003074004430
         N            1.025383781203     0.835866204721    -1.170006686680    14.003074004430
         H           -1.928616218797     0.507866204721     0.149993313320     1.007825032230
         H           -0.180616218797     1.958866204721     1.490993313320     1.007825032230
         H           -1.262616218797    -1.427133795279    -1.859006686680     1.007825032230
         H            0.187383781203    -1.032133795279    -2.762006686680     1.007825032230
         H            2.039383781203     2.043866204721     0.284993313320     1.007825032230
         H           -1.318096218797    -0.140803795279    -3.093296686680     1.007825032230

  Running in c1 symmetry.

  Rotational constants: A =      0.08093  B =      0.04217  C =      0.03475 [cm^-1]
  Rotational constants: A =   2426.25125  B =   1264.21295  C =   1041.87693 [MHz]
  Nuclear repulsion =  368.591732080134477

  Charge       = 0
  Multiplicity = 1
  Electrons    = 62
  Nalpha       = 31
  Nbeta        = 31

  ==> Algorithm <==

  SCF Algorithm Type is PK.
  DIIS enabled.
  MOM disabled.
  Fractional occupation disabled.
  Guess Type is SAD.
  Energy threshold   = 1.00e-06
  Density threshold  = 1.00e-10
  Integral threshold = 0.00e+00

  ==> Primary Basis <==

  Basis Set: CC-PVDZ
    Blend: CC-PVDZ
    Number of shells: 84
    Number of basis function: 172
    Number of Cartesian functions: 180
    Spherical Harmonics?: true
    Max angular momentum: 2

  ==> Pre-Iterations <==

   -------------------------------------------------------
    Irrep   Nso     Nmo     Nalpha   Nbeta   Ndocc  Nsocc
   -------------------------------------------------------
     A        172     172       0       0       0       0
   -------------------------------------------------------
    Total     172     172      31      31      31       0
   -------------------------------------------------------

  ==> Integral Setup <==

  Using integral reordering PK algorithm.
  Sizing the integral batches needed.
  Building batch lookup table.
   Calculation information:
      Number of atoms:                  20
      Number of AO shells:              84
      Number of primitives:            236
      Number of atomic orbitals:       180
      Number of basis functions:       172

      Integral cutoff                 1.00e-12
      Number of threads:                 1

	Batch   1 pq = [       0,    9405] index = [             0,44231715] size =     44231715
	Batch   2 pq = [    9405,   13301] index = [      44231715,88464951] size =     44233236
	Batch   3 pq = [   13301,   14878] index = [      88464951,110684881] size =     22219930
  Task number: 11
  Buffer size: 11059200
  Buffer per thread: 2
  We computed 6276818 shell quartets total.
  Whereas there are 6374235 unique shell quartets.

  ==> DiskJK: Disk-Based J/K Matrices <==

    J tasked:                  Yes
    K tasked:                  Yes
    wK tasked:                  No
    Memory [MiB]:              375
    Schwarz Cutoff:          1E-12

    OpenMP threads:              1

  Minimum eigenvalue in the overlap matrix is 1.1597865184E-03.
  Using Symmetric Orthogonalization.

  SCF Guess: Superposition of Atomic Densities via on-the-fly atomic UHF.

  ==> Iterations <==

                        Total Energy        Delta E     RMS |[F,P]|

   @RHF iter SAD:  -342.25268043034339   -3.42253e+02   0.00000e+00
   @RHF iter   1:  -342.88533884722182   -6.32658e-01   3.36727e-03 DIIS
   @RHF iter   2:  -343.05808230188842   -1.72743e-01   1.70285e-03 DIIS
   @RHF iter   3:  -343.09867273986140   -4.05904e-02   4.33110e-04 DIIS
   @RHF iter   4:  -343.10212697649575   -3.45424e-03   1.81475e-04 DIIS
   @RHF iter   5:  -343.10268603801848   -5.59062e-04   2.70198e-05 DIIS
   @RHF iter   6:  -343.10270717444791   -2.11364e-05   1.16945e-05 DIIS
   @RHF iter   7:  -343.10271069803991   -3.52359e-06   4.15099e-06 DIIS
   @RHF iter   8:  -343.10271146138427   -7.63344e-07   1.66867e-06 DIIS
   @RHF iter   9:  -343.10271163055950   -1.69175e-07   6.18556e-07 DIIS
   @RHF iter  10:  -343.10271164832051   -1.77610e-08   1.96794e-07 DIIS
   @RHF iter  11:  -343.10271165039126   -2.07075e-09   8.32759e-08 DIIS
   @RHF iter  12:  -343.10271165067820   -2.86946e-10   3.34224e-08 DIIS
   @RHF iter  13:  -343.10271165072794   -4.97380e-11   8.59525e-09 DIIS
   @RHF iter  14:  -343.10271165073101   -3.06954e-12   3.15231e-09 DIIS
   @RHF iter  15:  -343.10271165073192   -9.09495e-13   1.31364e-09 DIIS
   @RHF iter  16:  -343.10271165073340   -1.47793e-12   4.10396e-10 DIIS
   @RHF iter  17:  -343.10271165073226    1.13687e-12   1.23639e-10 DIIS
   @RHF iter  18:  -343.10271165072987    2.38742e-12   4.73032e-11 DIIS
  Energy and wave function converged.

  ==> Post-Iterations <==

    Orbital Energies [Eh]
    ---------------------

    Doubly Occupied:

       1A    -15.622932     2A    -15.530359     3A    -11.293688
       4A    -11.250614     5A    -11.241819     6A    -11.222218
       7A    -11.217848     8A    -11.207486     9A     -1.343312
      10A     -1.155062    11A     -1.032905    12A     -1.015338
      13A     -0.942587    14A     -0.833028    15A     -0.819128
      16A     -0.762478    17A     -0.742904    18A     -0.614659
      19A     -0.611795    20A     -0.598787    21A     -0.594724
      22A     -0.586441    23A     -0.555280    24A     -0.539049
      25A     -0.520284    26A     -0.496115    27A     -0.482603
      28A     -0.479866    29A     -0.412323    30A     -0.380362
      31A     -0.310694

    Virtual:

      32A      0.159595    33A      0.173914    34A      0.190107
      35A      0.214881    36A      0.217447    37A      0.228639
      38A      0.235712    39A      0.257184    40A      0.265894
      41A      0.268281    42A      0.280299    43A      0.298805
      44A      0.318186    45A      0.322765    46A      0.379917
      47A      0.389793    48A      0.402215    49A      0.419860
      50A      0.482764    51A      0.526723    52A      0.569572
      53A      0.586539    54A      0.605090    55A      0.617415
      56A      0.626014    57A      0.654642    58A      0.663803
      59A      0.684764    60A      0.704324    61A      0.720235
      62A      0.728448    63A      0.754749    64A      0.789141
      65A      0.807424    66A      0.835044    67A      0.844351
      68A      0.860220    69A      0.876411    70A      0.880160
      71A      0.894510    72A      0.898157    73A      0.908267
      74A      0.921356    75A      0.924571    76A      0.947078
      77A      0.951679    78A      0.960657    79A      0.976167
      80A      0.995293    81A      1.003164    82A      1.040902
      83A      1.063070    84A      1.091225    85A      1.110988
      86A      1.124292    87A      1.145650    88A      1.158633
      89A      1.169587    90A      1.177934    91A      1.245346
      92A      1.276312    93A      1.284672    94A      1.312443
      95A      1.332618    96A      1.381604    97A      1.423242
      98A      1.451077    99A      1.478198   100A      1.491220
     101A      1.500891   102A      1.519794   103A      1.566721
     104A      1.604175   105A      1.616220   106A      1.651960
     107A      1.683944   108A      1.693596   109A      1.709468
     110A      1.742335   111A      1.773718   112A      1.819274
     113A      1.847757   114A      1.852963   115A      1.876926
     116A      1.887198   117A      1.897968   118A      1.911741
     119A      1.928182   120A      1.938381   121A      1.947315
     122A      1.953227   123A      1.959840   124A      1.963852
     125A      1.976177   126A      1.984024   127A      1.999855
     128A      2.006379   129A      2.050839   130A      2.079789
     131A      2.088855   132A      2.112919   133A      2.137407
     134A      2.164681   135A      2.212241   136A      2.249035
     137A      2.263761   138A      2.292872   139A      2.310423
     140A      2.333828   141A      2.361280   142A      2.386472
     143A      2.419068   144A      2.446006   145A      2.472156
     146A      2.479462   147A      2.496113   148A      2.575992
     149A      2.582725   150A      2.592832   151A      2.614687
     152A      2.684253   153A      2.745665   154A      2.759185
     155A      2.771873   156A      2.785766   157A      2.792604
     158A      2.820936   159A      2.845920   160A      2.857075
     161A      2.869335   162A      2.876178   163A      2.898351
     164A      2.926403   165A      2.967851   166A      2.985786
     167A      3.002211   168A      3.066470   169A      3.156122
     170A      3.228611   171A      3.466931   172A      3.798970

    Final Occupation by Irrep:
              A
    DOCC [    31 ]

  @RHF Final Energy:  -343.10271165072987

   => Energetics <=

    Nuclear Repulsion Energy =            368.5917320801344772
    One-Electron Energy =               -1194.5555087560996981
    Two-Electron Energy =                 482.8610650252352912
    Total Energy =                       -343.1027116507298729

Computation Completed

Properties will be evaluated at   0.000000,   0.000000,   0.000000 [a0]

Properties computed using the SCF density matrix

  Nuclear Dipole Moment: [e a0]
     X:    -2.8004      Y:    -9.4111      Z:     5.5349

  Electronic Dipole Moment: [e a0]
     X:     2.2366      Y:     9.8357      Z:    -4.4632

  Dipole Moment: [e a0]
     X:    -0.5638      Y:     0.4246      Z:     1.0717     Total:     1.2833

  Dipole Moment: [D]
     X:    -1.4329      Y:     1.0793      Z:     2.7241     Total:     3.2617

*** tstop() called on ds3 at Mon Apr 27 10:15:04 2020
Module time:
	user time   =      44.16 seconds =       0.74 minutes
	system time =      16.05 seconds =       0.27 minutes
	total time  =        210 seconds =       3.50 minutes
Total time:
	user time   =      44.16 seconds =       0.74 minutes
	system time =      16.05 seconds =       0.27 minutes
	total time  =        210 seconds =       3.50 minutes
                                     G D M A

                                 by Anthony Stone

                           version 2.2.06, 22 June 2011

               Distributed Multipoles from Gaussian wavefunctions

Starting at 10:15:4 on 27 Apr 2020

Using SCF density matrix from file ./SSI/SSI-113VAL-120HIE-2-dimer.test.2428.fchk

                         Distributed Multipole Analysis

Standard DMA

Positions and radii in angstrom
Multipole moments in atomic units, ea_0^k for rank k

C          x =  0.565384  y = -1.985134  z =  1.563993 angstrom
           Maximum rank =  0   Radius =  0.650 angstrom
                   Q00  =  -0.227410

C          x = -0.737616  y = -1.987134  z =  2.357993 angstrom
           Maximum rank =  0   Radius =  0.650 angstrom
                   Q00  =  -0.241416

H          x =  1.416384  y = -2.226134  z =  2.198993 angstrom
           Maximum rank =  0   Radius =  0.325 angstrom
                   Q00  =   0.071661

H          x =  0.498384  y = -2.745134  z =  0.789993 angstrom
           Maximum rank =  0   Radius =  0.325 angstrom
                   Q00  =   0.076799

H          x =  0.737384  y = -1.019134  z =  1.098993 angstrom
           Maximum rank =  0   Radius =  0.325 angstrom
                   Q00  =   0.090695

H          x = -1.560616  y = -1.881134  z =  1.655993 angstrom
           Maximum rank =  0   Radius =  0.325 angstrom
                   Q00  =   0.073477

H          x = -0.759036  y = -1.131694  z =  3.049203 angstrom
           Maximum rank =  0   Radius =  0.325 angstrom
                   Q00  =   0.065799

H          x = -0.853416  y = -2.938744  z =  2.897453 angstrom
           Maximum rank =  0   Radius =  0.325 angstrom
                   Q00  =   0.080059

C          x = -0.708616  y = -0.610134  z = -2.307007 angstrom
           Maximum rank =  0   Radius =  0.650 angstrom
                   Q00  =  -0.201524

C          x = -0.912616  y =  0.759866  z = -0.127007 angstrom
           Maximum rank =  0   Radius =  0.650 angstrom
                   Q00  =   0.002095

C          x = -0.251616  y =  0.313866  z = -1.225007 angstrom
           Maximum rank =  0   Radius =  0.650 angstrom
                   Q00  =   0.238240

C          x =  1.131384  y =  1.571866  z = -0.069007 angstrom
           Maximum rank =  0   Radius =  0.650 angstrom
                   Q00  =   0.458118

N          x = -0.027616  y =  1.545866  z =  0.578993 angstrom
           Maximum rank =  0   Radius =  0.650 angstrom
                   Q00  =  -0.475568

N          x =  1.025384  y =  0.835866  z = -1.170007 angstrom
           Maximum rank =  0   Radius =  0.650 angstrom
                   Q00  =  -0.774508

H          x = -1.928616  y =  0.507866  z =  0.149993 angstrom
           Maximum rank =  0   Radius =  0.325 angstrom
                   Q00  =   0.100342

H          x = -0.180616  y =  1.958866  z =  1.490993 angstrom
           Maximum rank =  0   Radius =  0.325 angstrom
                   Q00  =   0.221045

H          x = -1.262616  y = -1.427134  z = -1.859007 angstrom
           Maximum rank =  0   Radius =  0.325 angstrom
                   Q00  =   0.095683

H          x =  0.187384  y = -1.032134  z = -2.762007 angstrom
           Maximum rank =  0   Radius =  0.325 angstrom
                   Q00  =   0.120760

H          x =  2.039384  y =  2.043866  z =  0.284993 angstrom
           Maximum rank =  0   Radius =  0.325 angstrom
                   Q00  =   0.123159

H          x = -1.318096  y = -0.140804  z = -3.093297 angstrom
           Maximum rank =  0   Radius =  0.325 angstrom
                   Q00  =   0.102493

Total multipoles referred to origin at
           x =   0.000000,  y =    0.000000,  z =    0.000000 angstrom
                   Q00  =  -0.000000

Finished at 10:15:4 on 27 Apr 2020

  DMA results are available in the Python driver through the
	  variable('DMA DISTRIBUTED MULTIPOLES')
  and
	  variable('DMA TOTAL MULTIPOLES')
  commands.

    Psi4 stopped on: Monday, 27 April 2020 10:15AM
    Psi4 wall time for execution: 0:03:30.12

*** Psi4 exiting successfully. Buy a developer a beer!
