                               Psi4 1.3.2 release

  ==> Input File <==

--------------------------------------------------------------------------
import numpy as np
set {scf_type pk
basis cc-pvdz
d_convergence 10
gdma_switch   0
gdma_limit    0
gdma_origin   [ 0.0,  0.0,  0.0 ]
}
molecule test {
    units Angstrom
    0 1
    --
    0 1
    C                1.042758949880874     1.433866176400862    -0.290464169339921
    C                2.335758949880873     1.530866176400862     0.513535830660079
    H                0.988758949880874     0.475866176400862    -0.810464169339921
    H                0.187758949880874     1.525866176400862     0.380535830660079
    H                1.001758949880874     2.242866176400862    -1.021464169339921
    H                2.352758949880874     2.502866176400862     1.010535830660079
    H                3.212948949880873     1.451874176400862    -0.145482169339921
    H                2.351678949880873     0.758939176400862     1.297037830660079
    C               -1.919241050119127    -0.954133823599138     0.389535830660079
    C               -1.461241050119127    -2.020133823599138    -0.615464169339921
    H               -2.854241050119127    -1.254133823599138     0.863535830660079
    H               -1.162241050119126    -0.794133823599138     1.157535830660079
    H               -2.060241050119126     0.009866176400862    -0.100464169339921
    H               -0.524241050119126    -1.676133823599138    -1.058464169339921
    H               -2.206371050119126    -2.145753823599138    -1.414839169339921
    H               -1.264941050119126    -2.984453823599138    -0.123989169339921

}
e, wfn = energy('scf', return_wfn=True)
gdma(wfn)
dmavals = variable('DMA DISTRIBUTED MULTIPOLES')
charges = np.array(dmavals)
print(charges)
np.save('SSI-002ALA-101ILE-1-dimer.npy', np.array(charges))--------------------------------------------------------------------------

*** tstart() called on ds3
*** at Tue Apr 28 03:22:14 2020

   => Loading Basis Set <=

    Name: CC-PVDZ
    Role: ORBITAL
    Keyword: BASIS
    atoms 1-2, 9-10  entry C          line   138 file /theoryfs2/ds/metcalf/miniconda2/envs/tf2gpu/share/psi4/basis/cc-pvdz.gbs
    atoms 3-8, 11-16 entry H          line    22 file /theoryfs2/ds/metcalf/miniconda2/envs/tf2gpu/share/psi4/basis/cc-pvdz.gbs

         ---------------------------------------------------------
                                   SCF
               by Justin Turney, Rob Parrish, Andy Simmonett
                          and Daniel G. A. Smith
                              RHF Reference
                        1 Threads,    500 MiB Core
         ---------------------------------------------------------

  ==> Geometry <==

    Molecular point group: c1
    Full point group: C1

    Geometry (in Angstrom), charge = 0, multiplicity = 1:

       Center              X                  Y                   Z               Mass
    ------------   -----------------  -----------------  -----------------  -----------------
         C            1.042758949881     1.433866176401    -0.290464169340    12.000000000000
         C            2.335758949881     1.530866176401     0.513535830660    12.000000000000
         H            0.988758949881     0.475866176401    -0.810464169340     1.007825032230
         H            0.187758949881     1.525866176401     0.380535830660     1.007825032230
         H            1.001758949881     2.242866176401    -1.021464169340     1.007825032230
         H            2.352758949881     2.502866176401     1.010535830660     1.007825032230
         H            3.212948949881     1.451874176401    -0.145482169340     1.007825032230
         H            2.351678949881     0.758939176401     1.297037830660     1.007825032230
         C           -1.919241050119    -0.954133823599     0.389535830660    12.000000000000
         C           -1.461241050119    -2.020133823599    -0.615464169340    12.000000000000
         H           -2.854241050119    -1.254133823599     0.863535830660     1.007825032230
         H           -1.162241050119    -0.794133823599     1.157535830660     1.007825032230
         H           -2.060241050119     0.009866176401    -0.100464169340     1.007825032230
         H           -0.524241050119    -1.676133823599    -1.058464169340     1.007825032230
         H           -2.206371050119    -2.145753823599    -1.414839169340     1.007825032230
         H           -1.264941050119    -2.984453823599    -0.123989169340     1.007825032230

  Running in c1 symmetry.

  Rotational constants: A =      0.42865  B =      0.05002  C =      0.04876 [cm^-1]
  Rotational constants: A =  12850.74185  B =   1499.61529  C =   1461.86204 [MHz]
  Nuclear repulsion =  122.295206390547307

  Charge       = 0
  Multiplicity = 1
  Electrons    = 36
  Nalpha       = 18
  Nbeta        = 18

  ==> Algorithm <==

  SCF Algorithm Type is PK.
  DIIS enabled.
  MOM disabled.
  Fractional occupation disabled.
  Guess Type is SAD.
  Energy threshold   = 1.00e-06
  Density threshold  = 1.00e-10
  Integral threshold = 0.00e+00

  ==> Primary Basis <==

  Basis Set: CC-PVDZ
    Blend: CC-PVDZ
    Number of shells: 60
    Number of basis function: 116
    Number of Cartesian functions: 120
    Spherical Harmonics?: true
    Max angular momentum: 2

  ==> Pre-Iterations <==

   -------------------------------------------------------
    Irrep   Nso     Nmo     Nalpha   Nbeta   Ndocc  Nsocc
   -------------------------------------------------------
     A        116     116       0       0       0       0
   -------------------------------------------------------
    Total     116     116      18      18      18       0
   -------------------------------------------------------

  ==> Integral Setup <==

  Using integral reordering PK algorithm.
  Sizing the integral batches needed.
  Building batch lookup table.
   Calculation information:
      Number of atoms:                  16
      Number of AO shells:              60
      Number of primitives:            148
      Number of atomic orbitals:       120
      Number of basis functions:       116

      Integral cutoff                 1.00e-12
      Number of threads:                 1

	Batch   1 pq = [       0,    6786] index = [             0,23028291] size =     23028291
  Task number: 3
  Buffer size: 11059200
  Buffer per thread: 2
  We computed 1451880 shell quartets total.
  Whereas there are 1675365 unique shell quartets.

  ==> DiskJK: Disk-Based J/K Matrices <==

    J tasked:                  Yes
    K tasked:                  Yes
    wK tasked:                  No
    Memory [MiB]:              375
    Schwarz Cutoff:          1E-12

    OpenMP threads:              1

  Minimum eigenvalue in the overlap matrix is 7.4465876887E-03.
  Using Symmetric Orthogonalization.

  SCF Guess: Superposition of Atomic Densities via on-the-fly atomic UHF.

  ==> Iterations <==

                        Total Energy        Delta E     RMS |[F,P]|

   @RHF iter SAD:  -157.32954583800495   -1.57330e+02   0.00000e+00
   @RHF iter   1:  -158.30881354595402   -9.79268e-01   4.20527e-03 DIIS
   @RHF iter   2:  -158.44177271420733   -1.32959e-01   1.80036e-03 DIIS
   @RHF iter   3:  -158.46527949235150   -2.35068e-02   3.48968e-04 DIIS
   @RHF iter   4:  -158.46710532013222   -1.82583e-03   3.83813e-05 DIIS
   @RHF iter   5:  -158.46712843078231   -2.31107e-05   6.19861e-06 DIIS
   @RHF iter   6:  -158.46712901510233   -5.84320e-07   8.07621e-07 DIIS
   @RHF iter   7:  -158.46712902251812   -7.41579e-09   2.52161e-07 DIIS
   @RHF iter   8:  -158.46712902302485   -5.06731e-10   3.60678e-08 DIIS
   @RHF iter   9:  -158.46712902304228   -1.74225e-11   6.32998e-09 DIIS
   @RHF iter  10:  -158.46712902304290   -6.25278e-13   1.53105e-09 DIIS
   @RHF iter  11:  -158.46712902304250    3.97904e-13   4.27671e-10 DIIS
   @RHF iter  12:  -158.46712902304267   -1.70530e-13   1.31427e-10 DIIS
   @RHF iter  13:  -158.46712902304267    0.00000e+00   1.95084e-11 DIIS
  Energy and wave function converged.

  ==> Post-Iterations <==

    Orbital Energies [Eh]
    ---------------------

    Doubly Occupied:

       1A    -11.220446     2A    -11.219732     3A    -11.217281
       4A    -11.217272     5A     -1.019688     6A     -1.015486
       7A     -0.838643     8A     -0.835573     9A     -0.602813
      10A     -0.599364    11A     -0.593849    12A     -0.593147
      13A     -0.503780    14A     -0.499120    15A     -0.489837
      16A     -0.485264    17A     -0.484783    18A     -0.481258

    Virtual:

      19A      0.168295    20A      0.198937    21A      0.222500
      22A      0.231159    23A      0.242674    24A      0.259652
      25A      0.263102    26A      0.274493    27A      0.276271
      28A      0.300078    29A      0.306422    30A      0.358357
      31A      0.390991    32A      0.410744    33A      0.567242
      34A      0.586578    35A      0.598799    36A      0.609620
      37A      0.612855    38A      0.629494    39A      0.661472
      40A      0.684000    41A      0.693149    42A      0.792502
      43A      0.836933    44A      0.850663    45A      0.886232
      46A      0.888488    47A      0.891254    48A      0.894081
      49A      0.902169    50A      0.904735    51A      0.912621
      52A      0.926390    53A      0.932239    54A      0.957772
      55A      0.978218    56A      0.991585    57A      1.124609
      58A      1.130101    59A      1.134321    60A      1.147080
      61A      1.224845    62A      1.262139    63A      1.462324
      64A      1.471920    65A      1.476643    66A      1.489924
      67A      1.558300    68A      1.582680    69A      1.678311
      70A      1.682881    71A      1.693803    72A      1.699190
      73A      1.849121    74A      1.858089    75A      1.867760
      76A      1.883869    77A      1.892202    78A      1.915168
      79A      1.933403    80A      1.942510    81A      1.944889
      82A      1.946311    83A      1.950090    84A      1.956711
      85A      1.960455    86A      1.965252    87A      1.970025
      88A      2.021755    89A      2.090738    90A      2.102481
      91A      2.111944    92A      2.115280    93A      2.294953
      94A      2.299624    95A      2.310361    96A      2.328874
      97A      2.443405    98A      2.455313    99A      2.458972
     100A      2.473811   101A      2.546817   102A      2.559669
     103A      2.568935   104A      2.573705   105A      2.757003
     106A      2.764603   107A      2.785909   108A      2.791420
     109A      2.843627   110A      2.854136   111A      2.861085
     112A      2.863881   113A      2.937390   114A      2.947361
     115A      2.957317   116A      2.975181

    Final Occupation by Irrep:
              A
    DOCC [    18 ]

  @RHF Final Energy:  -158.46712902304267

   => Energetics <=

    Nuclear Repulsion Energy =            122.2952063905473068
    One-Electron Energy =                -453.6900004022218695
    Two-Electron Energy =                 172.9276649886318751
    Total Energy =                       -158.4671290230426735

Computation Completed

Properties will be evaluated at   0.000000,   0.000000,   0.000000 [a0]

Properties computed using the SCF density matrix

  Nuclear Dipole Moment: [e a0]
     X:     0.0219      Y:     0.1064      Z:     0.0319

  Electronic Dipole Moment: [e a0]
     X:    -0.0230      Y:    -0.0832      Z:    -0.0294

  Dipole Moment: [e a0]
     X:    -0.0010      Y:     0.0232      Z:     0.0025     Total:     0.0234

  Dipole Moment: [D]
     X:    -0.0026      Y:     0.0591      Z:     0.0063     Total:     0.0595

*** tstop() called on ds3 at Tue Apr 28 03:22:24 2020
Module time:
	user time   =       7.34 seconds =       0.12 minutes
	system time =       2.91 seconds =       0.05 minutes
	total time  =         10 seconds =       0.17 minutes
Total time:
	user time   =       7.34 seconds =       0.12 minutes
	system time =       2.91 seconds =       0.05 minutes
	total time  =         10 seconds =       0.17 minutes
                                     G D M A

                                 by Anthony Stone

                           version 2.2.06, 22 June 2011

               Distributed Multipoles from Gaussian wavefunctions

Starting at 3:22:24 on 28 Apr 2020

Using SCF density matrix from file ./SSI/SSI-002ALA-101ILE-1-dimer.test.21392.fchk

                         Distributed Multipole Analysis

Standard DMA

Positions and radii in angstrom
Multipole moments in atomic units, ea_0^k for rank k

C          x =  1.042759  y =  1.433866  z = -0.290464 angstrom
           Maximum rank =  0   Radius =  0.650 angstrom
                   Q00  =  -0.231890

C          x =  2.335759  y =  1.530866  z =  0.513536 angstrom
           Maximum rank =  0   Radius =  0.650 angstrom
                   Q00  =  -0.240044

H          x =  0.988759  y =  0.475866  z = -0.810464 angstrom
           Maximum rank =  0   Radius =  0.325 angstrom
                   Q00  =   0.079134

H          x =  0.187759  y =  1.525866  z =  0.380536 angstrom
           Maximum rank =  0   Radius =  0.325 angstrom
                   Q00  =   0.080299

H          x =  1.001759  y =  2.242866  z = -1.021464 angstrom
           Maximum rank =  0   Radius =  0.325 angstrom
                   Q00  =   0.078718

H          x =  2.352759  y =  2.502866  z =  1.010536 angstrom
           Maximum rank =  0   Radius =  0.325 angstrom
                   Q00  =   0.076798

H          x =  3.212949  y =  1.451874  z = -0.145482 angstrom
           Maximum rank =  0   Radius =  0.325 angstrom
                   Q00  =   0.080271

H          x =  2.351679  y =  0.758939  z =  1.297038 angstrom
           Maximum rank =  0   Radius =  0.325 angstrom
                   Q00  =   0.078029

C          x = -1.919241  y = -0.954134  z =  0.389536 angstrom
           Maximum rank =  0   Radius =  0.650 angstrom
                   Q00  =  -0.238014

C          x = -1.461241  y = -2.020134  z = -0.615464 angstrom
           Maximum rank =  0   Radius =  0.650 angstrom
                   Q00  =  -0.243066

H          x = -2.854241  y = -1.254134  z =  0.863536 angstrom
           Maximum rank =  0   Radius =  0.325 angstrom
                   Q00  =   0.079091

H          x = -1.162241  y = -0.794134  z =  1.157536 angstrom
           Maximum rank =  0   Radius =  0.325 angstrom
                   Q00  =   0.079179

H          x = -2.060241  y =  0.009866  z = -0.100464 angstrom
           Maximum rank =  0   Radius =  0.325 angstrom
                   Q00  =   0.081540

H          x = -0.524241  y = -1.676134  z = -1.058464 angstrom
           Maximum rank =  0   Radius =  0.325 angstrom
                   Q00  =   0.077840

H          x = -2.206371  y = -2.145754  z = -1.414839 angstrom
           Maximum rank =  0   Radius =  0.325 angstrom
                   Q00  =   0.081090

H          x = -1.264941  y = -2.984454  z = -0.123989 angstrom
           Maximum rank =  0   Radius =  0.325 angstrom
                   Q00  =   0.081024

Total multipoles referred to origin at
           x =   0.000000,  y =    0.000000,  z =    0.000000 angstrom
                   Q00  =  -0.000000

Finished at 3:22:24 on 28 Apr 2020

  DMA results are available in the Python driver through the
	  variable('DMA DISTRIBUTED MULTIPOLES')
  and
	  variable('DMA TOTAL MULTIPOLES')
  commands.

    Psi4 stopped on: Tuesday, 28 April 2020 03:22AM
    Psi4 wall time for execution: 0:00:10.27

*** Psi4 exiting successfully. Buy a developer a beer!
