                               Psi4 1.3.2 release

  ==> Input File <==

--------------------------------------------------------------------------
import numpy as np
set {scf_type pk
basis cc-pvdz
d_convergence 10
gdma_switch   0
gdma_limit    0
gdma_origin   [ 0.0,  0.0,  0.0 ]
}
molecule test {
    units Angstrom
    0 1
    --
    0 1
    C                2.852302473194396    -0.703375523757257     1.285758093097451
    C               -0.281697526805604     1.361624476242743    -0.800241906902549
    C                0.750302473194396     0.768624476242743    -1.514241906902549
    C               -0.298697526805604     1.301624476242743     0.588758093097451
    C                1.764302473194395     0.102624476242743    -0.834241906902549
    C                0.721302473194396     0.633624476242743     1.267758093097450
    C                1.760302473194395     0.031624476242743     0.558758093097451
    H               -1.073697526805604     1.874624476242743    -1.327241906902549
    H                0.763302473194396     0.817624476242743    -2.594241906902549
    H               -1.101697526805605     1.769624476242743     1.140758093097451
    H                2.570302473194396    -0.352375523757257    -1.393241906902549
    H                0.702302473194396     0.584624476242743     2.347758093097451
    H                3.252302473194396    -1.483375523757257     0.640758093097451
    H                2.406302473194396    -1.192375523757257     2.150758093097451
    H                3.673105473194396    -0.059848523757257     1.635266093097451
    C               -3.239697526805604    -1.002375523757257    -0.918241906902549
    C               -3.317697526805604    -1.925375523757257     0.300758093097451
    H               -4.098697526805605    -0.333375523757257    -0.946241906902549
    H               -2.337697526805605    -0.398375523757257    -0.864241906902549
    H               -3.215697526805604    -1.598375523757257    -1.824241906902550
    H               -3.427697526805605    -1.301375523757257     1.185758093097451
    H               -4.186792326805604    -2.594185523757257     0.214921093097451
    H               -2.388088526805604    -2.503299523757257     0.409527093097451

}
e, wfn = energy('scf', return_wfn=True)
gdma(wfn)
dmavals = variable('DMA DISTRIBUTED MULTIPOLES')
charges = np.array(dmavals)
print(charges)
np.save('SSI-022PHE-064VAL-1-dimer.npy', np.array(charges))--------------------------------------------------------------------------

*** tstart() called on ds3
*** at Tue Apr 28 02:03:07 2020

   => Loading Basis Set <=

    Name: CC-PVDZ
    Role: ORBITAL
    Keyword: BASIS
    atoms 1-7, 16-17  entry C          line   138 file /theoryfs2/ds/metcalf/miniconda2/envs/tf2gpu/share/psi4/basis/cc-pvdz.gbs
    atoms 8-15, 18-23 entry H          line    22 file /theoryfs2/ds/metcalf/miniconda2/envs/tf2gpu/share/psi4/basis/cc-pvdz.gbs

         ---------------------------------------------------------
                                   SCF
               by Justin Turney, Rob Parrish, Andy Simmonett
                          and Daniel G. A. Smith
                              RHF Reference
                        1 Threads,    500 MiB Core
         ---------------------------------------------------------

  ==> Geometry <==

    Molecular point group: c1
    Full point group: C1

    Geometry (in Angstrom), charge = 0, multiplicity = 1:

       Center              X                  Y                   Z               Mass
    ------------   -----------------  -----------------  -----------------  -----------------
         C            2.852302473194    -0.703375523757     1.285758093097    12.000000000000
         C           -0.281697526806     1.361624476243    -0.800241906903    12.000000000000
         C            0.750302473194     0.768624476243    -1.514241906903    12.000000000000
         C           -0.298697526806     1.301624476243     0.588758093097    12.000000000000
         C            1.764302473194     0.102624476243    -0.834241906903    12.000000000000
         C            0.721302473194     0.633624476243     1.267758093097    12.000000000000
         C            1.760302473194     0.031624476243     0.558758093097    12.000000000000
         H           -1.073697526806     1.874624476243    -1.327241906903     1.007825032230
         H            0.763302473194     0.817624476243    -2.594241906903     1.007825032230
         H           -1.101697526806     1.769624476243     1.140758093097     1.007825032230
         H            2.570302473194    -0.352375523757    -1.393241906903     1.007825032230
         H            0.702302473194     0.584624476243     2.347758093097     1.007825032230
         H            3.252302473194    -1.483375523757     0.640758093097     1.007825032230
         H            2.406302473194    -1.192375523757     2.150758093097     1.007825032230
         H            3.673105473194    -0.059848523757     1.635266093097     1.007825032230
         C           -3.239697526806    -1.002375523757    -0.918241906903    12.000000000000
         C           -3.317697526806    -1.925375523757     0.300758093097    12.000000000000
         H           -4.098697526806    -0.333375523757    -0.946241906903     1.007825032230
         H           -2.337697526806    -0.398375523757    -0.864241906903     1.007825032230
         H           -3.215697526806    -1.598375523757    -1.824241906903     1.007825032230
         H           -3.427697526806    -1.301375523757     1.185758093097     1.007825032230
         H           -4.186792326806    -2.594185523757     0.214921093097     1.007825032230
         H           -2.388088526806    -2.503299523757     0.409527093097     1.007825032230

  Running in c1 symmetry.

  Rotational constants: A =      0.07032  B =      0.02495  C =      0.02243 [cm^-1]
  Rotational constants: A =   2108.27120  B =    748.03012  C =    672.54496 [MHz]
  Nuclear repulsion =  407.586847160764592

  Charge       = 0
  Multiplicity = 1
  Electrons    = 68
  Nalpha       = 34
  Nbeta        = 34

  ==> Algorithm <==

  SCF Algorithm Type is PK.
  DIIS enabled.
  MOM disabled.
  Fractional occupation disabled.
  Guess Type is SAD.
  Energy threshold   = 1.00e-06
  Density threshold  = 1.00e-10
  Integral threshold = 0.00e+00

  ==> Primary Basis <==

  Basis Set: CC-PVDZ
    Blend: CC-PVDZ
    Number of shells: 96
    Number of basis function: 196
    Number of Cartesian functions: 205
    Spherical Harmonics?: true
    Max angular momentum: 2

  ==> Pre-Iterations <==

   -------------------------------------------------------
    Irrep   Nso     Nmo     Nalpha   Nbeta   Ndocc  Nsocc
   -------------------------------------------------------
     A        196     196       0       0       0       0
   -------------------------------------------------------
    Total     196     196      34      34      34       0
   -------------------------------------------------------

  ==> Integral Setup <==

  Using integral reordering PK algorithm.
  Sizing the integral batches needed.
  Building batch lookup table.
   Calculation information:
      Number of atoms:                  23
      Number of AO shells:              96
      Number of primitives:            268
      Number of atomic orbitals:       205
      Number of basis functions:       196

      Integral cutoff                 1.00e-12
      Number of threads:                 1

	Batch   1 pq = [       0,    9405] index = [             0,44231715] size =     44231715
	Batch   2 pq = [    9405,   13301] index = [      44231715,88464951] size =     44233236
	Batch   3 pq = [   13301,   16290] index = [      88464951,132690195] size =     44225244
	Batch   4 pq = [   16290,   18810] index = [     132690195,176917455] size =     44227260
	Batch   5 pq = [   18810,   19306] index = [     176917455,186370471] size =      9453016
  Task number: 17
  Buffer size: 11059200
  Buffer per thread: 2
  We computed 9524130 shell quartets total.
  Whereas there are 10841496 unique shell quartets.

  ==> DiskJK: Disk-Based J/K Matrices <==

    J tasked:                  Yes
    K tasked:                  Yes
    wK tasked:                  No
    Memory [MiB]:              375
    Schwarz Cutoff:          1E-12

    OpenMP threads:              1

  Minimum eigenvalue in the overlap matrix is 3.1118372077E-04.
  Using Symmetric Orthogonalization.

  SCF Guess: Superposition of Atomic Densities via on-the-fly atomic UHF.

  ==> Iterations <==

                        Total Energy        Delta E     RMS |[F,P]|

   @RHF iter SAD:  -347.87438949368794   -3.47874e+02   0.00000e+00
   @RHF iter   1:  -348.76770494647326   -8.93315e-01   2.89831e-03 DIIS
   @RHF iter   2:  -348.96001155906686   -1.92307e-01   1.20440e-03 DIIS
   @RHF iter   3:  -348.99030986545642   -3.02983e-02   2.58892e-04 DIIS
   @RHF iter   4:  -348.99277688502650   -2.46702e-03   5.41373e-05 DIIS
   @RHF iter   5:  -348.99285322792144   -7.63429e-05   1.83624e-05 DIIS
   @RHF iter   6:  -348.99286143145019   -8.20353e-06   4.93239e-06 DIIS
   @RHF iter   7:  -348.99286213302031   -7.01570e-07   1.30140e-06 DIIS
   @RHF iter   8:  -348.99286219579562   -6.27753e-08   3.83609e-07 DIIS
   @RHF iter   9:  -348.99286220756204   -1.17664e-08   1.91886e-07 DIIS
   @RHF iter  10:  -348.99286221085691   -3.29487e-09   8.80318e-08 DIIS
   @RHF iter  11:  -348.99286221188282   -1.02591e-09   2.72815e-08 DIIS
   @RHF iter  12:  -348.99286221195473   -7.19069e-11   9.80043e-09 DIIS
   @RHF iter  13:  -348.99286221196189   -7.16227e-12   3.62619e-09 DIIS
   @RHF iter  14:  -348.99286221196189    0.00000e+00   8.16729e-10 DIIS
   @RHF iter  15:  -348.99286221196246   -5.68434e-13   4.03190e-10 DIIS
   @RHF iter  16:  -348.99286221196178    6.82121e-13   1.80253e-10 DIIS
   @RHF iter  17:  -348.99286221196269   -9.09495e-13   6.93567e-11 DIIS
  Energy and wave function converged.

  ==> Post-Iterations <==

    Orbital Energies [Eh]
    ---------------------

    Doubly Occupied:

       1A    -11.241269     2A    -11.236730     3A    -11.235672
       4A    -11.232159     5A    -11.231364     6A    -11.231130
       7A    -11.229239     8A    -11.213027     9A    -11.207061
      10A     -1.153809    11A     -1.045769    12A     -1.012683
      13A     -1.010988    14A     -0.931975    15A     -0.830260
      16A     -0.826160    17A     -0.796006    18A     -0.691922
      19A     -0.632456    20A     -0.631040    21A     -0.593115
      22A     -0.590479    23A     -0.583980    24A     -0.577301
      25A     -0.562414    26A     -0.536105    27A     -0.494491
      28A     -0.489707    29A     -0.485817    30A     -0.482737
      31A     -0.478632    32A     -0.475774    33A     -0.333276
      34A     -0.322414

    Virtual:

      35A      0.134609    36A      0.139433    37A      0.176761
      38A      0.194309    39A      0.205708    40A      0.218363
      41A      0.234575    42A      0.248893    43A      0.253573
      44A      0.262617    45A      0.267415    46A      0.273665
      47A      0.282196    48A      0.289531    49A      0.297175
      50A      0.325114    51A      0.366135    52A      0.375394
      53A      0.400872    54A      0.451636    55A      0.462601
      56A      0.480263    57A      0.488257    58A      0.561508
      59A      0.592760    60A      0.598674    61A      0.604032
      62A      0.617630    63A      0.637605    64A      0.674338
      65A      0.678222    66A      0.682823    67A      0.693930
      68A      0.703335    69A      0.732922    70A      0.738479
      71A      0.739313    72A      0.751212    73A      0.755743
      74A      0.761972    75A      0.782468    76A      0.829460
      77A      0.836339    78A      0.849687    79A      0.862201
      80A      0.866237    81A      0.874975    82A      0.886515
      83A      0.895709    84A      0.896863    85A      0.900870
      86A      0.904360    87A      0.909618    88A      0.919179
      89A      0.926940    90A      0.941070    91A      0.948657
      92A      0.951599    93A      0.987819    94A      1.003607
      95A      1.028199    96A      1.085635    97A      1.118913
      98A      1.129118    99A      1.136595   100A      1.143524
     101A      1.153239   102A      1.159182   103A      1.185818
     104A      1.239126   105A      1.243572   106A      1.248582
     107A      1.254769   108A      1.297270   109A      1.306835
     110A      1.319263   111A      1.324301   112A      1.355124
     113A      1.411862   114A      1.476639   115A      1.489382
     116A      1.506686   117A      1.516083   118A      1.555507
     119A      1.588737   120A      1.601502   121A      1.681151
     122A      1.686250   123A      1.694477   124A      1.705707
     125A      1.729862   126A      1.754394   127A      1.757335
     128A      1.788557   129A      1.808477   130A      1.851863
     131A      1.868329   132A      1.880191   133A      1.889147
     134A      1.897180   135A      1.899402   136A      1.912445
     137A      1.914781   138A      1.922391   139A      1.942485
     140A      1.946212   141A      1.950406   142A      1.954997
     143A      1.960568   144A      1.962574   145A      1.977075
     146A      1.986325   147A      1.993388   148A      1.996884
     149A      2.040644   150A      2.063964   151A      2.075931
     152A      2.104869   153A      2.111951   154A      2.136209
     155A      2.146992   156A      2.155614   157A      2.161288
     158A      2.176527   159A      2.179737   160A      2.253118
     161A      2.275787   162A      2.292554   163A      2.295533
     164A      2.301551   165A      2.310878   166A      2.318027
     167A      2.333548   168A      2.458863   169A      2.468982
     170A      2.472433   171A      2.476934   172A      2.495471
     173A      2.543933   174A      2.570600   175A      2.591857
     176A      2.619930   177A      2.737268   178A      2.753995
     179A      2.769169   180A      2.769635   181A      2.773195
     182A      2.805087   183A      2.821047   184A      2.851715
     185A      2.854147   186A      2.869010   187A      2.874472
     188A      2.956854   189A      2.969529   190A      2.992342
     191A      3.015556   192A      3.052968   193A      3.155392
     194A      3.201439   195A      3.296051   196A      3.970489

    Final Occupation by Irrep:
              A
    DOCC [    34 ]

  @RHF Final Energy:  -348.99286221196269

   => Energetics <=

    Nuclear Repulsion Energy =            407.5868471607645915
    One-Electron Energy =               -1277.9054920172109178
    Two-Electron Energy =                 521.3257826444836383
    Total Energy =                       -348.9928622119626880

Computation Completed

Properties will be evaluated at   0.000000,   0.000000,   0.000000 [a0]

Properties computed using the SCF density matrix

  Nuclear Dipole Moment: [e a0]
     X:    -7.9333      Y:    -6.3471      Z:     0.7275

  Electronic Dipole Moment: [e a0]
     X:     8.1103      Y:     6.3325      Z:    -0.6629

  Dipole Moment: [e a0]
     X:     0.1770      Y:    -0.0146      Z:     0.0647     Total:     0.1890

  Dipole Moment: [D]
     X:     0.4498      Y:    -0.0372      Z:     0.1644     Total:     0.4803

*** tstop() called on ds3 at Tue Apr 28 02:04:34 2020
Module time:
	user time   =      62.65 seconds =       1.04 minutes
	system time =      26.24 seconds =       0.44 minutes
	total time  =         87 seconds =       1.45 minutes
Total time:
	user time   =      62.65 seconds =       1.04 minutes
	system time =      26.24 seconds =       0.44 minutes
	total time  =         87 seconds =       1.45 minutes
                                     G D M A

                                 by Anthony Stone

                           version 2.2.06, 22 June 2011

               Distributed Multipoles from Gaussian wavefunctions

Starting at 2:4:34 on 28 Apr 2020

Using SCF density matrix from file ./SSI/SSI-022PHE-064VAL-1-dimer.test.10378.fchk

                         Distributed Multipole Analysis

Standard DMA

Positions and radii in angstrom
Multipole moments in atomic units, ea_0^k for rank k

C          x =  2.852302  y = -0.703376  z =  1.285758 angstrom
           Maximum rank =  0   Radius =  0.650 angstrom
                   Q00  =  -0.197823

C          x = -0.281698  y =  1.361624  z = -0.800242 angstrom
           Maximum rank =  0   Radius =  0.650 angstrom
                   Q00  =  -0.067077

C          x =  0.750302  y =  0.768624  z = -1.514242 angstrom
           Maximum rank =  0   Radius =  0.650 angstrom
                   Q00  =  -0.067315

C          x = -0.298698  y =  1.301624  z =  0.588758 angstrom
           Maximum rank =  0   Radius =  0.650 angstrom
                   Q00  =  -0.069112

C          x =  1.764302  y =  0.102624  z = -0.834242 angstrom
           Maximum rank =  0   Radius =  0.650 angstrom
                   Q00  =  -0.012266

C          x =  0.721302  y =  0.633624  z =  1.267758 angstrom
           Maximum rank =  0   Radius =  0.650 angstrom
                   Q00  =  -0.090392

C          x =  1.760302  y =  0.031624  z =  0.558758 angstrom
           Maximum rank =  0   Radius =  0.650 angstrom
                   Q00  =  -0.105768

H          x = -1.073698  y =  1.874624  z = -1.327242 angstrom
           Maximum rank =  0   Radius =  0.325 angstrom
                   Q00  =   0.061759

H          x =  0.763302  y =  0.817624  z = -2.594242 angstrom
           Maximum rank =  0   Radius =  0.325 angstrom
                   Q00  =   0.065664

H          x = -1.101698  y =  1.769624  z =  1.140758 angstrom
           Maximum rank =  0   Radius =  0.325 angstrom
                   Q00  =   0.065742

H          x =  2.570302  y = -0.352376  z = -1.393242 angstrom
           Maximum rank =  0   Radius =  0.325 angstrom
                   Q00  =   0.057274

H          x =  0.702302  y =  0.584624  z =  2.347758 angstrom
           Maximum rank =  0   Radius =  0.325 angstrom
                   Q00  =   0.058005

H          x =  3.252302  y = -1.483376  z =  0.640758 angstrom
           Maximum rank =  0   Radius =  0.325 angstrom
                   Q00  =   0.098587

H          x =  2.406302  y = -1.192376  z =  2.150758 angstrom
           Maximum rank =  0   Radius =  0.325 angstrom
                   Q00  =   0.096991

H          x =  3.673105  y = -0.059849  z =  1.635266 angstrom
           Maximum rank =  0   Radius =  0.325 angstrom
                   Q00  =   0.105398

C          x = -3.239698  y = -1.002376  z = -0.918242 angstrom
           Maximum rank =  0   Radius =  0.650 angstrom
                   Q00  =  -0.241276

C          x = -3.317698  y = -1.925376  z =  0.300758 angstrom
           Maximum rank =  0   Radius =  0.650 angstrom
                   Q00  =  -0.238389

H          x = -4.098698  y = -0.333376  z = -0.946242 angstrom
           Maximum rank =  0   Radius =  0.325 angstrom
                   Q00  =   0.072043

H          x = -2.337698  y = -0.398376  z = -0.864242 angstrom
           Maximum rank =  0   Radius =  0.325 angstrom
                   Q00  =   0.100894

H          x = -3.215698  y = -1.598376  z = -1.824242 angstrom
           Maximum rank =  0   Radius =  0.325 angstrom
                   Q00  =   0.075655

H          x = -3.427698  y = -1.301376  z =  1.185758 angstrom
           Maximum rank =  0   Radius =  0.325 angstrom
                   Q00  =   0.074395

H          x = -4.186792  y = -2.594186  z =  0.214921 angstrom
           Maximum rank =  0   Radius =  0.325 angstrom
                   Q00  =   0.075388

H          x = -2.388089  y = -2.503300  z =  0.409527 angstrom
           Maximum rank =  0   Radius =  0.325 angstrom
                   Q00  =   0.081624

Total multipoles referred to origin at
           x =   0.000000,  y =    0.000000,  z =    0.000000 angstrom
                   Q00  =  -0.000000

Finished at 2:4:34 on 28 Apr 2020

  DMA results are available in the Python driver through the
	  variable('DMA DISTRIBUTED MULTIPOLES')
  and
	  variable('DMA TOTAL MULTIPOLES')
  commands.

    Psi4 stopped on: Tuesday, 28 April 2020 02:04AM
    Psi4 wall time for execution: 0:01:26.53

*** Psi4 exiting successfully. Buy a developer a beer!
