                               Psi4 1.3.2 release

  ==> Input File <==

--------------------------------------------------------------------------
import numpy as np
set {scf_type pk
basis cc-pvdz
d_convergence 10
gdma_switch   0
gdma_limit    0
gdma_origin   [ 0.0,  0.0,  0.0 ]
}
molecule test {
    units Angstrom
    0 1
    --
    0 1
    C               -3.005424736172331    -0.024387100364433     0.612946975663549
    C               -1.873424736172331     0.473612899635567     1.517946975663549
    O               -1.363424736172331     1.590612899635568     1.310946975663549
    O               -1.481424736172331    -0.271387100364433     2.436946975663549
    H               -3.777424736172331    -0.503387100364433     1.210946975663549
    H               -2.580424736172331    -0.802387100364433    -0.025053024336451
    H               -3.465024736172330     0.739942899635567    -0.030923024336451
    C                0.226575263827669     0.492612899635567    -1.638053024336451
    C               -0.337424736172331     0.557612899635567    -3.068053024336451
    C                1.950575263827669    -0.685387100364433    -0.320053024336451
    N                1.208575263827669    -0.583387100364433    -1.423053024336451
    N                1.870575263827669     0.185612899635567     0.671946975663549
    N                2.773575263827669    -1.697387100364433    -0.201053024336451
    H                0.683575263827669     1.459612899635568    -1.417053024336451
    H               -0.607424736172331     0.344612899635567    -0.953053024336451
    H                0.453575263827669     0.844612899635567    -3.762053024336451
    H               -1.121424736172331     1.314612899635567    -3.092053024336451
    H                1.359575263827669    -1.257387100364433    -2.159053024336451
    H                1.172575263827669     0.911612899635568     0.635946975663549
    H                2.466575263827669     0.106612899635567     1.478946975663549
    H                2.836575263827669    -2.388387100364433    -0.930053024336451
    H                3.332575263827669    -1.862387100364433     0.617946975663549
    H               -0.736974736172331    -0.426777100364433    -3.353233024336451

}
e, wfn = energy('scf', return_wfn=True)
gdma(wfn)
dmavals = variable('DMA DISTRIBUTED MULTIPOLES')
charges = np.array(dmavals)
print(charges)
np.save('SSI-037ASP-040ARG-1-dimer.npy', np.array(charges))--------------------------------------------------------------------------

*** tstart() called on ds3
*** at Tue Apr 28 14:29:30 2020

   => Loading Basis Set <=

    Name: CC-PVDZ
    Role: ORBITAL
    Keyword: BASIS
    atoms 1-2, 8-10  entry C          line   138 file /theoryfs2/ds/metcalf/miniconda2/envs/tf2gpu/share/psi4/basis/cc-pvdz.gbs
    atoms 3-4        entry O          line   198 file /theoryfs2/ds/metcalf/miniconda2/envs/tf2gpu/share/psi4/basis/cc-pvdz.gbs
    atoms 5-7, 14-23 entry H          line    22 file /theoryfs2/ds/metcalf/miniconda2/envs/tf2gpu/share/psi4/basis/cc-pvdz.gbs
    atoms 11-13      entry N          line   168 file /theoryfs2/ds/metcalf/miniconda2/envs/tf2gpu/share/psi4/basis/cc-pvdz.gbs

         ---------------------------------------------------------
                                   SCF
               by Justin Turney, Rob Parrish, Andy Simmonett
                          and Daniel G. A. Smith
                              RHF Reference
                        1 Threads,    500 MiB Core
         ---------------------------------------------------------

  ==> Geometry <==

    Molecular point group: c1
    Full point group: C1

    Geometry (in Angstrom), charge = 0, multiplicity = 1:

       Center              X                  Y                   Z               Mass
    ------------   -----------------  -----------------  -----------------  -----------------
         C           -3.005424736172    -0.024387100364     0.612946975664    12.000000000000
         C           -1.873424736172     0.473612899636     1.517946975664    12.000000000000
         O           -1.363424736172     1.590612899636     1.310946975664    15.994914619570
         O           -1.481424736172    -0.271387100364     2.436946975664    15.994914619570
         H           -3.777424736172    -0.503387100364     1.210946975664     1.007825032230
         H           -2.580424736172    -0.802387100364    -0.025053024336     1.007825032230
         H           -3.465024736172     0.739942899636    -0.030923024336     1.007825032230
         C            0.226575263828     0.492612899636    -1.638053024336    12.000000000000
         C           -0.337424736172     0.557612899636    -3.068053024336    12.000000000000
         C            1.950575263828    -0.685387100364    -0.320053024336    12.000000000000
         N            1.208575263828    -0.583387100364    -1.423053024336    14.003074004430
         N            1.870575263828     0.185612899636     0.671946975664    14.003074004430
         N            2.773575263828    -1.697387100364    -0.201053024336    14.003074004430
         H            0.683575263828     1.459612899636    -1.417053024336     1.007825032230
         H           -0.607424736172     0.344612899636    -0.953053024336     1.007825032230
         H            0.453575263828     0.844612899636    -3.762053024336     1.007825032230
         H           -1.121424736172     1.314612899636    -3.092053024336     1.007825032230
         H            1.359575263828    -1.257387100364    -2.159053024336     1.007825032230
         H            1.172575263828     0.911612899636     0.635946975664     1.007825032230
         H            2.466575263828     0.106612899636     1.478946975664     1.007825032230
         H            2.836575263828    -2.388387100364    -0.930053024336     1.007825032230
         H            3.332575263828    -1.862387100364     0.617946975664     1.007825032230
         H           -0.736974736172    -0.426777100364    -3.353233024336     1.007825032230

  Running in c1 symmetry.

  Rotational constants: A =      0.04584  B =      0.02361  C =      0.01798 [cm^-1]
  Rotational constants: A =   1374.23924  B =    707.70470  C =    539.10789 [MHz]
  Nuclear repulsion =  545.348595105742561

  Charge       = 0
  Multiplicity = 1
  Electrons    = 80
  Nalpha       = 40
  Nbeta        = 40

  ==> Algorithm <==

  SCF Algorithm Type is PK.
  DIIS enabled.
  MOM disabled.
  Fractional occupation disabled.
  Guess Type is SAD.
  Energy threshold   = 1.00e-06
  Density threshold  = 1.00e-10
  Integral threshold = 0.00e+00

  ==> Primary Basis <==

  Basis Set: CC-PVDZ
    Blend: CC-PVDZ
    Number of shells: 99
    Number of basis function: 205
    Number of Cartesian functions: 215
    Spherical Harmonics?: true
    Max angular momentum: 2

  ==> Pre-Iterations <==

   -------------------------------------------------------
    Irrep   Nso     Nmo     Nalpha   Nbeta   Ndocc  Nsocc
   -------------------------------------------------------
     A        205     205       0       0       0       0
   -------------------------------------------------------
    Total     205     205      40      40      40       0
   -------------------------------------------------------

  ==> Integral Setup <==

  Using integral reordering PK algorithm.
  Sizing the integral batches needed.
  Building batch lookup table.
   Calculation information:
      Number of atoms:                  23
      Number of AO shells:              99
      Number of primitives:            285
      Number of atomic orbitals:       215
      Number of basis functions:       205

      Integral cutoff                 1.00e-12
      Number of threads:                 1

	Batch   1 pq = [       0,    9405] index = [             0,44231715] size =     44231715
	Batch   2 pq = [    9405,   13301] index = [      44231715,88464951] size =     44233236
	Batch   3 pq = [   13301,   16290] index = [      88464951,132690195] size =     44225244
	Batch   4 pq = [   16290,   18810] index = [     132690195,176917455] size =     44227260
	Batch   5 pq = [   18810,   21115] index = [     176917455,222932170] size =     46014715
  Task number: 21
  Buffer size: 11059200
  Buffer per thread: 2
  We computed 10466733 shell quartets total.
  Whereas there are 12253725 unique shell quartets.

  ==> DiskJK: Disk-Based J/K Matrices <==

    J tasked:                  Yes
    K tasked:                  Yes
    wK tasked:                  No
    Memory [MiB]:              375
    Schwarz Cutoff:          1E-12

    OpenMP threads:              1

  Minimum eigenvalue in the overlap matrix is 3.6041283017E-03.
  Using Symmetric Orthogonalization.

  SCF Guess: Superposition of Atomic Densities via on-the-fly atomic UHF.

  ==> Iterations <==

                        Total Energy        Delta E     RMS |[F,P]|

   @RHF iter SAD:  -508.61032622738907   -5.08610e+02   0.00000e+00
   @RHF iter   1:  -509.64954691629674   -1.03922e+00   3.99203e-03 DIIS
   @RHF iter   2:  -509.91557449236547   -2.66028e-01   2.08796e-03 DIIS
   @RHF iter   3:  -509.98261579226698   -6.70413e-02   3.74486e-04 DIIS
   @RHF iter   4:  -509.98645095570419   -3.83516e-03   1.29695e-04 DIIS
   @RHF iter   5:  -509.98690159656906   -4.50641e-04   2.24995e-05 DIIS
   @RHF iter   6:  -509.98692314937398   -2.15528e-05   7.62179e-06 DIIS
   @RHF iter   7:  -509.98692494753368   -1.79816e-06   2.10236e-06 DIIS
   @RHF iter   8:  -509.98692517343136   -2.25898e-07   9.13924e-07 DIIS
   @RHF iter   9:  -509.98692519909378   -2.56624e-08   3.15275e-07 DIIS
   @RHF iter  10:  -509.98692520396747   -4.87370e-09   1.32880e-07 DIIS
   @RHF iter  11:  -509.98692520492398   -9.56504e-10   4.11360e-08 DIIS
   @RHF iter  12:  -509.98692520504443   -1.20451e-10   1.59709e-08 DIIS
   @RHF iter  13:  -509.98692520505455   -1.01181e-11   4.82987e-09 DIIS
   @RHF iter  14:  -509.98692520506006   -5.51381e-12   1.20264e-09 DIIS
   @RHF iter  15:  -509.98692520505767    2.38742e-12   4.20818e-10 DIIS
   @RHF iter  16:  -509.98692520506199   -4.32010e-12   1.78979e-10 DIIS
   @RHF iter  17:  -509.98692520505779    4.20641e-12   6.73601e-11 DIIS
  Energy and wave function converged.

  ==> Post-Iterations <==

    Orbital Energies [Eh]
    ---------------------

    Doubly Occupied:

       1A    -20.379485     2A    -20.368165     3A    -15.676016
       4A    -15.663372     5A    -15.654604     6A    -11.468472
       7A    -11.306202     8A    -11.264826     9A    -11.228844
      10A    -11.156603    11A     -1.424265    12A     -1.283414
      13A     -1.268660    14A     -1.266082    15A     -1.151030
      16A     -1.065590    17A     -0.939979    18A     -0.902571
      19A     -0.895811    20A     -0.852820    21A     -0.817327
      22A     -0.738579    23A     -0.726650    24A     -0.707088
      25A     -0.671749    26A     -0.645711    27A     -0.611577
      28A     -0.578229    29A     -0.552695    30A     -0.543828
      31A     -0.519599    32A     -0.516538    33A     -0.513462
      34A     -0.492306    35A     -0.457379    36A     -0.453948
      37A     -0.418335    38A     -0.298404    39A     -0.284205
      40A     -0.275980

    Virtual:

      41A      0.098250    42A      0.135885    43A      0.147263
      44A      0.154100    45A      0.178805    46A      0.192396
      47A      0.224824    48A      0.233567    49A      0.237938
      50A      0.259704    51A      0.289874    52A      0.296515
      53A      0.313092    54A      0.325687    55A      0.331784
      56A      0.363781    57A      0.397279    58A      0.406889
      59A      0.462777    60A      0.464212    61A      0.477634
      62A      0.556220    63A      0.562838    64A      0.573713
      65A      0.595284    66A      0.621879    67A      0.625512
      68A      0.652089    69A      0.656695    70A      0.676277
      71A      0.679109    72A      0.686795    73A      0.719445
      74A      0.745945    75A      0.775645    76A      0.800041
      77A      0.827510    78A      0.842199    79A      0.849647
      80A      0.853980    81A      0.862573    82A      0.868506
      83A      0.876010    84A      0.887333    85A      0.900760
      86A      0.910671    87A      0.931712    88A      0.942174
      89A      0.946636    90A      0.951051    91A      0.987154
      92A      0.996121    93A      0.996872    94A      1.025463
      95A      1.031899    96A      1.058517    97A      1.065883
      98A      1.079367    99A      1.098242   100A      1.166738
     101A      1.189110   102A      1.206613   103A      1.227686
     104A      1.237835   105A      1.246317   106A      1.267215
     107A      1.288094   108A      1.320305   109A      1.327382
     110A      1.352017   111A      1.378487   112A      1.421640
     113A      1.445609   114A      1.458018   115A      1.469907
     116A      1.480945   117A      1.501316   118A      1.537127
     119A      1.547874   120A      1.571671   121A      1.609318
     122A      1.629041   123A      1.640177   124A      1.659720
     125A      1.661371   126A      1.680800   127A      1.696595
     128A      1.733095   129A      1.744933   130A      1.760278
     131A      1.803427   132A      1.833954   133A      1.836677
     134A      1.841369   135A      1.861058   136A      1.883718
     137A      1.899165   138A      1.912622   139A      1.921684
     140A      1.931698   141A      1.934135   142A      1.942480
     143A      1.959987   144A      1.983564   145A      2.003226
     146A      2.017449   147A      2.047363   148A      2.071426
     149A      2.083414   150A      2.112865   151A      2.118715
     152A      2.132071   153A      2.145070   154A      2.180475
     155A      2.198543   156A      2.236337   157A      2.249447
     158A      2.312182   159A      2.329210   160A      2.350028
     161A      2.360224   162A      2.366699   163A      2.397545
     164A      2.411608   165A      2.447582   166A      2.464584
     167A      2.468671   168A      2.476200   169A      2.487216
     170A      2.533653   171A      2.557904   172A      2.573241
     173A      2.617844   174A      2.637935   175A      2.685222
     176A      2.688473   177A      2.732257   178A      2.742301
     179A      2.763036   180A      2.789823   181A      2.813924
     182A      2.849022   183A      2.875340   184A      2.882332
     185A      2.902226   186A      2.943845   187A      2.962275
     188A      2.983374   189A      3.012458   190A      3.029029
     191A      3.130326   192A      3.163156   193A      3.169575
     194A      3.178980   195A      3.217728   196A      3.250347
     197A      3.284385   198A      3.533825   199A      3.675068
     200A      3.701648   201A      3.717011   202A      3.796815
     203A      3.963891   204A      3.971913   205A      4.092331

    Final Occupation by Irrep:
              A
    DOCC [    40 ]

  @RHF Final Energy:  -509.98692520505779

   => Energetics <=

    Nuclear Repulsion Energy =            545.3485951057425609
    One-Electron Energy =               -1778.5902446349521142
    Two-Electron Energy =                 723.2547243241517663
    Total Energy =                       -509.9869252050577870

Computation Completed

Properties will be evaluated at   0.000000,   0.000000,   0.000000 [a0]

Properties computed using the SCF density matrix

  Nuclear Dipole Moment: [e a0]
     X:    -0.0154      Y:    -1.4117      Z:   -11.0214

  Electronic Dipole Moment: [e a0]
     X:     5.1818      Y:    -0.8322      Z:     7.0271

  Dipole Moment: [e a0]
     X:     5.1665      Y:    -2.2439      Z:    -3.9943     Total:     6.9052

  Dipole Moment: [D]
     X:    13.1319      Y:    -5.7034      Z:   -10.1525     Total:    17.5513

*** tstop() called on ds3 at Tue Apr 28 14:31:33 2020
Module time:
	user time   =      76.85 seconds =       1.28 minutes
	system time =      34.49 seconds =       0.57 minutes
	total time  =        123 seconds =       2.05 minutes
Total time:
	user time   =      76.85 seconds =       1.28 minutes
	system time =      34.49 seconds =       0.57 minutes
	total time  =        123 seconds =       2.05 minutes
                                     G D M A

                                 by Anthony Stone

                           version 2.2.06, 22 June 2011

               Distributed Multipoles from Gaussian wavefunctions

Starting at 14:31:33 on 28 Apr 2020

Using SCF density matrix from file ./SSI/SSI-037ASP-040ARG-1-dimer.test.25931.fchk

                         Distributed Multipole Analysis

Standard DMA

Positions and radii in angstrom
Multipole moments in atomic units, ea_0^k for rank k

C          x = -3.005425  y = -0.024387  z =  0.612947 angstrom
           Maximum rank =  0   Radius =  0.650 angstrom
                   Q00  =  -0.280858

C          x = -1.873425  y =  0.473613  z =  1.517947 angstrom
           Maximum rank =  0   Radius =  0.650 angstrom
                   Q00  =   0.940749

O          x = -1.363425  y =  1.590613  z =  1.310947 angstrom
           Maximum rank =  0   Radius =  0.650 angstrom
                   Q00  =  -0.933913

O          x = -1.481425  y = -0.271387  z =  2.436947 angstrom
           Maximum rank =  0   Radius =  0.650 angstrom
                   Q00  =  -0.913709

H          x = -3.777425  y = -0.503387  z =  1.210947 angstrom
           Maximum rank =  0   Radius =  0.325 angstrom
                   Q00  =   0.097801

H          x = -2.580425  y = -0.802387  z = -0.025053 angstrom
           Maximum rank =  0   Radius =  0.325 angstrom
                   Q00  =   0.049835

H          x = -3.465025  y =  0.739943  z = -0.030923 angstrom
           Maximum rank =  0   Radius =  0.325 angstrom
                   Q00  =   0.062550

C          x =  0.226575  y =  0.492613  z = -1.638053 angstrom
           Maximum rank =  0   Radius =  0.650 angstrom
                   Q00  =  -0.004504

C          x = -0.337425  y =  0.557613  z = -3.068053 angstrom
           Maximum rank =  0   Radius =  0.650 angstrom
                   Q00  =  -0.217614

C          x =  1.950575  y = -0.685387  z = -0.320053 angstrom
           Maximum rank =  0   Radius =  0.650 angstrom
                   Q00  =   1.069899

N          x =  1.208575  y = -0.583387  z = -1.423053 angstrom
           Maximum rank =  0   Radius =  0.650 angstrom
                   Q00  =  -0.481197

N          x =  1.870575  y =  0.185613  z =  0.671947 angstrom
           Maximum rank =  0   Radius =  0.650 angstrom
                   Q00  =  -0.554468

N          x =  2.773575  y = -1.697387  z = -0.201053 angstrom
           Maximum rank =  0   Radius =  0.650 angstrom
                   Q00  =  -0.583494

H          x =  0.683575  y =  1.459613  z = -1.417053 angstrom
           Maximum rank =  0   Radius =  0.325 angstrom
                   Q00  =   0.082476

H          x = -0.607425  y =  0.344613  z = -0.953053 angstrom
           Maximum rank =  0   Radius =  0.325 angstrom
                   Q00  =   0.114216

H          x =  0.453575  y =  0.844613  z = -3.762053 angstrom
           Maximum rank =  0   Radius =  0.325 angstrom
                   Q00  =   0.080649

H          x = -1.121425  y =  1.314613  z = -3.092053 angstrom
           Maximum rank =  0   Radius =  0.325 angstrom
                   Q00  =   0.140810

H          x =  1.359575  y = -1.257387  z = -2.159053 angstrom
           Maximum rank =  0   Radius =  0.325 angstrom
                   Q00  =   0.209579

H          x =  1.172575  y =  0.911613  z =  0.635947 angstrom
           Maximum rank =  0   Radius =  0.325 angstrom
                   Q00  =   0.284472

H          x =  2.466575  y =  0.106613  z =  1.478947 angstrom
           Maximum rank =  0   Radius =  0.325 angstrom
                   Q00  =   0.259455

H          x =  2.836575  y = -2.388387  z = -0.930053 angstrom
           Maximum rank =  0   Radius =  0.325 angstrom
                   Q00  =   0.237203

H          x =  3.332575  y = -1.862387  z =  0.617947 angstrom
           Maximum rank =  0   Radius =  0.325 angstrom
                   Q00  =   0.253031

H          x = -0.736975  y = -0.426777  z = -3.353233 angstrom
           Maximum rank =  0   Radius =  0.325 angstrom
                   Q00  =   0.087033

Total multipoles referred to origin at
           x =   0.000000,  y =    0.000000,  z =    0.000000 angstrom
                   Q00  =  -0.000000

Finished at 14:31:34 on 28 Apr 2020

  DMA results are available in the Python driver through the
	  variable('DMA DISTRIBUTED MULTIPOLES')
  and
	  variable('DMA TOTAL MULTIPOLES')
  commands.

    Psi4 stopped on: Tuesday, 28 April 2020 02:31PM
    Psi4 wall time for execution: 0:02:03.16

*** Psi4 exiting successfully. Buy a developer a beer!
