                               Psi4 1.3.2 release

  ==> Input File <==

--------------------------------------------------------------------------
import numpy as np
set {scf_type pk
basis cc-pvdz
d_convergence 10
gdma_switch   0
gdma_limit    0
gdma_origin   [ 0.0,  0.0,  0.0 ]
}
molecule test {
    units Angstrom
    0 1
    --
    0 1
    C                1.500361606803503    -0.990529783333097    -0.767198570848192
    C                0.414361606803503    -1.294529783333097    -1.825198570848192
    C                1.220361606803503    -1.572529783333097     0.616801429151808
    H                2.469361606803502    -1.312529783333097    -1.121198570848192
    H                1.554361606803503     0.092470216666903    -0.647198570848192
    H               -0.516638393196497    -0.820529783333097    -1.514198570848192
    H                1.816361606803503    -1.041529783333097     1.359801429151808
    H                0.157361606803503    -1.462529783333097     0.825801429151808
    H                1.483361606803503    -2.629529783333097     0.639801429151808
    H                0.705990606803503    -0.896209783333097    -2.808198570848192
    H                0.238435606803503    -2.378087783333096    -1.895568570848192
    C               -0.939638393196497     1.681470216666903     0.519801429151808
    C               -2.097638393196497     2.102470216666903     1.403801429151808
    H               -0.087638393196497     1.422470216666903     1.149801429151808
    H               -1.221638393196497     0.805470216666903    -0.061198570848192
    H               -0.639638393196497     2.486470216666903    -0.152198570848192
    H               -2.283638393196497     1.322470216666903     2.143801429151808
    H               -3.000408393196497     2.243210216666903     0.791261429151808
    H               -1.840217393196497     3.045310216666903     1.908561429151808

}
e, wfn = energy('scf', return_wfn=True)
gdma(wfn)
dmavals = variable('DMA DISTRIBUTED MULTIPOLES')
charges = np.array(dmavals)
print(charges)
np.save('SSI-055ILE-151THR-1-dimer.npy', np.array(charges))--------------------------------------------------------------------------

*** tstart() called on ds3
*** at Tue Apr 28 03:19:41 2020

   => Loading Basis Set <=

    Name: CC-PVDZ
    Role: ORBITAL
    Keyword: BASIS
    atoms 1-3, 12-13  entry C          line   138 file /theoryfs2/ds/metcalf/miniconda2/envs/tf2gpu/share/psi4/basis/cc-pvdz.gbs
    atoms 4-11, 14-19 entry H          line    22 file /theoryfs2/ds/metcalf/miniconda2/envs/tf2gpu/share/psi4/basis/cc-pvdz.gbs

         ---------------------------------------------------------
                                   SCF
               by Justin Turney, Rob Parrish, Andy Simmonett
                          and Daniel G. A. Smith
                              RHF Reference
                        1 Threads,    500 MiB Core
         ---------------------------------------------------------

  ==> Geometry <==

    Molecular point group: c1
    Full point group: C1

    Geometry (in Angstrom), charge = 0, multiplicity = 1:

       Center              X                  Y                   Z               Mass
    ------------   -----------------  -----------------  -----------------  -----------------
         C            1.500361606804    -0.990529783333    -0.767198570848    12.000000000000
         C            0.414361606804    -1.294529783333    -1.825198570848    12.000000000000
         C            1.220361606804    -1.572529783333     0.616801429152    12.000000000000
         H            2.469361606804    -1.312529783333    -1.121198570848     1.007825032230
         H            1.554361606804     0.092470216667    -0.647198570848     1.007825032230
         H           -0.516638393196    -0.820529783333    -1.514198570848     1.007825032230
         H            1.816361606804    -1.041529783333     1.359801429152     1.007825032230
         H            0.157361606804    -1.462529783333     0.825801429152     1.007825032230
         H            1.483361606804    -2.629529783333     0.639801429152     1.007825032230
         H            0.705990606804    -0.896209783333    -2.808198570848     1.007825032230
         H            0.238435606804    -2.378087783333    -1.895568570848     1.007825032230
         C           -0.939638393196     1.681470216667     0.519801429152    12.000000000000
         C           -2.097638393196     2.102470216667     1.403801429152    12.000000000000
         H           -0.087638393196     1.422470216667     1.149801429152     1.007825032230
         H           -1.221638393196     0.805470216667    -0.061198570848     1.007825032230
         H           -0.639638393196     2.486470216667    -0.152198570848     1.007825032230
         H           -2.283638393196     1.322470216667     2.143801429152     1.007825032230
         H           -3.000408393196     2.243210216667     0.791261429152     1.007825032230
         H           -1.840217393196     3.045310216667     1.908561429152     1.007825032230

  Running in c1 symmetry.

  Rotational constants: A =      0.21386  B =      0.04377  C =      0.03955 [cm^-1]
  Rotational constants: A =   6411.45862  B =   1312.31791  C =   1185.64433 [MHz]
  Nuclear repulsion =  180.183037610309697

  Charge       = 0
  Multiplicity = 1
  Electrons    = 44
  Nalpha       = 22
  Nbeta        = 22

  ==> Algorithm <==

  SCF Algorithm Type is PK.
  DIIS enabled.
  MOM disabled.
  Fractional occupation disabled.
  Guess Type is SAD.
  Energy threshold   = 1.00e-06
  Density threshold  = 1.00e-10
  Integral threshold = 0.00e+00

  ==> Primary Basis <==

  Basis Set: CC-PVDZ
    Blend: CC-PVDZ
    Number of shells: 72
    Number of basis function: 140
    Number of Cartesian functions: 145
    Spherical Harmonics?: true
    Max angular momentum: 2

  ==> Pre-Iterations <==

   -------------------------------------------------------
    Irrep   Nso     Nmo     Nalpha   Nbeta   Ndocc  Nsocc
   -------------------------------------------------------
     A        140     140       0       0       0       0
   -------------------------------------------------------
    Total     140     140      22      22      22       0
   -------------------------------------------------------

  ==> Integral Setup <==

  Using integral reordering PK algorithm.
  Sizing the integral batches needed.
  Building batch lookup table.
   Calculation information:
      Number of atoms:                  19
      Number of AO shells:              72
      Number of primitives:            180
      Number of atomic orbitals:       145
      Number of basis functions:       140

      Integral cutoff                 1.00e-12
      Number of threads:                 1

	Batch   1 pq = [       0,    9405] index = [             0,44231715] size =     44231715
	Batch   2 pq = [    9405,    9870] index = [      44231715,48713385] size =      4481670
  Task number: 5
  Buffer size: 11059200
  Buffer per thread: 2
  We computed 2959659 shell quartets total.
  Whereas there are 3454506 unique shell quartets.

  ==> DiskJK: Disk-Based J/K Matrices <==

    J tasked:                  Yes
    K tasked:                  Yes
    wK tasked:                  No
    Memory [MiB]:              375
    Schwarz Cutoff:          1E-12

    OpenMP threads:              1

  Minimum eigenvalue in the overlap matrix is 5.5701065608E-03.
  Using Symmetric Orthogonalization.

  SCF Guess: Superposition of Atomic Densities via on-the-fly atomic UHF.

  ==> Iterations <==

                        Total Energy        Delta E     RMS |[F,P]|

   @RHF iter SAD:  -196.36871556178326   -1.96369e+02   0.00000e+00
   @RHF iter   1:  -197.31099026380667   -9.42275e-01   3.79893e-03 DIIS
   @RHF iter   2:  -197.47105635195470   -1.60066e-01   1.62829e-03 DIIS
   @RHF iter   3:  -197.49910801858371   -2.80517e-02   3.25102e-04 DIIS
   @RHF iter   4:  -197.50132157951603   -2.21356e-03   4.88444e-05 DIIS
   @RHF iter   5:  -197.50136068050429   -3.91010e-05   1.49281e-05 DIIS
   @RHF iter   6:  -197.50136411985190   -3.43935e-06   2.43059e-06 DIIS
   @RHF iter   7:  -197.50136422972895   -1.09877e-07   4.89438e-07 DIIS
   @RHF iter   8:  -197.50136423485071   -5.12176e-09   1.31848e-07 DIIS
   @RHF iter   9:  -197.50136423520672   -3.56010e-10   4.13369e-08 DIIS
   @RHF iter  10:  -197.50136423524782   -4.10978e-11   8.40448e-09 DIIS
   @RHF iter  11:  -197.50136423524984   -2.01794e-12   1.51194e-09 DIIS
   @RHF iter  12:  -197.50136423525018   -3.41061e-13   2.79218e-10 DIIS
   @RHF iter  13:  -197.50136423524998    1.98952e-13   4.99245e-11 DIIS
  Energy and wave function converged.

  ==> Post-Iterations <==

    Orbital Energies [Eh]
    ---------------------

    Doubly Occupied:

       1A    -11.219130     2A    -11.218379     3A    -11.217571
       4A    -11.216217     5A    -11.214532     6A     -1.049984
       7A     -1.022306     8A     -0.924275     9A     -0.835599
      10A     -0.796638    11A     -0.624441    12A     -0.601609
      13A     -0.599769    14A     -0.594656    15A     -0.548541
      16A     -0.533046    17A     -0.502136    18A     -0.487936
      19A     -0.483798    20A     -0.471893    21A     -0.469230
      22A     -0.461860

    Virtual:

      23A      0.170803    24A      0.195237    25A      0.217339
      26A      0.224835    27A      0.235441    28A      0.251986
      29A      0.259065    30A      0.262022    31A      0.273256
      32A      0.280035    33A      0.292002    34A      0.307531
      35A      0.318526    36A      0.367481    37A      0.384367
      38A      0.416768    39A      0.431659    40A      0.569024
      41A      0.585569    42A      0.590432    43A      0.601809
      44A      0.618433    45A      0.628135    46A      0.640583
      47A      0.665698    48A      0.703531    49A      0.760258
      50A      0.783439    51A      0.803953    52A      0.841638
      53A      0.869700    54A      0.871546    55A      0.886092
      56A      0.892418    57A      0.893267    58A      0.896390
      59A      0.907675    60A      0.909301    61A      0.915513
      62A      0.922394    63A      0.934875    64A      0.967675
      65A      0.972093    66A      0.978301    67A      0.987550
      68A      1.010685    69A      1.118456    70A      1.123071
      71A      1.128511    72A      1.145376    73A      1.208688
      74A      1.266093    75A      1.374556    76A      1.463730
      77A      1.473894    78A      1.481838    79A      1.493352
      80A      1.538440    81A      1.594188    82A      1.637469
      83A      1.667910    84A      1.676917    85A      1.685877
      86A      1.693231    87A      1.714132    88A      1.837674
      89A      1.853258    90A      1.861956    91A      1.870382
      92A      1.879245    93A      1.913234    94A      1.927485
      95A      1.935184    96A      1.943097    97A      1.948135
      98A      1.953373    99A      1.958746   100A      1.961162
     101A      1.973925   102A      1.978920   103A      1.988568
     104A      2.000885   105A      2.013664   106A      2.026897
     107A      2.079620   108A      2.107359   109A      2.119989
     110A      2.145660   111A      2.186565   112A      2.277181
     113A      2.290899   114A      2.308455   115A      2.314742
     116A      2.325407   117A      2.344995   118A      2.456382
     119A      2.466311   120A      2.486415   121A      2.529903
     122A      2.567626   123A      2.574142   124A      2.578126
     125A      2.628687   126A      2.634874   127A      2.754788
     128A      2.763273   129A      2.775292   130A      2.788511
     131A      2.813027   132A      2.829479   133A      2.842367
     134A      2.858897   135A      2.920516   136A      2.943431
     137A      2.957866   138A      2.967744   139A      2.984566
     140A      3.056382

    Final Occupation by Irrep:
              A
    DOCC [    22 ]

  @RHF Final Energy:  -197.50136423524998

   => Energetics <=

    Nuclear Repulsion Energy =            180.1830376103096967
    One-Electron Energy =                -621.1817108422873162
    Two-Electron Energy =                 243.4973089967276110
    Total Energy =                       -197.5013642352499801

Computation Completed

Properties will be evaluated at   0.000000,   0.000000,   0.000000 [a0]

Properties computed using the SCF density matrix

  Nuclear Dipole Moment: [e a0]
     X:    -1.0918      Y:     0.8221      Z:     0.5804

  Electronic Dipole Moment: [e a0]
     X:     1.1206      Y:    -0.7940      Z:    -0.5767

  Dipole Moment: [e a0]
     X:     0.0288      Y:     0.0281      Z:     0.0037     Total:     0.0404

  Dipole Moment: [D]
     X:     0.0733      Y:     0.0714      Z:     0.0094     Total:     0.1027

*** tstop() called on ds3 at Tue Apr 28 03:20:03 2020
Module time:
	user time   =      15.91 seconds =       0.27 minutes
	system time =       6.60 seconds =       0.11 minutes
	total time  =         22 seconds =       0.37 minutes
Total time:
	user time   =      15.91 seconds =       0.27 minutes
	system time =       6.60 seconds =       0.11 minutes
	total time  =         22 seconds =       0.37 minutes
                                     G D M A

                                 by Anthony Stone

                           version 2.2.06, 22 June 2011

               Distributed Multipoles from Gaussian wavefunctions

Starting at 3:20:3 on 28 Apr 2020

Using SCF density matrix from file ./SSI/SSI-055ILE-151THR-1-dimer.test.18557.fchk

                         Distributed Multipole Analysis

Standard DMA

Positions and radii in angstrom
Multipole moments in atomic units, ea_0^k for rank k

C          x =  1.500362  y = -0.990530  z = -0.767199 angstrom
           Maximum rank =  0   Radius =  0.650 angstrom
                   Q00  =  -0.102849

C          x =  0.414362  y = -1.294530  z = -1.825199 angstrom
           Maximum rank =  0   Radius =  0.650 angstrom
                   Q00  =  -0.237207

C          x =  1.220362  y = -1.572530  z =  0.616801 angstrom
           Maximum rank =  0   Radius =  0.650 angstrom
                   Q00  =  -0.239307

H          x =  2.469362  y = -1.312530  z = -1.121199 angstrom
           Maximum rank =  0   Radius =  0.325 angstrom
                   Q00  =   0.051264

H          x =  1.554362  y =  0.092470  z = -0.647199 angstrom
           Maximum rank =  0   Radius =  0.325 angstrom
                   Q00  =   0.047950

H          x = -0.516638  y = -0.820530  z = -1.514199 angstrom
           Maximum rank =  0   Radius =  0.325 angstrom
                   Q00  =   0.079744

H          x =  1.816362  y = -1.041530  z =  1.359801 angstrom
           Maximum rank =  0   Radius =  0.325 angstrom
                   Q00  =   0.083476

H          x =  0.157362  y = -1.462530  z =  0.825801 angstrom
           Maximum rank =  0   Radius =  0.325 angstrom
                   Q00  =   0.075377

H          x =  1.483362  y = -2.629530  z =  0.639801 angstrom
           Maximum rank =  0   Radius =  0.325 angstrom
                   Q00  =   0.078351

H          x =  0.705991  y = -0.896210  z = -2.808199 angstrom
           Maximum rank =  0   Radius =  0.325 angstrom
                   Q00  =   0.087220

H          x =  0.238436  y = -2.378088  z = -1.895569 angstrom
           Maximum rank =  0   Radius =  0.325 angstrom
                   Q00  =   0.075202

C          x = -0.939638  y =  1.681470  z =  0.519801 angstrom
           Maximum rank =  0   Radius =  0.650 angstrom
                   Q00  =  -0.245424

C          x = -2.097638  y =  2.102470  z =  1.403801 angstrom
           Maximum rank =  0   Radius =  0.650 angstrom
                   Q00  =  -0.222671

H          x = -0.087638  y =  1.422470  z =  1.149801 angstrom
           Maximum rank =  0   Radius =  0.325 angstrom
                   Q00  =   0.076681

H          x = -1.221638  y =  0.805470  z = -0.061199 angstrom
           Maximum rank =  0   Radius =  0.325 angstrom
                   Q00  =   0.078502

H          x = -0.639638  y =  2.486470  z = -0.152199 angstrom
           Maximum rank =  0   Radius =  0.325 angstrom
                   Q00  =   0.079309

H          x = -2.283638  y =  1.322470  z =  2.143801 angstrom
           Maximum rank =  0   Radius =  0.325 angstrom
                   Q00  =   0.079408

H          x = -3.000408  y =  2.243210  z =  0.791261 angstrom
           Maximum rank =  0   Radius =  0.325 angstrom
                   Q00  =   0.077179

H          x = -1.840217  y =  3.045310  z =  1.908561 angstrom
           Maximum rank =  0   Radius =  0.325 angstrom
                   Q00  =   0.077797

Total multipoles referred to origin at
           x =   0.000000,  y =    0.000000,  z =    0.000000 angstrom
                   Q00  =  -0.000000

Finished at 3:20:3 on 28 Apr 2020

  DMA results are available in the Python driver through the
	  variable('DMA DISTRIBUTED MULTIPOLES')
  and
	  variable('DMA TOTAL MULTIPOLES')
  commands.

    Psi4 stopped on: Tuesday, 28 April 2020 03:20AM
    Psi4 wall time for execution: 0:00:22.10

*** Psi4 exiting successfully. Buy a developer a beer!
