                               Psi4 1.3.2 release

  ==> Input File <==

--------------------------------------------------------------------------
import numpy as np
set {scf_type pk
basis cc-pvdz
d_convergence 10
gdma_switch   0
gdma_limit    0
gdma_origin   [ 0.0,  0.0,  0.0 ]
}
molecule test {
    units Angstrom
    0 1
    --
    0 1
    C                0.081448063589716     0.031365746573449     2.052751456189705
    C                0.689448063589716    -1.116634253426551     2.849751456189705
    H               -0.925551936410284     0.250365746573449     2.409751456189705
    H                0.699448063589716     0.923365746573448     2.172751456189705
    H                0.051448063589716    -0.209634253426551     0.991751456189704
    H                1.677448063589716    -1.325634253426552     2.438751456189705
    H                0.083168063589716    -2.032856253426552     2.795351456189705
    H                0.808698063589716    -0.812049253426551     3.899991456189704
    C               -0.526551936410284     0.549365746573448    -1.699248543810296
    C               -0.243551936410284     0.534365746573448    -3.204248543810296
    H                0.316448063589716     0.992365746573449    -1.166248543810296
    H               -1.419551936410284     1.145365746573449    -1.501248543810296
    H               -0.700551936410284    -0.463634253426551    -1.339248543810296
    H               -1.105551936410284     0.080365746573449    -3.685248543810296
    H                0.639188063589716    -0.087856253426551    -3.413091543810296
    H               -0.134071936410284     1.558136746573449    -3.591425543810296

}
e, wfn = energy('scf', return_wfn=True)
gdma(wfn)
dmavals = variable('DMA DISTRIBUTED MULTIPOLES')
charges = np.array(dmavals)
print(charges)
np.save('SSI-123VAL-134LEU-1-dimer.npy', np.array(charges))--------------------------------------------------------------------------

*** tstart() called on ds3
*** at Tue Apr 28 09:31:24 2020

   => Loading Basis Set <=

    Name: CC-PVDZ
    Role: ORBITAL
    Keyword: BASIS
    atoms 1-2, 9-10  entry C          line   138 file /theoryfs2/ds/metcalf/miniconda2/envs/tf2gpu/share/psi4/basis/cc-pvdz.gbs
    atoms 3-8, 11-16 entry H          line    22 file /theoryfs2/ds/metcalf/miniconda2/envs/tf2gpu/share/psi4/basis/cc-pvdz.gbs

         ---------------------------------------------------------
                                   SCF
               by Justin Turney, Rob Parrish, Andy Simmonett
                          and Daniel G. A. Smith
                              RHF Reference
                        1 Threads,    500 MiB Core
         ---------------------------------------------------------

  ==> Geometry <==

    Molecular point group: c1
    Full point group: C1

    Geometry (in Angstrom), charge = 0, multiplicity = 1:

       Center              X                  Y                   Z               Mass
    ------------   -----------------  -----------------  -----------------  -----------------
         C            0.081448063590     0.031365746573     2.052751456190    12.000000000000
         C            0.689448063590    -1.116634253427     2.849751456190    12.000000000000
         H           -0.925551936410     0.250365746573     2.409751456190     1.007825032230
         H            0.699448063590     0.923365746573     2.172751456190     1.007825032230
         H            0.051448063590    -0.209634253427     0.991751456190     1.007825032230
         H            1.677448063590    -1.325634253427     2.438751456190     1.007825032230
         H            0.083168063590    -2.032856253427     2.795351456190     1.007825032230
         H            0.808698063590    -0.812049253427     3.899991456190     1.007825032230
         C           -0.526551936410     0.549365746573    -1.699248543810    12.000000000000
         C           -0.243551936410     0.534365746573    -3.204248543810    12.000000000000
         H            0.316448063590     0.992365746573    -1.166248543810     1.007825032230
         H           -1.419551936410     1.145365746573    -1.501248543810     1.007825032230
         H           -0.700551936410    -0.463634253427    -1.339248543810     1.007825032230
         H           -1.105551936410     0.080365746573    -3.685248543810     1.007825032230
         H            0.639188063590    -0.087856253427    -3.413091543810     1.007825032230
         H           -0.134071936410     1.558136746573    -3.591425543810     1.007825032230

  Running in c1 symmetry.

  Rotational constants: A =      0.69008  B =      0.03952  C =      0.03856 [cm^-1]
  Rotational constants: A =  20688.15475  B =   1184.68201  C =   1155.98302 [MHz]
  Nuclear repulsion =  119.316790245220503

  Charge       = 0
  Multiplicity = 1
  Electrons    = 36
  Nalpha       = 18
  Nbeta        = 18

  ==> Algorithm <==

  SCF Algorithm Type is PK.
  DIIS enabled.
  MOM disabled.
  Fractional occupation disabled.
  Guess Type is SAD.
  Energy threshold   = 1.00e-06
  Density threshold  = 1.00e-10
  Integral threshold = 0.00e+00

  ==> Primary Basis <==

  Basis Set: CC-PVDZ
    Blend: CC-PVDZ
    Number of shells: 60
    Number of basis function: 116
    Number of Cartesian functions: 120
    Spherical Harmonics?: true
    Max angular momentum: 2

  ==> Pre-Iterations <==

   -------------------------------------------------------
    Irrep   Nso     Nmo     Nalpha   Nbeta   Ndocc  Nsocc
   -------------------------------------------------------
     A        116     116       0       0       0       0
   -------------------------------------------------------
    Total     116     116      18      18      18       0
   -------------------------------------------------------

  ==> Integral Setup <==

  Using integral reordering PK algorithm.
  Sizing the integral batches needed.
  Building batch lookup table.
   Calculation information:
      Number of atoms:                  16
      Number of AO shells:              60
      Number of primitives:            148
      Number of atomic orbitals:       120
      Number of basis functions:       116

      Integral cutoff                 1.00e-12
      Number of threads:                 1

	Batch   1 pq = [       0,    6786] index = [             0,23028291] size =     23028291
  Task number: 3
  Buffer size: 11059200
  Buffer per thread: 2
  We computed 1319769 shell quartets total.
  Whereas there are 1675365 unique shell quartets.

  ==> DiskJK: Disk-Based J/K Matrices <==

    J tasked:                  Yes
    K tasked:                  Yes
    wK tasked:                  No
    Memory [MiB]:              375
    Schwarz Cutoff:          1E-12

    OpenMP threads:              1

  Minimum eigenvalue in the overlap matrix is 6.1629535887E-03.
  Using Symmetric Orthogonalization.

  SCF Guess: Superposition of Atomic Densities via on-the-fly atomic UHF.

  ==> Iterations <==

                        Total Energy        Delta E     RMS |[F,P]|

   @RHF iter SAD:  -157.35033675116458   -1.57350e+02   0.00000e+00
   @RHF iter   1:  -158.30757589203688   -9.57239e-01   4.21344e-03 DIIS
   @RHF iter   2:  -158.44092767981545   -1.33352e-01   1.79578e-03 DIIS
   @RHF iter   3:  -158.46433397875248   -2.34063e-02   3.50417e-04 DIIS
   @RHF iter   4:  -158.46617371241058   -1.83973e-03   3.92948e-05 DIIS
   @RHF iter   5:  -158.46619806541585   -2.43530e-05   6.93584e-06 DIIS
   @RHF iter   6:  -158.46619875660451   -6.91189e-07   1.30174e-06 DIIS
   @RHF iter   7:  -158.46619877253403   -1.59295e-08   3.29769e-07 DIIS
   @RHF iter   8:  -158.46619877358529   -1.05126e-09   4.30080e-08 DIIS
   @RHF iter   9:  -158.46619877361692   -3.16334e-11   8.79728e-09 DIIS
   @RHF iter  10:  -158.46619877361917   -2.24532e-12   2.78771e-09 DIIS
   @RHF iter  11:  -158.46619877361911    5.68434e-14   7.34869e-10 DIIS
   @RHF iter  12:  -158.46619877361860    5.11591e-13   1.32561e-10 DIIS
   @RHF iter  13:  -158.46619877361925   -6.53699e-13   2.58531e-11 DIIS
  Energy and wave function converged.

  ==> Post-Iterations <==

    Orbital Energies [Eh]
    ---------------------

    Doubly Occupied:

       1A    -11.219446     2A    -11.218058     3A    -11.217438
       4A    -11.214559     5A     -1.019145     6A     -1.017212
       7A     -0.838806     8A     -0.833036     9A     -0.601567
      10A     -0.599035    11A     -0.596350    12A     -0.594707
      13A     -0.505129    14A     -0.497269    15A     -0.489588
      16A     -0.486104    17A     -0.483069    18A     -0.478207

    Virtual:

      19A      0.176922    20A      0.194132    21A      0.225055
      22A      0.239975    23A      0.248912    24A      0.256959
      25A      0.262376    26A      0.275610    27A      0.280244
      28A      0.287155    29A      0.293092    30A      0.333553
      31A      0.388708    32A      0.411438    33A      0.578478
      34A      0.595536    35A      0.599466    36A      0.602774
      37A      0.604850    38A      0.650831    39A      0.662720
      40A      0.686729    41A      0.701146    42A      0.754206
      43A      0.839783    44A      0.879545    45A      0.888741
      46A      0.893188    47A      0.893953    48A      0.894954
      49A      0.898763    50A      0.906455    51A      0.910012
      52A      0.916635    53A      0.925861    54A      0.944373
      55A      0.964735    56A      1.004019    57A      1.123400
      58A      1.128412    59A      1.131705    60A      1.158868
      61A      1.231326    62A      1.269524    63A      1.469449
      64A      1.473807    65A      1.480371    66A      1.486375
      67A      1.571804    68A      1.590744    69A      1.676019
      70A      1.683041    71A      1.690932    72A      1.697746
      73A      1.855451    74A      1.857320    75A      1.866296
      76A      1.879916    77A      1.889599    78A      1.915406
      79A      1.924055    80A      1.934588    81A      1.946281
      82A      1.949269    83A      1.951234    84A      1.954192
      85A      1.964073    86A      1.978812    87A      1.980120
      88A      2.025809    89A      2.087981    90A      2.103025
      91A      2.120709    92A      2.124947    93A      2.293575
      94A      2.301281    95A      2.315954    96A      2.327703
      97A      2.441312    98A      2.459428    99A      2.460492
     100A      2.489035   101A      2.555770   102A      2.561638
     103A      2.574065   104A      2.581011   105A      2.754123
     106A      2.763603   107A      2.782476   108A      2.804256
     109A      2.838009   110A      2.851179   111A      2.855978
     112A      2.864094   113A      2.931577   114A      2.947983
     115A      2.959621   116A      2.986613

    Final Occupation by Irrep:
              A
    DOCC [    18 ]

  @RHF Final Energy:  -158.46619877361925

   => Energetics <=

    Nuclear Repulsion Energy =            119.3167902452205027
    One-Electron Energy =                -447.7485272669587175
    Two-Electron Energy =                 169.9655382481189747
    Total Energy =                       -158.4661987736192543

Computation Completed

Properties will be evaluated at   0.000000,   0.000000,   0.000000 [a0]

Properties computed using the SCF density matrix

  Nuclear Dipole Moment: [e a0]
     X:    -0.0088      Y:     0.0172      Z:     0.0111

  Electronic Dipole Moment: [e a0]
     X:    -0.0030      Y:    -0.0094      Z:    -0.0384

  Dipole Moment: [e a0]
     X:    -0.0118      Y:     0.0078      Z:    -0.0273     Total:     0.0308

  Dipole Moment: [D]
     X:    -0.0300      Y:     0.0198      Z:    -0.0694     Total:     0.0782

*** tstop() called on ds3 at Tue Apr 28 09:31:35 2020
Module time:
	user time   =       7.15 seconds =       0.12 minutes
	system time =       3.01 seconds =       0.05 minutes
	total time  =         11 seconds =       0.18 minutes
Total time:
	user time   =       7.15 seconds =       0.12 minutes
	system time =       3.01 seconds =       0.05 minutes
	total time  =         11 seconds =       0.18 minutes
                                     G D M A

                                 by Anthony Stone

                           version 2.2.06, 22 June 2011

               Distributed Multipoles from Gaussian wavefunctions

Starting at 9:31:35 on 28 Apr 2020

Using SCF density matrix from file ./SSI/SSI-123VAL-134LEU-1-dimer.test.10708.fchk

                         Distributed Multipole Analysis

Standard DMA

Positions and radii in angstrom
Multipole moments in atomic units, ea_0^k for rank k

C          x =  0.081448  y =  0.031366  z =  2.052751 angstrom
           Maximum rank =  0   Radius =  0.650 angstrom
                   Q00  =  -0.242455

C          x =  0.689448  y = -1.116634  z =  2.849751 angstrom
           Maximum rank =  0   Radius =  0.650 angstrom
                   Q00  =  -0.231106

H          x = -0.925552  y =  0.250366  z =  2.409751 angstrom
           Maximum rank =  0   Radius =  0.325 angstrom
                   Q00  =   0.077985

H          x =  0.699448  y =  0.923366  z =  2.172751 angstrom
           Maximum rank =  0   Radius =  0.325 angstrom
                   Q00  =   0.076557

H          x =  0.051448  y = -0.209634  z =  0.991751 angstrom
           Maximum rank =  0   Radius =  0.325 angstrom
                   Q00  =   0.084800

H          x =  1.677448  y = -1.325634  z =  2.438751 angstrom
           Maximum rank =  0   Radius =  0.325 angstrom
                   Q00  =   0.076139

H          x =  0.083168  y = -2.032856  z =  2.795351 angstrom
           Maximum rank =  0   Radius =  0.325 angstrom
                   Q00  =   0.079723

H          x =  0.808698  y = -0.812049  z =  3.899991 angstrom
           Maximum rank =  0   Radius =  0.325 angstrom
                   Q00  =   0.076965

C          x = -0.526552  y =  0.549366  z = -1.699249 angstrom
           Maximum rank =  0   Radius =  0.650 angstrom
                   Q00  =  -0.236364

C          x = -0.243552  y =  0.534366  z = -3.204249 angstrom
           Maximum rank =  0   Radius =  0.650 angstrom
                   Q00  =  -0.237022

H          x =  0.316448  y =  0.992366  z = -1.166249 angstrom
           Maximum rank =  0   Radius =  0.325 angstrom
                   Q00  =   0.077310

H          x = -1.419552  y =  1.145366  z = -1.501249 angstrom
           Maximum rank =  0   Radius =  0.325 angstrom
                   Q00  =   0.080609

H          x = -0.700552  y = -0.463634  z = -1.339249 angstrom
           Maximum rank =  0   Radius =  0.325 angstrom
                   Q00  =   0.077633

H          x = -1.105552  y =  0.080366  z = -3.685249 angstrom
           Maximum rank =  0   Radius =  0.325 angstrom
                   Q00  =   0.077586

H          x =  0.639188  y = -0.087856  z = -3.413092 angstrom
           Maximum rank =  0   Radius =  0.325 angstrom
                   Q00  =   0.079631

H          x = -0.134072  y =  1.558137  z = -3.591426 angstrom
           Maximum rank =  0   Radius =  0.325 angstrom
                   Q00  =   0.082009

Total multipoles referred to origin at
           x =   0.000000,  y =    0.000000,  z =    0.000000 angstrom
                   Q00  =  -0.000000

Finished at 9:31:35 on 28 Apr 2020

  DMA results are available in the Python driver through the
	  variable('DMA DISTRIBUTED MULTIPOLES')
  and
	  variable('DMA TOTAL MULTIPOLES')
  commands.

    Psi4 stopped on: Tuesday, 28 April 2020 09:31AM
    Psi4 wall time for execution: 0:00:10.72

*** Psi4 exiting successfully. Buy a developer a beer!
