                               Psi4 1.3.2 release

  ==> Input File <==

--------------------------------------------------------------------------
import numpy as np
set {scf_type pk
basis cc-pvdz
d_convergence 10
gdma_switch   0
gdma_limit    0
gdma_origin   [ 0.0,  0.0,  0.0 ]
}
molecule test {
    units Angstrom
    -2 1
    --
    -2 1
    C                1.981038462948189    -0.271082631757394    -1.862241975156157
    C                0.504038462948189     0.082917368242606    -1.921241975156158
    O                0.158038462948189     1.279917368242606    -1.980241975156158
    O               -0.354961537051811    -0.827082631757394    -1.910241975156157
    H                2.204038462948189    -1.011082631757394    -2.633241975156158
    H                2.201038462948189    -0.712082631757394    -0.889241975156157
    H                2.642568462948189     0.596217368242606    -2.004251975156158
    C               -0.549961537051811     1.028917368242606     1.604758024843842
    C                0.922038462948189     1.349917368242606     1.690758024843842
    C               -0.813961537051811    -0.464082631757394     1.500758024843843
    O                0.026038462948189    -1.293082631757394     1.917758024843843
    O               -1.923961537051811    -0.837082631757394     1.032758024843843
    H               -1.046961537051811     1.420917368242606     2.495758024843842
    H               -0.982961537051811     1.514917368242606     0.727758024843843
    H                1.427038462948189     0.899917368242606     0.834758024843843
    H                1.329038462948189     0.926917368242606     2.602758024843843
    H                1.144988462948189     2.426557368242606     1.724558024843843

}
e, wfn = energy('scf', return_wfn=True)
gdma(wfn)
dmavals = variable('DMA DISTRIBUTED MULTIPOLES')
charges = np.array(dmavals)
print(charges)
np.save('SSI-177ASP-216GLU-1-dimer.npy', np.array(charges))--------------------------------------------------------------------------

*** tstart() called on ds3
*** at Tue Apr 28 09:22:18 2020

   => Loading Basis Set <=

    Name: CC-PVDZ
    Role: ORBITAL
    Keyword: BASIS
    atoms 1-2, 8-10  entry C          line   138 file /theoryfs2/ds/metcalf/miniconda2/envs/tf2gpu/share/psi4/basis/cc-pvdz.gbs
    atoms 3-4, 11-12 entry O          line   198 file /theoryfs2/ds/metcalf/miniconda2/envs/tf2gpu/share/psi4/basis/cc-pvdz.gbs
    atoms 5-7, 13-17 entry H          line    22 file /theoryfs2/ds/metcalf/miniconda2/envs/tf2gpu/share/psi4/basis/cc-pvdz.gbs

         ---------------------------------------------------------
                                   SCF
               by Justin Turney, Rob Parrish, Andy Simmonett
                          and Daniel G. A. Smith
                              RHF Reference
                        1 Threads,    500 MiB Core
         ---------------------------------------------------------

  ==> Geometry <==

    Molecular point group: c1
    Full point group: C1

    Geometry (in Angstrom), charge = -2, multiplicity = 1:

       Center              X                  Y                   Z               Mass
    ------------   -----------------  -----------------  -----------------  -----------------
         C            1.981038462948    -0.271082631757    -1.862241975156    12.000000000000
         C            0.504038462948     0.082917368243    -1.921241975156    12.000000000000
         O            0.158038462948     1.279917368243    -1.980241975156    15.994914619570
         O           -0.354961537052    -0.827082631757    -1.910241975156    15.994914619570
         H            2.204038462948    -1.011082631757    -2.633241975156     1.007825032230
         H            2.201038462948    -0.712082631757    -0.889241975156     1.007825032230
         H            2.642568462948     0.596217368243    -2.004251975156     1.007825032230
         C           -0.549961537052     1.028917368243     1.604758024844    12.000000000000
         C            0.922038462948     1.349917368243     1.690758024844    12.000000000000
         C           -0.813961537052    -0.464082631757     1.500758024844    12.000000000000
         O            0.026038462948    -1.293082631757     1.917758024844    15.994914619570
         O           -1.923961537052    -0.837082631757     1.032758024844    15.994914619570
         H           -1.046961537052     1.420917368243     2.495758024844     1.007825032230
         H           -0.982961537052     1.514917368243     0.727758024844     1.007825032230
         H            1.427038462948     0.899917368243     0.834758024844     1.007825032230
         H            1.329038462948     0.926917368243     2.602758024844     1.007825032230
         H            1.144988462948     2.426557368243     1.724558024844     1.007825032230

  Running in c1 symmetry.

  Rotational constants: A =      0.06770  B =      0.03177  C =      0.02817 [cm^-1]
  Rotational constants: A =   2029.72402  B =    952.48011  C =    844.59419 [MHz]
  Nuclear repulsion =  439.780892453923968

  Charge       = -2
  Multiplicity = 1
  Electrons    = 72
  Nalpha       = 36
  Nbeta        = 36

  ==> Algorithm <==

  SCF Algorithm Type is PK.
  DIIS enabled.
  MOM disabled.
  Fractional occupation disabled.
  Guess Type is SAD.
  Energy threshold   = 1.00e-06
  Density threshold  = 1.00e-10
  Integral threshold = 0.00e+00

  ==> Primary Basis <==

  Basis Set: CC-PVDZ
    Blend: CC-PVDZ
    Number of shells: 78
    Number of basis function: 166
    Number of Cartesian functions: 175
    Spherical Harmonics?: true
    Max angular momentum: 2

  ==> Pre-Iterations <==

   -------------------------------------------------------
    Irrep   Nso     Nmo     Nalpha   Nbeta   Ndocc  Nsocc
   -------------------------------------------------------
     A        166     166       0       0       0       0
   -------------------------------------------------------
    Total     166     166      36      36      36       0
   -------------------------------------------------------

  ==> Integral Setup <==

  Using integral reordering PK algorithm.
  Sizing the integral batches needed.
  Building batch lookup table.
   Calculation information:
      Number of atoms:                  17
      Number of AO shells:              78
      Number of primitives:            238
      Number of atomic orbitals:       175
      Number of basis functions:       166

      Integral cutoff                 1.00e-12
      Number of threads:                 1

	Batch   1 pq = [       0,    9405] index = [             0,44231715] size =     44231715
	Batch   2 pq = [    9405,   13301] index = [      44231715,88464951] size =     44233236
	Batch   3 pq = [   13301,   13861] index = [      88464951,96070591] size =      7605640
  Task number: 9
  Buffer size: 11059200
  Buffer per thread: 2
  We computed 4324669 shell quartets total.
  Whereas there are 4747821 unique shell quartets.

  ==> DiskJK: Disk-Based J/K Matrices <==

    J tasked:                  Yes
    K tasked:                  Yes
    wK tasked:                  No
    Memory [MiB]:              375
    Schwarz Cutoff:          1E-12

    OpenMP threads:              1

  Minimum eigenvalue in the overlap matrix is 3.6675295902E-03.
  Using Symmetric Orthogonalization.

  SCF Guess: Superposition of Atomic Densities via on-the-fly atomic UHF.

  ==> Iterations <==

                        Total Energy        Delta E     RMS |[F,P]|

   @RHF iter SAD:  -491.38533776776018   -4.91385e+02   0.00000e+00
   @RHF iter   1:  -492.98359490866920   -1.59826e+00   5.63992e-03 DIIS
   @RHF iter   2:  -493.28115890710717   -2.97564e-01   3.32899e-03 DIIS
   @RHF iter   3:  -493.38784500503129   -1.06686e-01   4.43101e-04 DIIS
   @RHF iter   4:  -493.39133665217378   -3.49165e-03   1.69216e-04 DIIS
   @RHF iter   5:  -493.39192258123296   -5.85929e-04   2.98283e-05 DIIS
   @RHF iter   6:  -493.39194157164980   -1.89904e-05   1.38622e-05 DIIS
   @RHF iter   7:  -493.39194419564848   -2.62400e-06   2.95291e-06 DIIS
   @RHF iter   8:  -493.39194439253453   -1.96886e-07   8.17521e-07 DIIS
   @RHF iter   9:  -493.39194440933295   -1.67984e-08   2.81350e-07 DIIS
   @RHF iter  10:  -493.39194441222440   -2.89145e-09   1.03866e-07 DIIS
   @RHF iter  11:  -493.39194441269279   -4.68390e-10   4.15307e-08 DIIS
   @RHF iter  12:  -493.39194441274424   -5.14433e-11   1.86270e-08 DIIS
   @RHF iter  13:  -493.39194441275538   -1.11413e-11   4.49378e-09 DIIS
   @RHF iter  14:  -493.39194441275811   -2.72848e-12   1.46476e-09 DIIS
   @RHF iter  15:  -493.39194441275771    3.97904e-13   5.97401e-10 DIIS
   @RHF iter  16:  -493.39194441275930   -1.59162e-12   2.39168e-10 DIIS
   @RHF iter  17:  -493.39194441275822    1.08002e-12   9.41132e-11 DIIS
  Energy and wave function converged.

  ==> Post-Iterations <==

    Orbital Energies [Eh]
    ---------------------

    Doubly Occupied:

       1A    -20.136640     2A    -20.130683     3A    -20.127225
       4A    -20.116026     5A    -10.992600     6A    -10.981054
       7A    -10.944457     8A    -10.942356     9A    -10.922249
      10A     -1.026310    11A     -1.012200    12A     -0.906111
      13A     -0.894543    14A     -0.747176    15A     -0.686954
      16A     -0.573927    17A     -0.383515    18A     -0.377054
      19A     -0.332686    20A     -0.302725    21A     -0.297293
      22A     -0.292634    23A     -0.282189    24A     -0.262542
      25A     -0.228867    26A     -0.224949    27A     -0.219803
      28A     -0.194937    29A     -0.181330    30A     -0.164406
      31A     -0.063952    32A     -0.052591    33A     -0.041849
      34A     -0.033076    35A     -0.031472    36A     -0.021352

    Virtual:

      37A      0.444488    38A      0.463562    39A      0.496027
      40A      0.508212    41A      0.513108    42A      0.519942
      43A      0.551571    44A      0.577057    45A      0.616082
      46A      0.634614    47A      0.680292    48A      0.694635
      49A      0.731503    50A      0.789188    51A      0.814062
      52A      0.851893    53A      0.864513    54A      0.897710
      55A      0.914657    56A      0.961536    57A      1.004642
      58A      1.009889    59A      1.065997    60A      1.092841
      61A      1.093431    62A      1.116277    63A      1.129702
      64A      1.143129    65A      1.150694    66A      1.167696
      67A      1.174117    68A      1.183212    69A      1.189161
      70A      1.190253    71A      1.206939    72A      1.213428
      73A      1.250618    74A      1.262284    75A      1.284207
      76A      1.289597    77A      1.372462    78A      1.385316
      79A      1.438449    80A      1.449026    81A      1.455437
      82A      1.491549    83A      1.526603    84A      1.535245
      85A      1.599514    86A      1.632576    87A      1.658574
      88A      1.683721    89A      1.695770    90A      1.714682
      91A      1.729360    92A      1.751037    93A      1.761138
      94A      1.770408    95A      1.796282    96A      1.811336
      97A      1.827156    98A      1.848952    99A      1.857609
     100A      1.939794   101A      1.957811   102A      1.965823
     103A      1.987335   104A      2.010309   105A      2.062987
     106A      2.142934   107A      2.165291   108A      2.171905
     109A      2.196201   110A      2.211230   111A      2.226978
     112A      2.242549   113A      2.269458   114A      2.276988
     115A      2.297178   116A      2.308121   117A      2.332424
     118A      2.347124   119A      2.350684   120A      2.382178
     121A      2.394231   122A      2.438986   123A      2.492006
     124A      2.535355   125A      2.561613   126A      2.587993
     127A      2.618326   128A      2.635180   129A      2.682422
     130A      2.707007   131A      2.743544   132A      2.765240
     133A      2.804443   134A      2.850680   135A      2.859627
     136A      2.894580   137A      2.934429   138A      2.965980
     139A      3.029052   140A      3.057612   141A      3.082480
     142A      3.114422   143A      3.144209   144A      3.165606
     145A      3.212450   146A      3.262720   147A      3.371914
     148A      3.383898   149A      3.411934   150A      3.421348
     151A      3.429034   152A      3.440964   153A      3.491231
     154A      3.496423   155A      3.779696   156A      3.788612
     157A      3.886097   158A      3.894373   159A      3.944110
     160A      3.954742   161A      4.185933   162A      4.198536
     163A      4.205973   164A      4.212240   165A      4.330258
     166A      4.337297

    Final Occupation by Irrep:
              A
    DOCC [    36 ]

  @RHF Final Energy:  -493.39194441275822

   => Energetics <=

    Nuclear Repulsion Energy =            439.7808924539239683
    One-Electron Energy =               -1576.0862086306674428
    Two-Electron Energy =                 642.9133717639851966
    Total Energy =                       -493.3919444127582210

Computation Completed

Properties will be evaluated at   0.000000,   0.000000,   0.000000 [a0]

Properties computed using the SCF density matrix

  Nuclear Dipole Moment: [e a0]
     X:     8.3510      Y:     5.6751      Z:     2.6756

  Electronic Dipole Moment: [e a0]
     X:    -6.4134      Y:    -4.2354      Z:    -2.0496

  Dipole Moment: [e a0]
     X:     1.9376      Y:     1.4398      Z:     0.6260     Total:     2.4939

  Dipole Moment: [D]
     X:     4.9250      Y:     3.6595      Z:     1.5912     Total:     6.3387

*** tstop() called on ds3 at Tue Apr 28 09:23:14 2020
Module time:
	user time   =      40.02 seconds =       0.67 minutes
	system time =      16.78 seconds =       0.28 minutes
	total time  =         56 seconds =       0.93 minutes
Total time:
	user time   =      40.02 seconds =       0.67 minutes
	system time =      16.78 seconds =       0.28 minutes
	total time  =         56 seconds =       0.93 minutes
                                     G D M A

                                 by Anthony Stone

                           version 2.2.06, 22 June 2011

               Distributed Multipoles from Gaussian wavefunctions

Starting at 9:23:14 on 28 Apr 2020

Using SCF density matrix from file ./SSI/SSI-177ASP-216GLU-1-dimer.test.10344.fchk

                         Distributed Multipole Analysis

Standard DMA

Positions and radii in angstrom
Multipole moments in atomic units, ea_0^k for rank k

C          x =  1.981038  y = -0.271083  z = -1.862242 angstrom
           Maximum rank =  0   Radius =  0.650 angstrom
                   Q00  =  -0.276913

C          x =  0.504038  y =  0.082917  z = -1.921242 angstrom
           Maximum rank =  0   Radius =  0.650 angstrom
                   Q00  =   0.994650

O          x =  0.158038  y =  1.279917  z = -1.980242 angstrom
           Maximum rank =  0   Radius =  0.650 angstrom
                   Q00  =  -0.948416

O          x = -0.354962  y = -0.827083  z = -1.910242 angstrom
           Maximum rank =  0   Radius =  0.650 angstrom
                   Q00  =  -0.914594

H          x =  2.204038  y = -1.011083  z = -2.633242 angstrom
           Maximum rank =  0   Radius =  0.325 angstrom
                   Q00  =   0.040137

H          x =  2.201038  y = -0.712083  z = -0.889242 angstrom
           Maximum rank =  0   Radius =  0.325 angstrom
                   Q00  =   0.093206

H          x =  2.642568  y =  0.596217  z = -2.004252 angstrom
           Maximum rank =  0   Radius =  0.325 angstrom
                   Q00  =   0.019195

C          x = -0.549962  y =  1.028917  z =  1.604758 angstrom
           Maximum rank =  0   Radius =  0.650 angstrom
                   Q00  =  -0.154818

C          x =  0.922038  y =  1.349917  z =  1.690758 angstrom
           Maximum rank =  0   Radius =  0.650 angstrom
                   Q00  =  -0.180930

C          x = -0.813962  y = -0.464083  z =  1.500758 angstrom
           Maximum rank =  0   Radius =  0.650 angstrom
                   Q00  =   1.026174

O          x =  0.026038  y = -1.293083  z =  1.917758 angstrom
           Maximum rank =  0   Radius =  0.650 angstrom
                   Q00  =  -0.978259

O          x = -1.923962  y = -0.837083  z =  1.032758 angstrom
           Maximum rank =  0   Radius =  0.650 angstrom
                   Q00  =  -0.929726

H          x = -1.046962  y =  1.420917  z =  2.495758 angstrom
           Maximum rank =  0   Radius =  0.325 angstrom
                   Q00  =  -0.004411

H          x = -0.982962  y =  1.514917  z =  0.727758 angstrom
           Maximum rank =  0   Radius =  0.325 angstrom
                   Q00  =   0.086269

H          x =  1.427038  y =  0.899917  z =  0.834758 angstrom
           Maximum rank =  0   Radius =  0.325 angstrom
                   Q00  =   0.101236

H          x =  1.329038  y =  0.926917  z =  2.602758 angstrom
           Maximum rank =  0   Radius =  0.325 angstrom
                   Q00  =   0.038025

H          x =  1.144988  y =  2.426557  z =  1.724558 angstrom
           Maximum rank =  0   Radius =  0.325 angstrom
                   Q00  =  -0.010825

Total multipoles referred to origin at
           x =   0.000000,  y =    0.000000,  z =    0.000000 angstrom
                   Q00  =  -2.000000

Finished at 9:23:14 on 28 Apr 2020

  DMA results are available in the Python driver through the
	  variable('DMA DISTRIBUTED MULTIPOLES')
  and
	  variable('DMA TOTAL MULTIPOLES')
  commands.

    Psi4 stopped on: Tuesday, 28 April 2020 09:23AM
    Psi4 wall time for execution: 0:00:55.28

*** Psi4 exiting successfully. Buy a developer a beer!
