                               Psi4 1.3.2 release

  ==> Input File <==

--------------------------------------------------------------------------
import numpy as np
set {scf_type pk
basis cc-pvdz
d_convergence 10
gdma_switch   0
gdma_limit    0
gdma_origin   [ 0.0,  0.0,  0.0 ]
}
molecule test {
    units Angstrom
    0 1
    --
    0 1
    C                3.335411415869056    -0.864982776860519     1.368696427671366
    C                2.129411415869056    -0.419982776860519     0.562696427671367
    O                1.286411415869056    -1.280982776860520     0.229696427671367
    O                2.008411415869056     0.790017223139481     0.272696427671367
    H                3.978411415869056    -0.011982776860519     1.591696427671367
    H                3.913411415869055    -1.571982776860519     0.770696427671367
    H                3.039851415869056    -1.356622776860519     2.307276427671367
    C               -2.505588584130944    -1.271982776860519     0.360696427671367
    C               -1.549588584130944     0.748017223139481    -0.694303572328633
    N               -1.401588584130944    -0.413982776860519    -0.078303572328633
    N               -0.489588584130944     1.448017223139481    -1.034303572328633
    N               -2.756588584130944     1.213017223139480    -0.963303572328633
    H               -0.442588584130944    -0.741982776860519     0.060696427671367
    H               -2.893588584130944    -1.849982776860519    -0.482303572328633
    H               -3.312588584130944    -0.656982776860519     0.764696427671367
    H                0.418411415869056     1.146017223139481    -0.670303572328633
    H               -0.580588584130944     2.350017223139481    -1.465303572328633
    H               -3.568588584130945     0.655017223139481    -0.767303572328633
    H               -2.864588584130944     2.102017223139481    -1.426303572328633
    H               -2.185507584130944    -1.954242776860519     1.161986427671367

}
e, wfn = energy('scf', return_wfn=True)
gdma(wfn)
dmavals = variable('DMA DISTRIBUTED MULTIPOLES')
charges = np.array(dmavals)
print(charges)
np.save('SSI-013ASP-023ARG-1-dimer.npy', np.array(charges))--------------------------------------------------------------------------

*** tstart() called on ds3
*** at Mon Apr 27 16:02:39 2020

   => Loading Basis Set <=

    Name: CC-PVDZ
    Role: ORBITAL
    Keyword: BASIS
    atoms 1-2, 8-9   entry C          line   138 file /theoryfs2/ds/metcalf/miniconda2/envs/tf2gpu/share/psi4/basis/cc-pvdz.gbs
    atoms 3-4        entry O          line   198 file /theoryfs2/ds/metcalf/miniconda2/envs/tf2gpu/share/psi4/basis/cc-pvdz.gbs
    atoms 5-7, 13-20 entry H          line    22 file /theoryfs2/ds/metcalf/miniconda2/envs/tf2gpu/share/psi4/basis/cc-pvdz.gbs
    atoms 10-12      entry N          line   168 file /theoryfs2/ds/metcalf/miniconda2/envs/tf2gpu/share/psi4/basis/cc-pvdz.gbs

         ---------------------------------------------------------
                                   SCF
               by Justin Turney, Rob Parrish, Andy Simmonett
                          and Daniel G. A. Smith
                              RHF Reference
                        1 Threads,    500 MiB Core
         ---------------------------------------------------------

  ==> Geometry <==

    Molecular point group: c1
    Full point group: C1

    Geometry (in Angstrom), charge = 0, multiplicity = 1:

       Center              X                  Y                   Z               Mass
    ------------   -----------------  -----------------  -----------------  -----------------
         C            3.335411415869    -0.864982776861     1.368696427671    12.000000000000
         C            2.129411415869    -0.419982776861     0.562696427671    12.000000000000
         O            1.286411415869    -1.280982776861     0.229696427671    15.994914619570
         O            2.008411415869     0.790017223139     0.272696427671    15.994914619570
         H            3.978411415869    -0.011982776861     1.591696427671     1.007825032230
         H            3.913411415869    -1.571982776861     0.770696427671     1.007825032230
         H            3.039851415869    -1.356622776861     2.307276427671     1.007825032230
         C           -2.505588584131    -1.271982776861     0.360696427671    12.000000000000
         C           -1.549588584131     0.748017223139    -0.694303572329    12.000000000000
         N           -1.401588584131    -0.413982776861    -0.078303572329    14.003074004430
         N           -0.489588584131     1.448017223139    -1.034303572329    14.003074004430
         N           -2.756588584131     1.213017223139    -0.963303572329    14.003074004430
         H           -0.442588584131    -0.741982776861     0.060696427671     1.007825032230
         H           -2.893588584131    -1.849982776861    -0.482303572329     1.007825032230
         H           -3.312588584131    -0.656982776861     0.764696427671     1.007825032230
         H            0.418411415869     1.146017223139    -0.670303572329     1.007825032230
         H           -0.580588584131     2.350017223139    -1.465303572329     1.007825032230
         H           -3.568588584131     0.655017223139    -0.767303572329     1.007825032230
         H           -2.864588584131     2.102017223139    -1.426303572329     1.007825032230
         H           -2.185507584131    -1.954242776861     1.161986427671     1.007825032230

  Running in c1 symmetry.

  Rotational constants: A =      0.09819  B =      0.02488  C =      0.02044 [cm^-1]
  Rotational constants: A =   2943.69639  B =    745.90591  C =    612.64992 [MHz]
  Nuclear repulsion =  465.856838781865065

  Charge       = 0
  Multiplicity = 1
  Electrons    = 72
  Nalpha       = 36
  Nbeta        = 36

  ==> Algorithm <==

  SCF Algorithm Type is PK.
  DIIS enabled.
  MOM disabled.
  Fractional occupation disabled.
  Guess Type is SAD.
  Energy threshold   = 1.00e-06
  Density threshold  = 1.00e-10
  Integral threshold = 0.00e+00

  ==> Primary Basis <==

  Basis Set: CC-PVDZ
    Blend: CC-PVDZ
    Number of shells: 87
    Number of basis function: 181
    Number of Cartesian functions: 190
    Spherical Harmonics?: true
    Max angular momentum: 2

  ==> Pre-Iterations <==

   -------------------------------------------------------
    Irrep   Nso     Nmo     Nalpha   Nbeta   Ndocc  Nsocc
   -------------------------------------------------------
     A        181     181       0       0       0       0
   -------------------------------------------------------
    Total     181     181      36      36      36       0
   -------------------------------------------------------

  ==> Integral Setup <==

  Using integral reordering PK algorithm.
  Sizing the integral batches needed.
  Building batch lookup table.
   Calculation information:
      Number of atoms:                  20
      Number of AO shells:              87
      Number of primitives:            253
      Number of atomic orbitals:       190
      Number of basis functions:       181

      Integral cutoff                 1.00e-12
      Number of threads:                 1

	Batch   1 pq = [       0,    9405] index = [             0,44231715] size =     44231715
	Batch   2 pq = [    9405,   13301] index = [      44231715,88464951] size =     44233236
	Batch   3 pq = [   13301,   16471] index = [      88464951,135655156] size =     47190205
  Task number: 13
  Buffer size: 11059200
  Buffer per thread: 2
  We computed 5951941 shell quartets total.
  Whereas there are 7328706 unique shell quartets.

  ==> DiskJK: Disk-Based J/K Matrices <==

    J tasked:                  Yes
    K tasked:                  Yes
    wK tasked:                  No
    Memory [MiB]:              375
    Schwarz Cutoff:          1E-12

    OpenMP threads:              1

  Minimum eigenvalue in the overlap matrix is 3.7315652980E-03.
  Using Symmetric Orthogonalization.

  SCF Guess: Superposition of Atomic Densities via on-the-fly atomic UHF.

  ==> Iterations <==

                        Total Energy        Delta E     RMS |[F,P]|

   @RHF iter SAD:  -469.76776493015251   -4.69768e+02   0.00000e+00
   @RHF iter   1:  -470.73462294199453   -9.66858e-01   4.16567e-03 DIIS
   @RHF iter   2:  -470.95378615693528   -2.19163e-01   2.13196e-03 DIIS
   @RHF iter   3:  -471.00805724030175   -5.42711e-02   3.85854e-04 DIIS
   @RHF iter   4:  -471.01115125587813   -3.09402e-03   1.28289e-04 DIIS
   @RHF iter   5:  -471.01149421394672   -3.42958e-04   2.32148e-05 DIIS
   @RHF iter   6:  -471.01151043064442   -1.62167e-05   7.76371e-06 DIIS
   @RHF iter   7:  -471.01151178297272   -1.35233e-06   2.35245e-06 DIIS
   @RHF iter   8:  -471.01151194510976   -1.62137e-07   9.98832e-07 DIIS
   @RHF iter   9:  -471.01151196542639   -2.03166e-08   2.80956e-07 DIIS
   @RHF iter  10:  -471.01151196764590   -2.21951e-09   7.35613e-08 DIIS
   @RHF iter  11:  -471.01151196786361   -2.17710e-10   2.33783e-08 DIIS
   @RHF iter  12:  -471.01151196788339   -1.97815e-11   1.10083e-08 DIIS
   @RHF iter  13:  -471.01151196789243   -9.03810e-12   3.97836e-09 DIIS
   @RHF iter  14:  -471.01151196789141    1.02318e-12   1.16377e-09 DIIS
   @RHF iter  15:  -471.01151196788999    1.42109e-12   4.06458e-10 DIIS
   @RHF iter  16:  -471.01151196788896    1.02318e-12   1.36779e-10 DIIS
   @RHF iter  17:  -471.01151196789141   -2.44427e-12   5.87896e-11 DIIS
  Energy and wave function converged.

  ==> Post-Iterations <==

    Orbital Energies [Eh]
    ---------------------

    Doubly Occupied:

       1A    -20.430006     2A    -20.427945     3A    -15.645426
       4A    -15.605417     5A    -15.603900     6A    -11.423208
       7A    -11.304209     8A    -11.275359     9A    -11.174033
      10A     -1.383672    11A     -1.320617    12A     -1.240367
      13A     -1.226316    14A     -1.204529    15A     -0.990909
      16A     -0.926716    17A     -0.879157    18A     -0.816737
      19A     -0.779741    20A     -0.704952    21A     -0.691565
      22A     -0.668960    23A     -0.649027    24A     -0.634086
      25A     -0.598873    26A     -0.580177    27A     -0.562373
      28A     -0.551464    29A     -0.543913    30A     -0.484716
      31A     -0.465007    32A     -0.456455    33A     -0.415285
      34A     -0.348190    35A     -0.340587    36A     -0.334092

    Virtual:

      37A      0.126815    38A      0.158675    39A      0.183367
      40A      0.209692    41A      0.215160    42A      0.240774
      43A      0.247279    44A      0.248775    45A      0.272002
      46A      0.299017    47A      0.311990    48A      0.344979
      49A      0.363105    50A      0.408478    51A      0.436862
      52A      0.450205    53A      0.486879    54A      0.495200
      55A      0.578825    56A      0.594526    57A      0.611249
      58A      0.613741    59A      0.664365    60A      0.677267
      61A      0.682167    62A      0.694550    63A      0.704665
      64A      0.720429    65A      0.731813    66A      0.751137
      67A      0.798350    68A      0.822513    69A      0.833636
      70A      0.840085    71A      0.841742    72A      0.863675
      73A      0.902514    74A      0.908613    75A      0.910213
      76A      0.917017    77A      0.924568    78A      0.946524
      79A      0.957157    80A      0.972304    81A      0.989550
      82A      0.991967    83A      1.056045    84A      1.067924
      85A      1.084740    86A      1.096433    87A      1.122205
      88A      1.157004    89A      1.198824    90A      1.216657
      91A      1.248368    92A      1.270382    93A      1.287135
      94A      1.312597    95A      1.336243    96A      1.339060
      97A      1.368872    98A      1.396067    99A      1.411853
     100A      1.432430   101A      1.447039   102A      1.484451
     103A      1.513839   104A      1.553120   105A      1.570841
     106A      1.579436   107A      1.611670   108A      1.634008
     109A      1.661441   110A      1.694022   111A      1.708096
     112A      1.708662   113A      1.725818   114A      1.737225
     115A      1.810190   116A      1.817856   117A      1.863184
     118A      1.883398   119A      1.895860   120A      1.901557
     121A      1.926008   122A      1.944239   123A      1.947974
     124A      1.955431   125A      1.972662   126A      1.975694
     127A      1.987583   128A      2.001702   129A      2.015968
     130A      2.067024   131A      2.084532   132A      2.153561
     133A      2.168030   134A      2.184682   135A      2.188623
     136A      2.232748   137A      2.264260   138A      2.282996
     139A      2.293109   140A      2.315424   141A      2.348248
     142A      2.397961   143A      2.422691   144A      2.450237
     145A      2.484418   146A      2.495955   147A      2.501508
     148A      2.523568   149A      2.568511   150A      2.603855
     151A      2.630783   152A      2.641351   153A      2.649021
     154A      2.720299   155A      2.730895   156A      2.754344
     157A      2.793862   158A      2.802918   159A      2.833537
     160A      2.874898   161A      2.897675   162A      2.916237
     163A      2.943625   164A      2.983286   165A      2.993452
     166A      3.042028   167A      3.082018   168A      3.126926
     169A      3.161985   170A      3.187676   171A      3.242356
     172A      3.312751   173A      3.375352   174A      3.476203
     175A      3.630811   176A      3.658056   177A      3.761463
     178A      3.812467   179A      3.917427   180A      3.935305
     181A      4.072649

    Final Occupation by Irrep:
              A
    DOCC [    36 ]

  @RHF Final Energy:  -471.01151196789141

   => Energetics <=

    Nuclear Repulsion Energy =            465.8568387818650649
    One-Electron Energy =               -1568.3607419547834070
    Two-Electron Energy =                 631.4923912050270474
    Total Energy =                       -471.0115119678913516

Computation Completed

Properties will be evaluated at   0.000000,   0.000000,   0.000000 [a0]

Properties computed using the SCF density matrix

  Nuclear Dipole Moment: [e a0]
     X:    -4.1874      Y:    -1.7814      Z:     1.7386

  Electronic Dipole Moment: [e a0]
     X:    -0.0328      Y:     2.9276      Z:    -2.6643

  Dipole Moment: [e a0]
     X:    -4.2201      Y:     1.1462      Z:    -0.9258     Total:     4.4700

  Dipole Moment: [D]
     X:   -10.7265      Y:     2.9134      Z:    -2.3531     Total:    11.3615

*** tstop() called on ds3 at Mon Apr 27 16:03:54 2020
Module time:
	user time   =      46.35 seconds =       0.77 minutes
	system time =      22.46 seconds =       0.37 minutes
	total time  =         75 seconds =       1.25 minutes
Total time:
	user time   =      46.35 seconds =       0.77 minutes
	system time =      22.46 seconds =       0.37 minutes
	total time  =         75 seconds =       1.25 minutes
                                     G D M A

                                 by Anthony Stone

                           version 2.2.06, 22 June 2011

               Distributed Multipoles from Gaussian wavefunctions

Starting at 16:3:54 on 27 Apr 2020

Using SCF density matrix from file ./SSI/SSI-013ASP-023ARG-1-dimer.test.8871.fchk

                         Distributed Multipole Analysis

Standard DMA

Positions and radii in angstrom
Multipole moments in atomic units, ea_0^k for rank k

C          x =  3.335411  y = -0.864983  z =  1.368696 angstrom
           Maximum rank =  0   Radius =  0.650 angstrom
                   Q00  =  -0.249281

C          x =  2.129411  y = -0.419983  z =  0.562696 angstrom
           Maximum rank =  0   Radius =  0.650 angstrom
                   Q00  =   0.872961

O          x =  1.286411  y = -1.280983  z =  0.229696 angstrom
           Maximum rank =  0   Radius =  0.650 angstrom
                   Q00  =  -0.935939

O          x =  2.008411  y =  0.790017  z =  0.272696 angstrom
           Maximum rank =  0   Radius =  0.650 angstrom
                   Q00  =  -0.921841

H          x =  3.978411  y = -0.011983  z =  1.591696 angstrom
           Maximum rank =  0   Radius =  0.325 angstrom
                   Q00  =   0.081811

H          x =  3.913411  y = -1.571983  z =  0.770696 angstrom
           Maximum rank =  0   Radius =  0.325 angstrom
                   Q00  =   0.099680

H          x =  3.039851  y = -1.356623  z =  2.307276 angstrom
           Maximum rank =  0   Radius =  0.325 angstrom
                   Q00  =   0.092850

C          x = -2.505589  y = -1.271983  z =  0.360696 angstrom
           Maximum rank =  0   Radius =  0.650 angstrom
                   Q00  =  -0.098903

C          x = -1.549589  y =  0.748017  z = -0.694304 angstrom
           Maximum rank =  0   Radius =  0.650 angstrom
                   Q00  =   1.059610

N          x = -1.401589  y = -0.413983  z = -0.078304 angstrom
           Maximum rank =  0   Radius =  0.650 angstrom
                   Q00  =  -0.517073

N          x = -0.489589  y =  1.448017  z = -1.034304 angstrom
           Maximum rank =  0   Radius =  0.650 angstrom
                   Q00  =  -0.598312

N          x = -2.756589  y =  1.213017  z = -0.963304 angstrom
           Maximum rank =  0   Radius =  0.650 angstrom
                   Q00  =  -0.581484

H          x = -0.442589  y = -0.741983  z =  0.060696 angstrom
           Maximum rank =  0   Radius =  0.325 angstrom
                   Q00  =   0.334075

H          x = -2.893589  y = -1.849983  z = -0.482304 angstrom
           Maximum rank =  0   Radius =  0.325 angstrom
                   Q00  =   0.094512

H          x = -3.312589  y = -0.656983  z =  0.764696 angstrom
           Maximum rank =  0   Radius =  0.325 angstrom
                   Q00  =   0.074718

H          x =  0.418411  y =  1.146017  z = -0.670304 angstrom
           Maximum rank =  0   Radius =  0.325 angstrom
                   Q00  =   0.338356

H          x = -0.580589  y =  2.350017  z = -1.465304 angstrom
           Maximum rank =  0   Radius =  0.325 angstrom
                   Q00  =   0.222996

H          x = -3.568589  y =  0.655017  z = -0.767304 angstrom
           Maximum rank =  0   Radius =  0.325 angstrom
                   Q00  =   0.241905

H          x = -2.864589  y =  2.102017  z = -1.426304 angstrom
           Maximum rank =  0   Radius =  0.325 angstrom
                   Q00  =   0.236802

H          x = -2.185508  y = -1.954243  z =  1.161986 angstrom
           Maximum rank =  0   Radius =  0.325 angstrom
                   Q00  =   0.152557

Total multipoles referred to origin at
           x =   0.000000,  y =    0.000000,  z =    0.000000 angstrom
                   Q00  =  -0.000000

Finished at 16:3:54 on 27 Apr 2020

  DMA results are available in the Python driver through the
	  variable('DMA DISTRIBUTED MULTIPOLES')
  and
	  variable('DMA TOTAL MULTIPOLES')
  commands.

    Psi4 stopped on: Monday, 27 April 2020 04:03PM
    Psi4 wall time for execution: 0:01:15.41

*** Psi4 exiting successfully. Buy a developer a beer!
