                               Psi4 1.3.2 release

  ==> Input File <==

--------------------------------------------------------------------------
import numpy as np
set {scf_type pk
basis cc-pvdz
d_convergence 10
gdma_switch   0
gdma_limit    0
gdma_origin   [ 0.0,  0.0,  0.0 ]
}
molecule test {
    units Angstrom
    0 1
    --
    0 1
    C               -0.619912723852768     1.113504759804676     0.670469312736797
    C                0.247087276147232     1.446504759804676    -0.515530687263203
    C               -1.152912723852768     2.443504759804676     1.129469312736797
    H               -0.001912723852768     0.697504759804676     1.459469312736797
    H               -1.424912723852768     0.427504759804676     0.404469312736797
    H                1.066087276147232     0.731504759804676    -0.603530687263203
    H               -0.362912723852768     1.464504759804676    -1.418530687263203
    H               -1.415912723852768     2.419504759804676     2.182469312736797
    H               -2.009912723852768     2.723504759804677     0.529469312736797
    H                0.609557276147232     2.460374759804676    -0.290390687263203
    H               -0.341652723852768     3.157794759804676     0.925389312736797
    C                0.047087276147232    -2.478495240195324    -0.310530687263203
    C                1.431087276147232    -2.469495240195323    -0.933530687263203
    H               -0.088912723852768    -3.353495240195324     0.323469312736797
    H               -0.068912723852768    -1.594495240195324     0.311469312736797
    H               -0.712912723852768    -2.466495240195324    -1.090530687263203
    H                2.162087276147233    -2.487495240195324    -0.124530687263203
    H                1.547087276147232    -1.531495240195324    -1.468530687263203
    H                1.609467276147232    -3.309834240195324    -1.620560687263203

}
e, wfn = energy('scf', return_wfn=True)
gdma(wfn)
dmavals = variable('DMA DISTRIBUTED MULTIPOLES')
charges = np.array(dmavals)
print(charges)
np.save('SSI-159PRO-192ILE-1-dimer.npy', np.array(charges))--------------------------------------------------------------------------

*** tstart() called on ds3
*** at Sun Apr 26 17:53:29 2020

   => Loading Basis Set <=

    Name: CC-PVDZ
    Role: ORBITAL
    Keyword: BASIS
    atoms 1-3, 12-13  entry C          line   138 file /theoryfs2/ds/metcalf/miniconda2/envs/tf2gpu/share/psi4/basis/cc-pvdz.gbs
    atoms 4-11, 14-19 entry H          line    22 file /theoryfs2/ds/metcalf/miniconda2/envs/tf2gpu/share/psi4/basis/cc-pvdz.gbs

         ---------------------------------------------------------
                                   SCF
               by Justin Turney, Rob Parrish, Andy Simmonett
                          and Daniel G. A. Smith
                              RHF Reference
                        1 Threads,    500 MiB Core
         ---------------------------------------------------------

  ==> Geometry <==

    Molecular point group: c1
    Full point group: C1

    Geometry (in Angstrom), charge = 0, multiplicity = 1:

       Center              X                  Y                   Z               Mass
    ------------   -----------------  -----------------  -----------------  -----------------
         C           -0.619912723853     1.113504759805     0.670469312737    12.000000000000
         C            0.247087276147     1.446504759805    -0.515530687263    12.000000000000
         C           -1.152912723853     2.443504759805     1.129469312737    12.000000000000
         H           -0.001912723853     0.697504759805     1.459469312737     1.007825032230
         H           -1.424912723853     0.427504759805     0.404469312737     1.007825032230
         H            1.066087276147     0.731504759805    -0.603530687263     1.007825032230
         H           -0.362912723853     1.464504759805    -1.418530687263     1.007825032230
         H           -1.415912723853     2.419504759805     2.182469312737     1.007825032230
         H           -2.009912723853     2.723504759805     0.529469312737     1.007825032230
         H            0.609557276147     2.460374759805    -0.290390687263     1.007825032230
         H           -0.341652723853     3.157794759805     0.925389312737     1.007825032230
         C            0.047087276147    -2.478495240195    -0.310530687263    12.000000000000
         C            1.431087276147    -2.469495240195    -0.933530687263    12.000000000000
         H           -0.088912723853    -3.353495240195     0.323469312737     1.007825032230
         H           -0.068912723853    -1.594495240195     0.311469312737     1.007825032230
         H           -0.712912723853    -2.466495240195    -1.090530687263     1.007825032230
         H            2.162087276147    -2.487495240195    -0.124530687263     1.007825032230
         H            1.547087276147    -1.531495240195    -1.468530687263     1.007825032230
         H            1.609467276147    -3.309834240195    -1.620560687263     1.007825032230

  Running in c1 symmetry.

  Rotational constants: A =      0.30054  B =      0.04171  C =      0.03839 [cm^-1]
  Rotational constants: A =   9009.86684  B =   1250.49781  C =   1151.04114 [MHz]
  Nuclear repulsion =  182.320495822492461

  Charge       = 0
  Multiplicity = 1
  Electrons    = 44
  Nalpha       = 22
  Nbeta        = 22

  ==> Algorithm <==

  SCF Algorithm Type is PK.
  DIIS enabled.
  MOM disabled.
  Fractional occupation disabled.
  Guess Type is SAD.
  Energy threshold   = 1.00e-06
  Density threshold  = 1.00e-10
  Integral threshold = 0.00e+00

  ==> Primary Basis <==

  Basis Set: CC-PVDZ
    Blend: CC-PVDZ
    Number of shells: 72
    Number of basis function: 140
    Number of Cartesian functions: 145
    Spherical Harmonics?: true
    Max angular momentum: 2

  ==> Pre-Iterations <==

   -------------------------------------------------------
    Irrep   Nso     Nmo     Nalpha   Nbeta   Ndocc  Nsocc
   -------------------------------------------------------
     A        140     140       0       0       0       0
   -------------------------------------------------------
    Total     140     140      22      22      22       0
   -------------------------------------------------------

  ==> Integral Setup <==

  Using integral reordering PK algorithm.
  Sizing the integral batches needed.
  Building batch lookup table.
   Calculation information:
      Number of atoms:                  19
      Number of AO shells:              72
      Number of primitives:            180
      Number of atomic orbitals:       145
      Number of basis functions:       140

      Integral cutoff                 1.00e-12
      Number of threads:                 1

	Batch   1 pq = [       0,    9405] index = [             0,44231715] size =     44231715
	Batch   2 pq = [    9405,    9870] index = [      44231715,48713385] size =      4481670
  Task number: 5
  Buffer size: 11059200
  Buffer per thread: 2
  We computed 2961292 shell quartets total.
  Whereas there are 3454506 unique shell quartets.

  ==> DiskJK: Disk-Based J/K Matrices <==

    J tasked:                  Yes
    K tasked:                  Yes
    wK tasked:                  No
    Memory [MiB]:              375
    Schwarz Cutoff:          1E-12

    OpenMP threads:              1

  Minimum eigenvalue in the overlap matrix is 4.3882748099E-03.
  Using Symmetric Orthogonalization.

  SCF Guess: Superposition of Atomic Densities via on-the-fly atomic UHF.

  ==> Iterations <==

                        Total Energy        Delta E     RMS |[F,P]|

   @RHF iter SAD:  -196.59765727681949   -1.96598e+02   0.00000e+00
   @RHF iter   1:  -197.28632298940187   -6.88666e-01   3.90726e-03 DIIS
   @RHF iter   2:  -197.45113486197266   -1.64812e-01   1.70865e-03 DIIS
   @RHF iter   3:  -197.48168163483004   -3.05468e-02   3.32374e-04 DIIS
   @RHF iter   4:  -197.48393605787248   -2.25442e-03   5.11045e-05 DIIS
   @RHF iter   5:  -197.48397831330445   -4.22554e-05   1.56695e-05 DIIS
   @RHF iter   6:  -197.48398213596184   -3.82266e-06   2.56014e-06 DIIS
   @RHF iter   7:  -197.48398225798141   -1.22020e-07   4.70675e-07 DIIS
   @RHF iter   8:  -197.48398226218751   -4.20610e-09   1.08619e-07 DIIS
   @RHF iter   9:  -197.48398226240016   -2.12651e-10   3.18371e-08 DIIS
   @RHF iter  10:  -197.48398226242122   -2.10605e-11   6.96937e-09 DIIS
   @RHF iter  11:  -197.48398226242136   -1.42109e-13   1.41828e-09 DIIS
   @RHF iter  12:  -197.48398226242145   -8.52651e-14   3.11131e-10 DIIS
   @RHF iter  13:  -197.48398226242202   -5.68434e-13   6.00098e-11 DIIS
  Energy and wave function converged.

  ==> Post-Iterations <==

    Orbital Energies [Eh]
    ---------------------

    Doubly Occupied:

       1A    -11.216283     2A    -11.213946     3A    -11.213164
       4A    -11.211895     5A    -11.210715     6A     -1.072497
       7A     -1.021252     8A     -0.917133     9A     -0.836276
      10A     -0.799080    11A     -0.640135    12A     -0.618924
      13A     -0.600409    14A     -0.596302    15A     -0.545400
      16A     -0.513885    17A     -0.503071    18A     -0.489471
      19A     -0.484491    20A     -0.478138    21A     -0.468972
      22A     -0.459951

    Virtual:

      23A      0.172087    24A      0.199418    25A      0.216105
      26A      0.223160    27A      0.238465    28A      0.243164
      29A      0.257199    30A      0.271774    31A      0.279183
      32A      0.286754    33A      0.297730    34A      0.319169
      35A      0.338798    36A      0.344715    37A      0.384605
      38A      0.407044    39A      0.449566    40A      0.562581
      41A      0.569163    42A      0.602497    43A      0.611701
      44A      0.619137    45A      0.638937    46A      0.656800
      47A      0.673305    48A      0.713615    49A      0.749583
      50A      0.788244    51A      0.823436    52A      0.847497
      53A      0.857463    54A      0.875774    55A      0.883069
      56A      0.893766    57A      0.897442    58A      0.908347
      59A      0.913462    60A      0.915270    61A      0.919886
      62A      0.927640    63A      0.942422    64A      0.949787
      65A      0.962321    66A      0.969014    67A      1.003936
      68A      1.040827    69A      1.094139    70A      1.116631
      71A      1.133505    72A      1.139600    73A      1.208081
      74A      1.290202    75A      1.423084    76A      1.467083
      77A      1.469510    78A      1.489516    79A      1.499488
      80A      1.571174    81A      1.612834    82A      1.630728
      83A      1.636583    84A      1.693977    85A      1.704307
      86A      1.722284    87A      1.743093    88A      1.802990
      89A      1.857431    90A      1.860994    91A      1.871966
      92A      1.890848    93A      1.895352    94A      1.927074
      95A      1.938662    96A      1.947946    97A      1.950719
      98A      1.957196    99A      1.960825   100A      1.975434
     101A      1.983196   102A      1.991461   103A      2.011617
     104A      2.022511   105A      2.029662   106A      2.072705
     107A      2.099812   108A      2.116868   109A      2.145501
     110A      2.146346   111A      2.216790   112A      2.238283
     113A      2.300671   114A      2.314741   115A      2.323093
     116A      2.373543   117A      2.452689   118A      2.456673
     119A      2.476215   120A      2.487232   121A      2.506646
     122A      2.560803   123A      2.566442   124A      2.596123
     125A      2.641518   126A      2.706584   127A      2.756920
     128A      2.775374   129A      2.794723   130A      2.796579
     131A      2.815855   132A      2.845721   133A      2.857957
     134A      2.879102   135A      2.891105   136A      2.938957
     137A      2.953237   138A      2.976196   139A      2.977163
     140A      3.058849

    Final Occupation by Irrep:
              A
    DOCC [    22 ]

  @RHF Final Energy:  -197.48398226242202

   => Energetics <=

    Nuclear Repulsion Energy =            182.3204958224924610
    One-Electron Energy =                -625.3861775102686806
    Two-Electron Energy =                 245.5816994253541736
    Total Energy =                       -197.4839822624220176

Computation Completed

Properties will be evaluated at   0.000000,   0.000000,   0.000000 [a0]

Properties computed using the SCF density matrix

  Nuclear Dipole Moment: [e a0]
     X:     0.5309      Y:    -0.6198      Z:    -0.4504

  Electronic Dipole Moment: [e a0]
     X:    -0.5559      Y:     0.6175      Z:     0.4754

  Dipole Moment: [e a0]
     X:    -0.0250      Y:    -0.0022      Z:     0.0250     Total:     0.0354

  Dipole Moment: [D]
     X:    -0.0635      Y:    -0.0057      Z:     0.0636     Total:     0.0901

*** tstop() called on ds3 at Sun Apr 26 17:53:51 2020
Module time:
	user time   =      16.31 seconds =       0.27 minutes
	system time =       7.09 seconds =       0.12 minutes
	total time  =         22 seconds =       0.37 minutes
Total time:
	user time   =      16.31 seconds =       0.27 minutes
	system time =       7.09 seconds =       0.12 minutes
	total time  =         22 seconds =       0.37 minutes
                                     G D M A

                                 by Anthony Stone

                           version 2.2.06, 22 June 2011

               Distributed Multipoles from Gaussian wavefunctions

Starting at 17:53:51 on 26 Apr 2020

Using SCF density matrix from file ./SSI/SSI-159PRO-192ILE-1-dimer.test.3024.fchk

                         Distributed Multipole Analysis

Standard DMA

Positions and radii in angstrom
Multipole moments in atomic units, ea_0^k for rank k

C          x = -0.619913  y =  1.113505  z =  0.670469 angstrom
           Maximum rank =  0   Radius =  0.650 angstrom
                   Q00  =  -0.102897

C          x =  0.247087  y =  1.446505  z = -0.515531 angstrom
           Maximum rank =  0   Radius =  0.650 angstrom
                   Q00  =  -0.223239

C          x = -1.152913  y =  2.443505  z =  1.129469 angstrom
           Maximum rank =  0   Radius =  0.650 angstrom
                   Q00  =  -0.204166

H          x = -0.001913  y =  0.697505  z =  1.459469 angstrom
           Maximum rank =  0   Radius =  0.325 angstrom
                   Q00  =   0.049098

H          x = -1.424913  y =  0.427505  z =  0.404469 angstrom
           Maximum rank =  0   Radius =  0.325 angstrom
                   Q00  =   0.053505

H          x =  1.066087  y =  0.731505  z = -0.603531 angstrom
           Maximum rank =  0   Radius =  0.325 angstrom
                   Q00  =   0.082889

H          x = -0.362913  y =  1.464505  z = -1.418531 angstrom
           Maximum rank =  0   Radius =  0.325 angstrom
                   Q00  =   0.077621

H          x = -1.415913  y =  2.419505  z =  2.182469 angstrom
           Maximum rank =  0   Radius =  0.325 angstrom
                   Q00  =   0.081569

H          x = -2.009913  y =  2.723505  z =  0.529469 angstrom
           Maximum rank =  0   Radius =  0.325 angstrom
                   Q00  =   0.077667

H          x =  0.609557  y =  2.460375  z = -0.290391 angstrom
           Maximum rank =  0   Radius =  0.325 angstrom
                   Q00  =   0.060385

H          x = -0.341653  y =  3.157795  z =  0.925389 angstrom
           Maximum rank =  0   Radius =  0.325 angstrom
                   Q00  =   0.050947

C          x =  0.047087  y = -2.478495  z = -0.310531 angstrom
           Maximum rank =  0   Radius =  0.650 angstrom
                   Q00  =  -0.235174

C          x =  1.431087  y = -2.469495  z = -0.933531 angstrom
           Maximum rank =  0   Radius =  0.650 angstrom
                   Q00  =  -0.238504

H          x = -0.088913  y = -3.353495  z =  0.323469 angstrom
           Maximum rank =  0   Radius =  0.325 angstrom
                   Q00  =   0.077499

H          x = -0.068913  y = -1.594495  z =  0.311469 angstrom
           Maximum rank =  0   Radius =  0.325 angstrom
                   Q00  =   0.082433

H          x = -0.712913  y = -2.466495  z = -1.090531 angstrom
           Maximum rank =  0   Radius =  0.325 angstrom
                   Q00  =   0.076272

H          x =  2.162087  y = -2.487495  z = -0.124531 angstrom
           Maximum rank =  0   Radius =  0.325 angstrom
                   Q00  =   0.074599

H          x =  1.547087  y = -1.531495  z = -1.468531 angstrom
           Maximum rank =  0   Radius =  0.325 angstrom
                   Q00  =   0.077916

H          x =  1.609467  y = -3.309834  z = -1.620561 angstrom
           Maximum rank =  0   Radius =  0.325 angstrom
                   Q00  =   0.081580

Total multipoles referred to origin at
           x =   0.000000,  y =    0.000000,  z =    0.000000 angstrom
                   Q00  =  -0.000000

Finished at 17:53:51 on 26 Apr 2020

  DMA results are available in the Python driver through the
	  variable('DMA DISTRIBUTED MULTIPOLES')
  and
	  variable('DMA TOTAL MULTIPOLES')
  commands.

    Psi4 stopped on: Sunday, 26 April 2020 05:53PM
    Psi4 wall time for execution: 0:00:22.76

*** Psi4 exiting successfully. Buy a developer a beer!
