                               Psi4 1.3.2 release

  ==> Input File <==

--------------------------------------------------------------------------
import numpy as np
set {scf_type pk
basis cc-pvdz
d_convergence 10
gdma_switch   0
gdma_limit    0
gdma_origin   [ 0.0,  0.0,  0.0 ]
}
molecule test {
    units Angstrom
    0 1
    --
    0 1
    C                2.202625573086102     1.209803198339360    -2.482284429788303
    C                2.194625573086102    -0.783196801660639    -0.919284429788303
    C                2.597625573086102     0.528803198339361    -1.199284429788303
    C                2.570625573086102    -1.404196801660639     0.271715570211697
    C                3.382625573086102     1.206803198339361    -0.265284429788303
    C                3.355625573086102    -0.717196801660639     1.197715570211697
    C                3.762625573086102     0.588803198339361     0.928715570211697
    H                1.615625573086102    -1.369196801660640    -1.613284429788303
    H                2.267625573086102    -2.422196801660639     0.468715570211697
    H                3.082625573086102     1.395803198339361    -3.092284429788303
    H                1.788625573086102     2.182803198339361    -2.208284429788303
    H                3.701625573086103     2.221803198339361    -0.464284429788303
    H                3.646625573086102    -1.198196801660639     2.121715570211697
    H                4.369625573086101     1.124803198339360     1.646715570211697
    H                1.445125573086102     0.671093198339361    -3.070494429788303
    C               -4.774374426913899     0.970803198339361     1.454715570211697
    C               -1.381374426913898    -0.928196801660639    -0.395284429788303
    C               -2.371374426913897    -1.702196801660639     0.210715570211697
    C               -1.507374426913898     0.459803198339361    -0.418284429788303
    C               -3.479374426913898    -1.086196801660639     0.795715570211697
    C               -2.620374426913898     1.070803198339361     0.165715570211697
    C               -3.611374426913898     0.303803198339361     0.778715570211697
    H               -0.525374426913898    -1.408196801660639    -0.844284429788303
    H               -2.297374426913898    -2.776196801660639     0.227715570211697
    H               -0.741374426913898     1.068803198339361    -0.879284429788303
    H               -4.225374426913898    -1.702196801660639     1.264715570211697
    H               -2.702374426913898     2.146803198339360     0.147715570211697
    H               -5.626374426913898     0.308803198339361     1.414715570211697
    H               -5.038374426913897     1.871803198339361     0.899715570211697
    H               -4.580094426913898     1.238473198339361     2.503815570211697

}
e, wfn = energy('scf', return_wfn=True)
gdma(wfn)
dmavals = variable('DMA DISTRIBUTED MULTIPOLES')
charges = np.array(dmavals)
print(charges)
np.save('SSI-075PHE-184PHE-1-dimer.npy', np.array(charges))--------------------------------------------------------------------------

*** tstart() called on ds3
*** at Tue Apr 28 01:02:22 2020

   => Loading Basis Set <=

    Name: CC-PVDZ
    Role: ORBITAL
    Keyword: BASIS
    atoms 1-7, 16-22  entry C          line   138 file /theoryfs2/ds/metcalf/miniconda2/envs/tf2gpu/share/psi4/basis/cc-pvdz.gbs
    atoms 8-15, 23-30 entry H          line    22 file /theoryfs2/ds/metcalf/miniconda2/envs/tf2gpu/share/psi4/basis/cc-pvdz.gbs

         ---------------------------------------------------------
                                   SCF
               by Justin Turney, Rob Parrish, Andy Simmonett
                          and Daniel G. A. Smith
                              RHF Reference
                        1 Threads,    500 MiB Core
         ---------------------------------------------------------

  ==> Geometry <==

    Molecular point group: c1
    Full point group: C1

    Geometry (in Angstrom), charge = 0, multiplicity = 1:

       Center              X                  Y                   Z               Mass
    ------------   -----------------  -----------------  -----------------  -----------------
         C            2.202625573086     1.209803198339    -2.482284429788    12.000000000000
         C            2.194625573086    -0.783196801661    -0.919284429788    12.000000000000
         C            2.597625573086     0.528803198339    -1.199284429788    12.000000000000
         C            2.570625573086    -1.404196801661     0.271715570212    12.000000000000
         C            3.382625573086     1.206803198339    -0.265284429788    12.000000000000
         C            3.355625573086    -0.717196801661     1.197715570212    12.000000000000
         C            3.762625573086     0.588803198339     0.928715570212    12.000000000000
         H            1.615625573086    -1.369196801661    -1.613284429788     1.007825032230
         H            2.267625573086    -2.422196801661     0.468715570212     1.007825032230
         H            3.082625573086     1.395803198339    -3.092284429788     1.007825032230
         H            1.788625573086     2.182803198339    -2.208284429788     1.007825032230
         H            3.701625573086     2.221803198339    -0.464284429788     1.007825032230
         H            3.646625573086    -1.198196801661     2.121715570212     1.007825032230
         H            4.369625573086     1.124803198339     1.646715570212     1.007825032230
         H            1.445125573086     0.671093198339    -3.070494429788     1.007825032230
         C           -4.774374426914     0.970803198339     1.454715570212    12.000000000000
         C           -1.381374426914    -0.928196801661    -0.395284429788    12.000000000000
         C           -2.371374426914    -1.702196801661     0.210715570212    12.000000000000
         C           -1.507374426914     0.459803198339    -0.418284429788    12.000000000000
         C           -3.479374426914    -1.086196801661     0.795715570212    12.000000000000
         C           -2.620374426914     1.070803198339     0.165715570212    12.000000000000
         C           -3.611374426914     0.303803198339     0.778715570212    12.000000000000
         H           -0.525374426914    -1.408196801661    -0.844284429788     1.007825032230
         H           -2.297374426914    -2.776196801661     0.227715570212     1.007825032230
         H           -0.741374426914     1.068803198339    -0.879284429788     1.007825032230
         H           -4.225374426914    -1.702196801661     1.264715570212     1.007825032230
         H           -2.702374426914     2.146803198339     0.147715570212     1.007825032230
         H           -5.626374426914     0.308803198339     1.414715570212     1.007825032230
         H           -5.038374426914     1.871803198339     0.899715570212     1.007825032230
         H           -4.580094426914     1.238473198339     2.503815570212     1.007825032230

  Running in c1 symmetry.

  Rotational constants: A =      0.04191  B =      0.00904  C =      0.00864 [cm^-1]
  Rotational constants: A =   1256.28957  B =    270.93373  C =    258.89586 [MHz]
  Nuclear repulsion =  764.411646069103767

  Charge       = 0
  Multiplicity = 1
  Electrons    = 100
  Nalpha       = 50
  Nbeta        = 50

  ==> Algorithm <==

  SCF Algorithm Type is PK.
  DIIS enabled.
  MOM disabled.
  Fractional occupation disabled.
  Guess Type is SAD.
  Energy threshold   = 1.00e-06
  Density threshold  = 1.00e-10
  Integral threshold = 0.00e+00

  ==> Primary Basis <==

  Basis Set: CC-PVDZ
    Blend: CC-PVDZ
    Number of shells: 132
    Number of basis function: 276
    Number of Cartesian functions: 290
    Spherical Harmonics?: true
    Max angular momentum: 2

  ==> Pre-Iterations <==

   -------------------------------------------------------
    Irrep   Nso     Nmo     Nalpha   Nbeta   Ndocc  Nsocc
   -------------------------------------------------------
     A        276     276       0       0       0       0
   -------------------------------------------------------
    Total     276     276      50      50      50       0
   -------------------------------------------------------

  ==> Integral Setup <==

  Using integral reordering PK algorithm.
  Sizing the integral batches needed.
  Building batch lookup table.
   Calculation information:
      Number of atoms:                  30
      Number of AO shells:             132
      Number of primitives:            388
      Number of atomic orbitals:       290
      Number of basis functions:       276

      Integral cutoff                 1.00e-12
      Number of threads:                 1

	Batch   1 pq = [       0,    9405] index = [             0,44231715] size =     44231715
	Batch   2 pq = [    9405,   13301] index = [      44231715,88464951] size =     44233236
	Batch   3 pq = [   13301,   16290] index = [      88464951,132690195] size =     44225244
	Batch   4 pq = [   16290,   18810] index = [     132690195,176917455] size =     44227260
	Batch   5 pq = [   18810,   21030] index = [     176917455,221140965] size =     44223510
	Batch   6 pq = [   21030,   23037] index = [     221140965,265363203] size =     44222238
	Batch   7 pq = [   23037,   24883] index = [     265363203,309594286] size =     44231083
	Batch   8 pq = [   24883,   26601] index = [     309594286,353819901] size =     44225615
	Batch   9 pq = [   26601,   28214] index = [     353819901,398029005] size =     44209104
	Batch  10 pq = [   28214,   29740] index = [     398029005,442248670] size =     44219665
	Batch  11 pq = [   29740,   31191] index = [     442248670,486454836] size =     44206166
	Batch  12 pq = [   31191,   32578] index = [     486454836,530679331] size =     44224495
	Batch  13 pq = [   32578,   33908] index = [     530679331,574893186] size =     44213855
	Batch  14 pq = [   33908,   35188] index = [     574893186,619115266] size =     44222080
	Batch  15 pq = [   35188,   36423] index = [     619115266,663335676] size =     44220410
	Batch  16 pq = [   36423,   37617] index = [     663335676,707538153] size =     44202477
	Batch  17 pq = [   37617,   38226] index = [     707538153,730632651] size =     23094498
  Task number: 67
  Buffer size: 11059200
  Buffer per thread: 2
  We computed 34474785 shell quartets total.
  Whereas there are 38531031 unique shell quartets.

  ==> DiskJK: Disk-Based J/K Matrices <==

    J tasked:                  Yes
    K tasked:                  Yes
    wK tasked:                  No
    Memory [MiB]:              375
    Schwarz Cutoff:          1E-12

    OpenMP threads:              1

  Minimum eigenvalue in the overlap matrix is 3.0083271573E-04.
  Using Symmetric Orthogonalization.

  SCF Guess: Superposition of Atomic Densities via on-the-fly atomic UHF.

  ==> Iterations <==

                        Total Energy        Delta E     RMS |[F,P]|

   @RHF iter SAD:  -538.33510448083337   -5.38335e+02   0.00000e+00
   @RHF iter   1:  -539.22690672377109   -8.91802e-01   2.29885e-03 DIIS
   @RHF iter   2:  -539.47801359179698   -2.51107e-01   9.34171e-04 DIIS
   @RHF iter   3:  -539.51454043060778   -3.65268e-02   2.14284e-04 DIIS
   @RHF iter   4:  -539.51768863354766   -3.14820e-03   4.55948e-05 DIIS
   @RHF iter   5:  -539.51779621529261   -1.07582e-04   1.34361e-05 DIIS
   @RHF iter   6:  -539.51780498010999   -8.76482e-06   3.95847e-06 DIIS
   @RHF iter   7:  -539.51780588349095   -9.03381e-07   1.17687e-06 DIIS
   @RHF iter   8:  -539.51780597946890   -9.59780e-08   3.08189e-07 DIIS
   @RHF iter   9:  -539.51780599322649   -1.37576e-08   1.36767e-07 DIIS
   @RHF iter  10:  -539.51780599597532   -2.74883e-09   6.74363e-08 DIIS
   @RHF iter  11:  -539.51780599700407   -1.02875e-09   2.61261e-08 DIIS
   @RHF iter  12:  -539.51780599717370   -1.69621e-10   1.23298e-08 DIIS
   @RHF iter  13:  -539.51780599719336   -1.96678e-11   3.96107e-09 DIIS
   @RHF iter  14:  -539.51780599719950   -6.13909e-12   1.04537e-09 DIIS
   @RHF iter  15:  -539.51780599719859    9.09495e-13   5.08581e-10 DIIS
   @RHF iter  16:  -539.51780599719427    4.32010e-12   2.04094e-10 DIIS
   @RHF iter  17:  -539.51780599719723   -2.95586e-12   1.01126e-10 DIIS
   @RHF iter  18:  -539.51780599719154    5.68434e-12   4.46439e-11 DIIS
  Energy and wave function converged.

  ==> Post-Iterations <==

    Orbital Energies [Eh]
    ---------------------

    Doubly Occupied:

       1A    -11.244089     2A    -11.237284     3A    -11.237047
       4A    -11.235620     5A    -11.232244     6A    -11.231954
       7A    -11.231789     8A    -11.231781     9A    -11.231415
      10A    -11.231366    11A    -11.227181    12A    -11.226956
      13A    -11.226736    14A    -11.225209    15A     -1.150996
      16A     -1.146909    17A     -1.044283    18A     -1.040671
      19A     -1.011210    20A     -1.006564    21A     -0.932275
      22A     -0.928235    23A     -0.823936    24A     -0.820349
      25A     -0.796851    26A     -0.791961    27A     -0.692151
      28A     -0.685451    29A     -0.632250    30A     -0.630622
      31A     -0.627649    32A     -0.626485    33A     -0.583563
      34A     -0.581008    35A     -0.576114    36A     -0.574283
      37A     -0.563800    38A     -0.558417    39A     -0.537948
      40A     -0.532843    41A     -0.486995    42A     -0.486508
      43A     -0.481951    44A     -0.481604    45A     -0.480445
      46A     -0.476430    47A     -0.332412    48A     -0.327257
      49A     -0.320947    50A     -0.316624

    Virtual:

      51A      0.133039    52A      0.138174    53A      0.139713
      54A      0.146559    55A      0.171821    56A      0.193468
      57A      0.193846    58A      0.206583    59A      0.221983
      60A      0.229378    61A      0.241054    62A      0.249567
      63A      0.259000    64A      0.260910    65A      0.268376
      66A      0.277524    67A      0.282622    68A      0.292374
      69A      0.307432    70A      0.331920    71A      0.365751
      72A      0.368634    73A      0.375733    74A      0.390915
      75A      0.446766    76A      0.454677    77A      0.460915
      78A      0.472894    79A      0.478824    80A      0.484755
      81A      0.494495    82A      0.498990    83A      0.559801
      84A      0.567897    85A      0.595218    86A      0.600077
      87A      0.641500    88A      0.650828    89A      0.667979
      90A      0.674623    91A      0.682558    92A      0.693735
      93A      0.700920    94A      0.712631    95A      0.718452
      96A      0.720749    97A      0.734599    98A      0.736870
      99A      0.738534   100A      0.743197   101A      0.744838
     102A      0.747855   103A      0.748685   104A      0.754243
     105A      0.763120   106A      0.765435   107A      0.773443
     108A      0.786139   109A      0.796054   110A      0.818037
     111A      0.834602   112A      0.842434   113A      0.857482
     114A      0.860482   115A      0.864002   116A      0.872552
     117A      0.877901   118A      0.881740   119A      0.890858
     120A      0.893928   121A      0.899877   122A      0.904382
     123A      0.914689   124A      0.917641   125A      0.930864
     126A      0.938970   127A      0.943163   128A      0.947121
     129A      0.958664   130A      0.981708   131A      1.001351
     132A      1.003201   133A      1.009610   134A      1.046333
     135A      1.058888   136A      1.078578   137A      1.110245
     138A      1.126156   139A      1.132026   140A      1.143609
     141A      1.153054   142A      1.158210   143A      1.163895
     144A      1.176270   145A      1.196542   146A      1.207762
     147A      1.223355   148A      1.235587   149A      1.240833
     150A      1.247141   151A      1.252351   152A      1.254270
     153A      1.265122   154A      1.287798   155A      1.294885
     156A      1.301293   157A      1.306691   158A      1.312346
     159A      1.323162   160A      1.329571   161A      1.336091
     162A      1.358826   163A      1.419206   164A      1.419567
     165A      1.511771   166A      1.516449   167A      1.523478
     168A      1.535252   169A      1.563357   170A      1.572779
     171A      1.598698   172A      1.615029   173A      1.673682
     174A      1.678491   175A      1.685800   176A      1.707654
     177A      1.734828   178A      1.737731   179A      1.744729
     180A      1.748987   181A      1.754626   182A      1.766821
     183A      1.791389   184A      1.799982   185A      1.807889
     186A      1.813726   187A      1.846093   188A      1.861247
     189A      1.876113   190A      1.883914   191A      1.894910
     192A      1.908243   193A      1.910372   194A      1.914690
     195A      1.919317   196A      1.925262   197A      1.930320
     198A      1.939930   199A      1.943365   200A      1.949300
     201A      1.952132   202A      1.960869   203A      1.972836
     204A      1.975552   205A      1.978806   206A      1.993808
     207A      2.003397   208A      2.011005   209A      2.027163
     210A      2.046980   211A      2.062852   212A      2.071455
     213A      2.074901   214A      2.078896   215A      2.103467
     216A      2.121307   217A      2.132025   218A      2.151010
     219A      2.156532   220A      2.157509   221A      2.161904
     222A      2.170599   223A      2.179201   224A      2.184616
     225A      2.187678   226A      2.204642   227A      2.245988
     228A      2.260613   229A      2.276081   230A      2.278365
     231A      2.282778   232A      2.287523   233A      2.301594
     234A      2.309954   235A      2.315746   236A      2.321422
     237A      2.367438   238A      2.391941   239A      2.447571
     240A      2.473460   241A      2.477234   242A      2.490378
     243A      2.494945   244A      2.509160   245A      2.525651
     246A      2.545991   247A      2.626830   248A      2.638305
     249A      2.721565   250A      2.741551   251A      2.750564
     252A      2.763466   253A      2.774417   254A      2.777971
     255A      2.790394   256A      2.806234   257A      2.807983
     258A      2.824660   259A      2.853422   260A      2.854154
     261A      2.858006   262A      2.890313   263A      2.974847
     264A      2.984685   265A      3.003503   266A      3.016203
     267A      3.028856   268A      3.042381   269A      3.157669
     270A      3.165133   271A      3.197533   272A      3.212938
     273A      3.290471   274A      3.300930   275A      3.953246
     276A      3.968207

    Final Occupation by Irrep:
              A
    DOCC [    50 ]

  @RHF Final Energy:  -539.51780599719154

   => Energetics <=

    Nuclear Repulsion Energy =            764.4116460691037673
    One-Electron Energy =               -2245.1815623005195448
    Two-Electron Energy =                 941.2521102342241193
    Total Energy =                       -539.5178059971915445

Computation Completed

Properties will be evaluated at   0.000000,   0.000000,   0.000000 [a0]

Properties computed using the SCF density matrix

  Nuclear Dipole Moment: [e a0]
     X:    -3.5804      Y:     3.1450      Z:    -1.3843

  Electronic Dipole Moment: [e a0]
     X:     3.5675      Y:    -3.0138      Z:     1.3684

  Dipole Moment: [e a0]
     X:    -0.0129      Y:     0.1312      Z:    -0.0159     Total:     0.1328

  Dipole Moment: [D]
     X:    -0.0327      Y:     0.3335      Z:    -0.0405     Total:     0.3375

*** tstop() called on ds3 at Tue Apr 28 01:14:24 2020
Module time:
	user time   =     274.98 seconds =       4.58 minutes
	system time =     109.47 seconds =       1.82 minutes
	total time  =        722 seconds =      12.03 minutes
Total time:
	user time   =     274.98 seconds =       4.58 minutes
	system time =     109.47 seconds =       1.82 minutes
	total time  =        722 seconds =      12.03 minutes
                                     G D M A

                                 by Anthony Stone

                           version 2.2.06, 22 June 2011

               Distributed Multipoles from Gaussian wavefunctions

Starting at 1:14:24 on 28 Apr 2020

Using SCF density matrix from file ./SSI/SSI-075PHE-184PHE-1-dimer.test.6299.fchk

                         Distributed Multipole Analysis

Standard DMA

Positions and radii in angstrom
Multipole moments in atomic units, ea_0^k for rank k

C          x =  2.202626  y =  1.209803  z = -2.482284 angstrom
           Maximum rank =  0   Radius =  0.650 angstrom
                   Q00  =  -0.208336

C          x =  2.194626  y = -0.783197  z = -0.919284 angstrom
           Maximum rank =  0   Radius =  0.650 angstrom
                   Q00  =  -0.059500

C          x =  2.597626  y =  0.528803  z = -1.199284 angstrom
           Maximum rank =  0   Radius =  0.650 angstrom
                   Q00  =  -0.090961

C          x =  2.570626  y = -1.404197  z =  0.271716 angstrom
           Maximum rank =  0   Radius =  0.650 angstrom
                   Q00  =  -0.068394

C          x =  3.382626  y =  1.206803  z = -0.265284 angstrom
           Maximum rank =  0   Radius =  0.650 angstrom
                   Q00  =  -0.022269

C          x =  3.355626  y = -0.717197  z =  1.197716 angstrom
           Maximum rank =  0   Radius =  0.650 angstrom
                   Q00  =  -0.087703

C          x =  3.762626  y =  0.588803  z =  0.928716 angstrom
           Maximum rank =  0   Radius =  0.650 angstrom
                   Q00  =  -0.073748

H          x =  1.615626  y = -1.369197  z = -1.613284 angstrom
           Maximum rank =  0   Radius =  0.325 angstrom
                   Q00  =   0.056821

H          x =  2.267626  y = -2.422197  z =  0.468716 angstrom
           Maximum rank =  0   Radius =  0.325 angstrom
                   Q00  =   0.066235

H          x =  3.082626  y =  1.395803  z = -3.092284 angstrom
           Maximum rank =  0   Radius =  0.325 angstrom
                   Q00  =   0.107618

H          x =  1.788626  y =  2.182803  z = -2.208284 angstrom
           Maximum rank =  0   Radius =  0.325 angstrom
                   Q00  =   0.094642

H          x =  3.701626  y =  2.221803  z = -0.464284 angstrom
           Maximum rank =  0   Radius =  0.325 angstrom
                   Q00  =   0.056006

H          x =  3.646626  y = -1.198197  z =  2.121716 angstrom
           Maximum rank =  0   Radius =  0.325 angstrom
                   Q00  =   0.062613

H          x =  4.369626  y =  1.124803  z =  1.646716 angstrom
           Maximum rank =  0   Radius =  0.325 angstrom
                   Q00  =   0.066478

H          x =  1.445126  y =  0.671093  z = -3.070494 angstrom
           Maximum rank =  0   Radius =  0.325 angstrom
                   Q00  =   0.100898

C          x = -4.774374  y =  0.970803  z =  1.454716 angstrom
           Maximum rank =  0   Radius =  0.650 angstrom
                   Q00  =  -0.204072

C          x = -1.381374  y = -0.928197  z = -0.395284 angstrom
           Maximum rank =  0   Radius =  0.650 angstrom
                   Q00  =  -0.076295

C          x = -2.371374  y = -1.702197  z =  0.210716 angstrom
           Maximum rank =  0   Radius =  0.650 angstrom
                   Q00  =  -0.070871

C          x = -1.507374  y =  0.459803  z = -0.418284 angstrom
           Maximum rank =  0   Radius =  0.650 angstrom
                   Q00  =  -0.073864

C          x = -3.479374  y = -1.086197  z =  0.795716 angstrom
           Maximum rank =  0   Radius =  0.650 angstrom
                   Q00  =  -0.055579

C          x = -2.620374  y =  1.070803  z =  0.165716 angstrom
           Maximum rank =  0   Radius =  0.650 angstrom
                   Q00  =  -0.012816

C          x = -3.611374  y =  0.303803  z =  0.778716 angstrom
           Maximum rank =  0   Radius =  0.650 angstrom
                   Q00  =  -0.097517

H          x = -0.525374  y = -1.408197  z = -0.844284 angstrom
           Maximum rank =  0   Radius =  0.325 angstrom
                   Q00  =   0.054793

H          x = -2.297374  y = -2.776197  z =  0.227716 angstrom
           Maximum rank =  0   Radius =  0.325 angstrom
                   Q00  =   0.061475

H          x = -0.741374  y =  1.068803  z = -0.879284 angstrom
           Maximum rank =  0   Radius =  0.325 angstrom
                   Q00  =   0.065663

H          x = -4.225374  y = -1.702197  z =  1.264716 angstrom
           Maximum rank =  0   Radius =  0.325 angstrom
                   Q00  =   0.054996

H          x = -2.702374  y =  2.146803  z =  0.147716 angstrom
           Maximum rank =  0   Radius =  0.325 angstrom
                   Q00  =   0.053988

H          x = -5.626374  y =  0.308803  z =  1.414716 angstrom
           Maximum rank =  0   Radius =  0.325 angstrom
                   Q00  =   0.098677

H          x = -5.038374  y =  1.871803  z =  0.899716 angstrom
           Maximum rank =  0   Radius =  0.325 angstrom
                   Q00  =   0.096467

H          x = -4.580094  y =  1.238473  z =  2.503816 angstrom
           Maximum rank =  0   Radius =  0.325 angstrom
                   Q00  =   0.104552

Total multipoles referred to origin at
           x =   0.000000,  y =    0.000000,  z =    0.000000 angstrom
                   Q00  =  -0.000000

Finished at 1:14:24 on 28 Apr 2020

  DMA results are available in the Python driver through the
	  variable('DMA DISTRIBUTED MULTIPOLES')
  and
	  variable('DMA TOTAL MULTIPOLES')
  commands.

    Psi4 stopped on: Tuesday, 28 April 2020 01:14AM
    Psi4 wall time for execution: 0:12:02.11

*** Psi4 exiting successfully. Buy a developer a beer!
