                               Psi4 1.3.2 release

  ==> Input File <==

--------------------------------------------------------------------------
import numpy as np
set {scf_type pk
basis cc-pvdz
d_convergence 10
gdma_switch   0
gdma_limit    0
gdma_origin   [ 0.0,  0.0,  0.0 ]
}
molecule test {
    units Angstrom
    0 1
    --
    0 1
    C               -1.455017062130659    -0.429825707597070     3.491796357190155
    C               -2.749017062130659    -0.629825707597070     2.718796357190155
    H               -1.106017062130659     0.598174292402931     3.394796357190155
    H               -1.663017062130659    -0.658825707597070     4.528796357190155
    H               -0.692017062130659    -1.115825707597070     3.122796357190155
    H               -3.104017062130659    -1.638825707597070     2.924796357190155
    H               -2.587063062130659    -0.521135707597070     1.636226377190155
    H               -3.511857062130658     0.076264292402930     3.078667357190155
    C                0.318982937869341     1.960174292402930    -2.659203642809845
    C                0.953982937869341     0.155174292402930     0.634796357190155
    C                0.737982937869341     1.164174292402931    -0.295203642809845
    C                0.964982937869341    -1.176825707597069     0.227796357190155
    C                0.554982937869341     0.861174292402931    -1.644203642809845
    C                0.768982937869341    -1.492825707597070    -1.111203642809845
    C                0.561982937869341    -0.476825707597070    -2.040203642809844
    H                1.100982937869341     0.402174292402930     1.677796357190156
    H                0.699982937869341     2.188174292402930     0.034796357190155
    H                1.128982937869341    -1.962825707597070     0.952796357190155
    H                0.773982937869341    -2.525825707597070    -1.432203642809845
    H               -0.659017062130659     2.390174292402930    -2.472203642809845
    H                0.290982937869341     1.523174292402931    -3.659203642809845
    H                0.416982937869341    -0.731825707597069    -3.081203642809845
    H                1.078242937869341     2.756034292402930    -2.647721642809845

}
e, wfn = energy('scf', return_wfn=True)
gdma(wfn)
dmavals = variable('DMA DISTRIBUTED MULTIPOLES')
charges = np.array(dmavals)
print(charges)
np.save('SSI-087LEU-095PHE-2-dimer.npy', np.array(charges))--------------------------------------------------------------------------

*** tstart() called on ds3
*** at Sun Apr 26 23:01:05 2020

   => Loading Basis Set <=

    Name: CC-PVDZ
    Role: ORBITAL
    Keyword: BASIS
    atoms 1-2, 9-15  entry C          line   138 file /theoryfs2/ds/metcalf/miniconda2/envs/tf2gpu/share/psi4/basis/cc-pvdz.gbs
    atoms 3-8, 16-23 entry H          line    22 file /theoryfs2/ds/metcalf/miniconda2/envs/tf2gpu/share/psi4/basis/cc-pvdz.gbs

         ---------------------------------------------------------
                                   SCF
               by Justin Turney, Rob Parrish, Andy Simmonett
                          and Daniel G. A. Smith
                              RHF Reference
                        1 Threads,    500 MiB Core
         ---------------------------------------------------------

  ==> Geometry <==

    Molecular point group: c1
    Full point group: C1

    Geometry (in Angstrom), charge = 0, multiplicity = 1:

       Center              X                  Y                   Z               Mass
    ------------   -----------------  -----------------  -----------------  -----------------
         C           -1.455017062131    -0.429825707597     3.491796357190    12.000000000000
         C           -2.749017062131    -0.629825707597     2.718796357190    12.000000000000
         H           -1.106017062131     0.598174292403     3.394796357190     1.007825032230
         H           -1.663017062131    -0.658825707597     4.528796357190     1.007825032230
         H           -0.692017062131    -1.115825707597     3.122796357190     1.007825032230
         H           -3.104017062131    -1.638825707597     2.924796357190     1.007825032230
         H           -2.587063062131    -0.521135707597     1.636226377190     1.007825032230
         H           -3.511857062131     0.076264292403     3.078667357190     1.007825032230
         C            0.318982937869     1.960174292403    -2.659203642810    12.000000000000
         C            0.953982937869     0.155174292403     0.634796357190    12.000000000000
         C            0.737982937869     1.164174292403    -0.295203642810    12.000000000000
         C            0.964982937869    -1.176825707597     0.227796357190    12.000000000000
         C            0.554982937869     0.861174292403    -1.644203642810    12.000000000000
         C            0.768982937869    -1.492825707597    -1.111203642810    12.000000000000
         C            0.561982937869    -0.476825707597    -2.040203642810    12.000000000000
         H            1.100982937869     0.402174292403     1.677796357190     1.007825032230
         H            0.699982937869     2.188174292403     0.034796357190     1.007825032230
         H            1.128982937869    -1.962825707597     0.952796357190     1.007825032230
         H            0.773982937869    -2.525825707597    -1.432203642810     1.007825032230
         H           -0.659017062131     2.390174292403    -2.472203642810     1.007825032230
         H            0.290982937869     1.523174292403    -3.659203642810     1.007825032230
         H            0.416982937869    -0.731825707597    -3.081203642810     1.007825032230
         H            1.078242937869     2.756034292403    -2.647721642810     1.007825032230

  Running in c1 symmetry.

  Rotational constants: A =      0.07772  B =      0.02265  C =      0.02062 [cm^-1]
  Rotational constants: A =   2330.10164  B =    679.05249  C =    618.19831 [MHz]
  Nuclear repulsion =  404.301616279401230

  Charge       = 0
  Multiplicity = 1
  Electrons    = 68
  Nalpha       = 34
  Nbeta        = 34

  ==> Algorithm <==

  SCF Algorithm Type is PK.
  DIIS enabled.
  MOM disabled.
  Fractional occupation disabled.
  Guess Type is SAD.
  Energy threshold   = 1.00e-06
  Density threshold  = 1.00e-10
  Integral threshold = 0.00e+00

  ==> Primary Basis <==

  Basis Set: CC-PVDZ
    Blend: CC-PVDZ
    Number of shells: 96
    Number of basis function: 196
    Number of Cartesian functions: 205
    Spherical Harmonics?: true
    Max angular momentum: 2

  ==> Pre-Iterations <==

   -------------------------------------------------------
    Irrep   Nso     Nmo     Nalpha   Nbeta   Ndocc  Nsocc
   -------------------------------------------------------
     A        196     196       0       0       0       0
   -------------------------------------------------------
    Total     196     196      34      34      34       0
   -------------------------------------------------------

  ==> Integral Setup <==

  Using integral reordering PK algorithm.
  Sizing the integral batches needed.
  Building batch lookup table.
   Calculation information:
      Number of atoms:                  23
      Number of AO shells:              96
      Number of primitives:            268
      Number of atomic orbitals:       205
      Number of basis functions:       196

      Integral cutoff                 1.00e-12
      Number of threads:                 1

	Batch   1 pq = [       0,    9405] index = [             0,44231715] size =     44231715
	Batch   2 pq = [    9405,   13301] index = [      44231715,88464951] size =     44233236
	Batch   3 pq = [   13301,   16290] index = [      88464951,132690195] size =     44225244
	Batch   4 pq = [   16290,   18810] index = [     132690195,176917455] size =     44227260
	Batch   5 pq = [   18810,   19306] index = [     176917455,186370471] size =      9453016
  Task number: 17
  Buffer size: 11059200
  Buffer per thread: 2
  We computed 9103775 shell quartets total.
  Whereas there are 10841496 unique shell quartets.

  ==> DiskJK: Disk-Based J/K Matrices <==

    J tasked:                  Yes
    K tasked:                  Yes
    wK tasked:                  No
    Memory [MiB]:              375
    Schwarz Cutoff:          1E-12

    OpenMP threads:              1

  Minimum eigenvalue in the overlap matrix is 3.1002997369E-04.
  Using Symmetric Orthogonalization.

  SCF Guess: Superposition of Atomic Densities via on-the-fly atomic UHF.

  ==> Iterations <==

                        Total Energy        Delta E     RMS |[F,P]|

   @RHF iter SAD:  -347.86723633509342   -3.47867e+02   0.00000e+00
   @RHF iter   1:  -348.76687618302071   -8.99640e-01   2.90606e-03 DIIS
   @RHF iter   2:  -348.96012652552531   -1.93250e-01   1.21125e-03 DIIS
   @RHF iter   3:  -348.99075012585638   -3.06236e-02   2.58353e-04 DIIS
   @RHF iter   4:  -348.99323322815667   -2.48310e-03   5.04401e-05 DIIS
   @RHF iter   5:  -348.99330191837930   -6.86902e-05   1.66235e-05 DIIS
   @RHF iter   6:  -348.99330880617464   -6.88780e-06   4.59086e-06 DIIS
   @RHF iter   7:  -348.99330941376491   -6.07590e-07   1.31821e-06 DIIS
   @RHF iter   8:  -348.99330947644285   -6.26779e-08   3.49686e-07 DIIS
   @RHF iter   9:  -348.99330948728334   -1.08405e-08   1.62868e-07 DIIS
   @RHF iter  10:  -348.99330949015200   -2.86866e-09   7.63341e-08 DIIS
   @RHF iter  11:  -348.99330949102068   -8.68681e-10   2.60620e-08 DIIS
   @RHF iter  12:  -348.99330949109344   -7.27596e-11   1.10527e-08 DIIS
   @RHF iter  13:  -348.99330949110390   -1.04592e-11   3.79852e-09 DIIS
   @RHF iter  14:  -348.99330949110356    3.41061e-13   9.59280e-10 DIIS
   @RHF iter  15:  -348.99330949110458   -1.02318e-12   3.31985e-10 DIIS
   @RHF iter  16:  -348.99330949110492   -3.41061e-13   1.11874e-10 DIIS
   @RHF iter  17:  -348.99330949110418    7.38964e-13   4.86316e-11 DIIS
  Energy and wave function converged.

  ==> Post-Iterations <==

    Orbital Energies [Eh]
    ---------------------

    Doubly Occupied:

       1A    -11.241854     2A    -11.235366     3A    -11.235187
       4A    -11.231179     5A    -11.230698     6A    -11.229995
       7A    -11.229642     8A    -11.213842     9A    -11.212832
      10A     -1.152460    11A     -1.042999    12A     -1.017999
      13A     -1.011957    14A     -0.931486    15A     -0.831767
      16A     -0.824052    17A     -0.796153    18A     -0.691219
      19A     -0.631156    20A     -0.629171    21A     -0.598708
      22A     -0.596048    23A     -0.582523    24A     -0.577170
      25A     -0.562311    26A     -0.534931    27A     -0.496063
      28A     -0.487971    29A     -0.485364    30A     -0.482245
      31A     -0.481498    32A     -0.480338    33A     -0.332566
      34A     -0.321868

    Virtual:

      35A      0.135037    36A      0.142098    37A      0.174348
      38A      0.193900    39A      0.206071    40A      0.215059
      41A      0.228454    42A      0.243445    43A      0.255264
      44A      0.261279    45A      0.266995    46A      0.273331
      47A      0.287675    48A      0.291478    49A      0.299071
      50A      0.324088    51A      0.367684    52A      0.374797
      53A      0.398282    54A      0.456621    55A      0.464534
      56A      0.473221    57A      0.504356    58A      0.568681
      59A      0.585182    60A      0.602126    61A      0.603789
      62A      0.614619    63A      0.627412    64A      0.669441
      65A      0.681718    66A      0.688989    67A      0.696388
      68A      0.709958    69A      0.719877    70A      0.737739
      71A      0.742756    72A      0.750163    73A      0.757142
      74A      0.760925    75A      0.786382    76A      0.804256
      77A      0.839400    78A      0.853560    79A      0.856840
      80A      0.859653    81A      0.875441    82A      0.882372
      83A      0.894256    84A      0.896347    85A      0.903225
      86A      0.906637    87A      0.912133    88A      0.924073
      89A      0.926395    90A      0.941748    91A      0.949317
      92A      0.961026    93A      0.982812    94A      0.993947
      95A      1.015522    96A      1.062397    97A      1.119141
      98A      1.126069    99A      1.136053   100A      1.144375
     101A      1.152307   102A      1.158867   103A      1.202034
     104A      1.218546   105A      1.230436   106A      1.248918
     107A      1.254951   108A      1.268743   109A      1.294009
     110A      1.308213   111A      1.319216   112A      1.327524
     113A      1.413094   114A      1.481934   115A      1.484470
     116A      1.512052   117A      1.525189   118A      1.550630
     119A      1.585106   120A      1.607450   121A      1.671050
     122A      1.679891   123A      1.690309   124A      1.695655
     125A      1.741440   126A      1.745257   127A      1.763009
     128A      1.794034   129A      1.817290   130A      1.859131
     131A      1.862600   132A      1.874106   133A      1.889144
     134A      1.894907   135A      1.896904   136A      1.902341
     137A      1.921002   138A      1.927644   139A      1.942019
     140A      1.946905   141A      1.953179   142A      1.955972
     143A      1.959462   144A      1.972546   145A      1.974188
     146A      1.980376   147A      2.000597   148A      2.012218
     149A      2.035572   150A      2.059134   151A      2.080743
     152A      2.105785   153A      2.112065   154A      2.126312
     155A      2.131480   156A      2.156282   157A      2.167336
     158A      2.176092   159A      2.198644   160A      2.256208
     161A      2.260963   162A      2.286411   163A      2.293874
     164A      2.301926   165A      2.313151   166A      2.332907
     167A      2.354585   168A      2.441958   169A      2.459768
     170A      2.469948   171A      2.474279   172A      2.505529
     173A      2.540694   174A      2.574163   175A      2.584811
     176A      2.634898   177A      2.728505   178A      2.752460
     179A      2.767258   180A      2.770381   181A      2.790229
     182A      2.806920   183A      2.812184   184A      2.847803
     185A      2.849634   186A      2.856065   187A      2.864640
     188A      2.957033   189A      2.966754   190A      2.985914
     191A      3.009961   192A      3.029855   193A      3.161141
     194A      3.198985   195A      3.301430   196A      3.966083

    Final Occupation by Irrep:
              A
    DOCC [    34 ]

  @RHF Final Energy:  -348.99330949110418

   => Energetics <=

    Nuclear Repulsion Energy =            404.3016162794012303
    One-Electron Energy =               -1271.3086212900379905
    Two-Electron Energy =                 518.0136955195324617
    Total Energy =                       -348.9933094911042417

Computation Completed

Properties will be evaluated at   0.000000,   0.000000,   0.000000 [a0]

Properties computed using the SCF density matrix

  Nuclear Dipole Moment: [e a0]
     X:    -7.3431      Y:     0.7304      Z:     7.5550

  Electronic Dipole Moment: [e a0]
     X:     7.3147      Y:    -0.6358      Z:    -7.6609

  Dipole Moment: [e a0]
     X:    -0.0283      Y:     0.0946      Z:    -0.1059     Total:     0.1448

  Dipole Moment: [D]
     X:    -0.0720      Y:     0.2404      Z:    -0.2693     Total:     0.3680

*** tstop() called on ds3 at Sun Apr 26 23:02:38 2020
Module time:
	user time   =      60.97 seconds =       1.02 minutes
	system time =      26.13 seconds =       0.44 minutes
	total time  =         93 seconds =       1.55 minutes
Total time:
	user time   =      60.97 seconds =       1.02 minutes
	system time =      26.13 seconds =       0.44 minutes
	total time  =         93 seconds =       1.55 minutes
                                     G D M A

                                 by Anthony Stone

                           version 2.2.06, 22 June 2011

               Distributed Multipoles from Gaussian wavefunctions

Starting at 23:2:38 on 26 Apr 2020

Using SCF density matrix from file ./SSI/SSI-087LEU-095PHE-2-dimer.test.21459.fchk

                         Distributed Multipole Analysis

Standard DMA

Positions and radii in angstrom
Multipole moments in atomic units, ea_0^k for rank k

C          x = -1.455017  y = -0.429826  z =  3.491796 angstrom
           Maximum rank =  0   Radius =  0.650 angstrom
                   Q00  =  -0.229711

C          x = -2.749017  y = -0.629826  z =  2.718796 angstrom
           Maximum rank =  0   Radius =  0.650 angstrom
                   Q00  =  -0.234246

H          x = -1.106017  y =  0.598174  z =  3.394796 angstrom
           Maximum rank =  0   Radius =  0.325 angstrom
                   Q00  =   0.076580

H          x = -1.663017  y = -0.658826  z =  4.528796 angstrom
           Maximum rank =  0   Radius =  0.325 angstrom
                   Q00  =   0.074380

H          x = -0.692017  y = -1.115826  z =  3.122796 angstrom
           Maximum rank =  0   Radius =  0.325 angstrom
                   Q00  =   0.077565

H          x = -3.104017  y = -1.638826  z =  2.924796 angstrom
           Maximum rank =  0   Radius =  0.325 angstrom
                   Q00  =   0.073377

H          x = -2.587063  y = -0.521136  z =  1.636226 angstrom
           Maximum rank =  0   Radius =  0.325 angstrom
                   Q00  =   0.086885

H          x = -3.511857  y =  0.076264  z =  3.078667 angstrom
           Maximum rank =  0   Radius =  0.325 angstrom
                   Q00  =   0.074798

C          x =  0.318983  y =  1.960174  z = -2.659204 angstrom
           Maximum rank =  0   Radius =  0.650 angstrom
                   Q00  =  -0.208935

C          x =  0.953983  y =  0.155174  z =  0.634796 angstrom
           Maximum rank =  0   Radius =  0.650 angstrom
                   Q00  =  -0.077237

C          x =  0.737983  y =  1.164174  z = -0.295204 angstrom
           Maximum rank =  0   Radius =  0.650 angstrom
                   Q00  =  -0.054243

C          x =  0.964983  y = -1.176826  z =  0.227796 angstrom
           Maximum rank =  0   Radius =  0.650 angstrom
                   Q00  =  -0.092637

C          x =  0.554983  y =  0.861174  z = -1.644204 angstrom
           Maximum rank =  0   Radius =  0.650 angstrom
                   Q00  =  -0.097964

C          x =  0.768983  y = -1.492826  z = -1.111204 angstrom
           Maximum rank =  0   Radius =  0.650 angstrom
                   Q00  =  -0.067718

C          x =  0.561983  y = -0.476826  z = -2.040204 angstrom
           Maximum rank =  0   Radius =  0.650 angstrom
                   Q00  =  -0.012074

H          x =  1.100983  y =  0.402174  z =  1.677796 angstrom
           Maximum rank =  0   Radius =  0.325 angstrom
                   Q00  =   0.067319

H          x =  0.699983  y =  2.188174  z =  0.034796 angstrom
           Maximum rank =  0   Radius =  0.325 angstrom
                   Q00  =   0.054562

H          x =  1.128983  y = -1.962826  z =  0.952796 angstrom
           Maximum rank =  0   Radius =  0.325 angstrom
                   Q00  =   0.060848

H          x =  0.773983  y = -2.525826  z = -1.432204 angstrom
           Maximum rank =  0   Radius =  0.325 angstrom
                   Q00  =   0.065390

H          x = -0.659017  y =  2.390174  z = -2.472204 angstrom
           Maximum rank =  0   Radius =  0.325 angstrom
                   Q00  =   0.104453

H          x =  0.290983  y =  1.523174  z = -3.659204 angstrom
           Maximum rank =  0   Radius =  0.325 angstrom
                   Q00  =   0.096812

H          x =  0.416983  y = -0.731826  z = -3.081204 angstrom
           Maximum rank =  0   Radius =  0.325 angstrom
                   Q00  =   0.058370

H          x =  1.078243  y =  2.756034  z = -2.647722 angstrom
           Maximum rank =  0   Radius =  0.325 angstrom
                   Q00  =   0.103426

Total multipoles referred to origin at
           x =   0.000000,  y =    0.000000,  z =    0.000000 angstrom
                   Q00  =  -0.000000

Finished at 23:2:38 on 26 Apr 2020

  DMA results are available in the Python driver through the
	  variable('DMA DISTRIBUTED MULTIPOLES')
  and
	  variable('DMA TOTAL MULTIPOLES')
  commands.

    Psi4 stopped on: Sunday, 26 April 2020 11:02PM
    Psi4 wall time for execution: 0:01:32.73

*** Psi4 exiting successfully. Buy a developer a beer!
