                               Psi4 1.3.2 release

  ==> Input File <==

--------------------------------------------------------------------------
import numpy as np
set {scf_type pk
basis cc-pvdz
d_convergence 10
gdma_switch   0
gdma_limit    0
gdma_origin   [ 0.0,  0.0,  0.0 ]
}
molecule test {
    units Angstrom
    0 1
    --
    0 1
    C               -1.927614704376440     1.007801676228274    -0.304557610231565
    C               -1.852614704376440     1.975801676228274     0.883442389768435
    H               -2.809614704376440     0.369801676228274    -0.230557610231565
    H               -1.981614704376440     1.573801676228274    -1.234557610231565
    H               -1.035614704376440     0.388801676228274    -0.328557610231565
    H               -0.972614704376440     2.603801676228275     0.757442389768435
    H               -1.752994704376440     1.417947676228274     1.826242389768435
    H               -2.745894704376440     2.617553676228274     0.897812389768435
    C                1.341385295623560    -0.966198323771726    -0.223557610231565
    C                2.435385295623560    -2.021198323771725    -0.350557610231565
    H                1.312385295623560    -0.558198323771726     0.787442389768435
    H                1.542385295623560    -0.144198323771726    -0.912557610231565
    H                0.375385295623560    -1.406198323771726    -0.475557610231565
    H                3.361385295623560    -1.622198323771726     0.061442389768435
    H                2.146365295623560    -2.926263323771725     0.203812389768435
    H                2.601625295623560    -2.269485323771725    -1.409196610231565

}
e, wfn = energy('scf', return_wfn=True)
gdma(wfn)
dmavals = variable('DMA DISTRIBUTED MULTIPOLES')
charges = np.array(dmavals)
print(charges)
np.save('SSI-074VAL-190LEU-1-dimer.npy', np.array(charges))--------------------------------------------------------------------------

*** tstart() called on ds3
*** at Tue Apr 28 14:01:00 2020

   => Loading Basis Set <=

    Name: CC-PVDZ
    Role: ORBITAL
    Keyword: BASIS
    atoms 1-2, 9-10  entry C          line   138 file /theoryfs2/ds/metcalf/miniconda2/envs/tf2gpu/share/psi4/basis/cc-pvdz.gbs
    atoms 3-8, 11-16 entry H          line    22 file /theoryfs2/ds/metcalf/miniconda2/envs/tf2gpu/share/psi4/basis/cc-pvdz.gbs

         ---------------------------------------------------------
                                   SCF
               by Justin Turney, Rob Parrish, Andy Simmonett
                          and Daniel G. A. Smith
                              RHF Reference
                        1 Threads,    500 MiB Core
         ---------------------------------------------------------

  ==> Geometry <==

    Molecular point group: c1
    Full point group: C1

    Geometry (in Angstrom), charge = 0, multiplicity = 1:

       Center              X                  Y                   Z               Mass
    ------------   -----------------  -----------------  -----------------  -----------------
         C           -1.927614704376     1.007801676228    -0.304557610232    12.000000000000
         C           -1.852614704376     1.975801676228     0.883442389768    12.000000000000
         H           -2.809614704376     0.369801676228    -0.230557610232     1.007825032230
         H           -1.981614704376     1.573801676228    -1.234557610232     1.007825032230
         H           -1.035614704376     0.388801676228    -0.328557610232     1.007825032230
         H           -0.972614704376     2.603801676228     0.757442389768     1.007825032230
         H           -1.752994704376     1.417947676228     1.826242389768     1.007825032230
         H           -2.745894704376     2.617553676228     0.897812389768     1.007825032230
         C            1.341385295624    -0.966198323772    -0.223557610232    12.000000000000
         C            2.435385295624    -2.021198323772    -0.350557610232    12.000000000000
         H            1.312385295624    -0.558198323772     0.787442389768     1.007825032230
         H            1.542385295624    -0.144198323772    -0.912557610232     1.007825032230
         H            0.375385295624    -1.406198323772    -0.475557610232     1.007825032230
         H            3.361385295624    -1.622198323772     0.061442389768     1.007825032230
         H            2.146365295624    -2.926263323772     0.203812389768     1.007825032230
         H            2.601625295624    -2.269485323772    -1.409196610232     1.007825032230

  Running in c1 symmetry.

  Rotational constants: A =      0.60455  B =      0.04341  C =      0.04182 [cm^-1]
  Rotational constants: A =  18123.85975  B =   1301.39997  C =   1253.71033 [MHz]
  Nuclear repulsion =  120.649910785435210

  Charge       = 0
  Multiplicity = 1
  Electrons    = 36
  Nalpha       = 18
  Nbeta        = 18

  ==> Algorithm <==

  SCF Algorithm Type is PK.
  DIIS enabled.
  MOM disabled.
  Fractional occupation disabled.
  Guess Type is SAD.
  Energy threshold   = 1.00e-06
  Density threshold  = 1.00e-10
  Integral threshold = 0.00e+00

  ==> Primary Basis <==

  Basis Set: CC-PVDZ
    Blend: CC-PVDZ
    Number of shells: 60
    Number of basis function: 116
    Number of Cartesian functions: 120
    Spherical Harmonics?: true
    Max angular momentum: 2

  ==> Pre-Iterations <==

   -------------------------------------------------------
    Irrep   Nso     Nmo     Nalpha   Nbeta   Ndocc  Nsocc
   -------------------------------------------------------
     A        116     116       0       0       0       0
   -------------------------------------------------------
    Total     116     116      18      18      18       0
   -------------------------------------------------------

  ==> Integral Setup <==

  Using integral reordering PK algorithm.
  Sizing the integral batches needed.
  Building batch lookup table.
   Calculation information:
      Number of atoms:                  16
      Number of AO shells:              60
      Number of primitives:            148
      Number of atomic orbitals:       120
      Number of basis functions:       116

      Integral cutoff                 1.00e-12
      Number of threads:                 1

	Batch   1 pq = [       0,    6786] index = [             0,23028291] size =     23028291
  Task number: 3
  Buffer size: 11059200
  Buffer per thread: 2
  We computed 1372597 shell quartets total.
  Whereas there are 1675365 unique shell quartets.

  ==> DiskJK: Disk-Based J/K Matrices <==

    J tasked:                  Yes
    K tasked:                  Yes
    wK tasked:                  No
    Memory [MiB]:              375
    Schwarz Cutoff:          1E-12

    OpenMP threads:              1

  Minimum eigenvalue in the overlap matrix is 5.3317213928E-03.
  Using Symmetric Orthogonalization.

  SCF Guess: Superposition of Atomic Densities via on-the-fly atomic UHF.

  ==> Iterations <==

                        Total Energy        Delta E     RMS |[F,P]|

   @RHF iter SAD:  -157.35044053304222   -1.57350e+02   0.00000e+00
   @RHF iter   1:  -158.30806179297088   -9.57621e-01   4.20645e-03 DIIS
   @RHF iter   2:  -158.44112099205151   -1.33059e-01   1.78837e-03 DIIS
   @RHF iter   3:  -158.46436700818302   -2.32460e-02   3.50035e-04 DIIS
   @RHF iter   4:  -158.46620703679318   -1.84003e-03   3.92196e-05 DIIS
   @RHF iter   5:  -158.46623153194298   -2.44951e-05   6.79255e-06 DIIS
   @RHF iter   6:  -158.46623220652842   -6.74585e-07   1.28874e-06 DIIS
   @RHF iter   7:  -158.46623222254695   -1.60185e-08   3.38690e-07 DIIS
   @RHF iter   8:  -158.46623222365349   -1.10654e-09   4.82260e-08 DIIS
   @RHF iter   9:  -158.46623222369271   -3.92220e-11   1.17211e-08 DIIS
   @RHF iter  10:  -158.46623222369456   -1.84741e-12   3.46514e-09 DIIS
   @RHF iter  11:  -158.46623222369467   -1.13687e-13   9.79636e-10 DIIS
   @RHF iter  12:  -158.46623222369473   -5.68434e-14   2.04065e-10 DIIS
   @RHF iter  13:  -158.46623222369504   -3.12639e-13   3.27911e-11 DIIS
  Energy and wave function converged.

  ==> Post-Iterations <==

    Orbital Energies [Eh]
    ---------------------

    Doubly Occupied:

       1A    -11.219771     2A    -11.218413     3A    -11.218003
       4A    -11.214127     5A     -1.020542     6A     -1.015236
       7A     -0.839326     8A     -0.833541     9A     -0.602121
      10A     -0.598315    11A     -0.596547    12A     -0.595150
      13A     -0.505651    14A     -0.495807    15A     -0.490075
      16A     -0.485544    17A     -0.484175    18A     -0.479191

    Virtual:

      19A      0.174682    20A      0.193267    21A      0.228965
      22A      0.240507    23A      0.242467    24A      0.259759
      25A      0.260697    26A      0.276742    27A      0.280788
      28A      0.291573    29A      0.296811    30A      0.330751
      31A      0.390727    32A      0.432196    33A      0.588519
      34A      0.594046    35A      0.604167    36A      0.605103
      37A      0.609529    38A      0.663683    39A      0.672896
      40A      0.682716    41A      0.705351    42A      0.741270
      43A      0.838301    44A      0.882740    45A      0.887993
      46A      0.893857    47A      0.894861    48A      0.895156
      49A      0.901820    50A      0.906506    51A      0.910499
      52A      0.918200    53A      0.933975    54A      0.946371
      55A      0.968213    56A      1.041139    57A      1.121524
      58A      1.125827    59A      1.129577    60A      1.134427
      61A      1.223842    62A      1.344512    63A      1.471154
      64A      1.477702    65A      1.481604    66A      1.484905
      67A      1.570949    68A      1.602385    69A      1.679121
      70A      1.680297    71A      1.691440    72A      1.696471
      73A      1.848520    74A      1.856411    75A      1.864732
      76A      1.877126    77A      1.887874    78A      1.921748
      79A      1.932938    80A      1.939075    81A      1.943775
      82A      1.946154    83A      1.950648    84A      1.953857
      85A      1.957768    86A      1.967367    87A      1.972963
      88A      2.067977    89A      2.102770    90A      2.114256
      91A      2.116672    92A      2.124174    93A      2.287041
      94A      2.299577    95A      2.311553    96A      2.362493
      97A      2.445514    98A      2.452400    99A      2.455836
     100A      2.472564   101A      2.562000   102A      2.565233
     103A      2.573687   104A      2.581389   105A      2.756016
     106A      2.764504   107A      2.776840   108A      2.804671
     109A      2.840899   110A      2.846784   111A      2.851061
     112A      2.862509   113A      2.939399   114A      2.945267
     115A      2.958271   116A      2.983261

    Final Occupation by Irrep:
              A
    DOCC [    18 ]

  @RHF Final Energy:  -158.46623222369504

   => Energetics <=

    Nuclear Repulsion Energy =            120.6499107854352104
    One-Electron Energy =                -450.4092196547535991
    Two-Electron Energy =                 171.2930766456233300
    Total Energy =                       -158.4662322236950445

Computation Completed

Properties will be evaluated at   0.000000,   0.000000,   0.000000 [a0]

Properties computed using the SCF density matrix

  Nuclear Dipole Moment: [e a0]
     X:     0.0386      Y:     0.0423      Z:    -0.0532

  Electronic Dipole Moment: [e a0]
     X:    -0.0040      Y:    -0.0550      Z:     0.0401

  Dipole Moment: [e a0]
     X:     0.0346      Y:    -0.0126      Z:    -0.0132     Total:     0.0391

  Dipole Moment: [D]
     X:     0.0878      Y:    -0.0321      Z:    -0.0335     Total:     0.0993

*** tstop() called on ds3 at Tue Apr 28 14:01:11 2020
Module time:
	user time   =       7.90 seconds =       0.13 minutes
	system time =       3.63 seconds =       0.06 minutes
	total time  =         11 seconds =       0.18 minutes
Total time:
	user time   =       7.90 seconds =       0.13 minutes
	system time =       3.63 seconds =       0.06 minutes
	total time  =         11 seconds =       0.18 minutes
                                     G D M A

                                 by Anthony Stone

                           version 2.2.06, 22 June 2011

               Distributed Multipoles from Gaussian wavefunctions

Starting at 14:1:11 on 28 Apr 2020

Using SCF density matrix from file ./SSI/SSI-074VAL-190LEU-1-dimer.test.17083.fchk

                         Distributed Multipole Analysis

Standard DMA

Positions and radii in angstrom
Multipole moments in atomic units, ea_0^k for rank k

C          x = -1.927615  y =  1.007802  z = -0.304558 angstrom
           Maximum rank =  0   Radius =  0.650 angstrom
                   Q00  =  -0.232621

C          x = -1.852615  y =  1.975802  z =  0.883442 angstrom
           Maximum rank =  0   Radius =  0.650 angstrom
                   Q00  =  -0.248612

H          x = -2.809615  y =  0.369802  z = -0.230558 angstrom
           Maximum rank =  0   Radius =  0.325 angstrom
                   Q00  =   0.077692

H          x = -1.981615  y =  1.573802  z = -1.234558 angstrom
           Maximum rank =  0   Radius =  0.325 angstrom
                   Q00  =   0.077269

H          x = -1.035615  y =  0.388802  z = -0.328558 angstrom
           Maximum rank =  0   Radius =  0.325 angstrom
                   Q00  =   0.088135

H          x = -0.972615  y =  2.603802  z =  0.757442 angstrom
           Maximum rank =  0   Radius =  0.325 angstrom
                   Q00  =   0.077949

H          x = -1.752995  y =  1.417948  z =  1.826242 angstrom
           Maximum rank =  0   Radius =  0.325 angstrom
                   Q00  =   0.078800

H          x = -2.745895  y =  2.617554  z =  0.897812 angstrom
           Maximum rank =  0   Radius =  0.325 angstrom
                   Q00  =   0.079478

C          x =  1.341385  y = -0.966198  z = -0.223558 angstrom
           Maximum rank =  0   Radius =  0.650 angstrom
                   Q00  =  -0.253963

C          x =  2.435385  y = -2.021198  z = -0.350558 angstrom
           Maximum rank =  0   Radius =  0.650 angstrom
                   Q00  =  -0.218471

H          x =  1.312385  y = -0.558198  z =  0.787442 angstrom
           Maximum rank =  0   Radius =  0.325 angstrom
                   Q00  =   0.079715

H          x =  1.542385  y = -0.144198  z = -0.912558 angstrom
           Maximum rank =  0   Radius =  0.325 angstrom
                   Q00  =   0.077287

H          x =  0.375385  y = -1.406198  z = -0.475558 angstrom
           Maximum rank =  0   Radius =  0.325 angstrom
                   Q00  =   0.076663

H          x =  3.361385  y = -1.622198  z =  0.061442 angstrom
           Maximum rank =  0   Radius =  0.325 angstrom
                   Q00  =   0.080784

H          x =  2.146365  y = -2.926263  z =  0.203812 angstrom
           Maximum rank =  0   Radius =  0.325 angstrom
                   Q00  =   0.079661

H          x =  2.601625  y = -2.269485  z = -1.409197 angstrom
           Maximum rank =  0   Radius =  0.325 angstrom
                   Q00  =   0.080234

Total multipoles referred to origin at
           x =   0.000000,  y =    0.000000,  z =    0.000000 angstrom
                   Q00  =  -0.000000

Finished at 14:1:11 on 28 Apr 2020

  DMA results are available in the Python driver through the
	  variable('DMA DISTRIBUTED MULTIPOLES')
  and
	  variable('DMA TOTAL MULTIPOLES')
  commands.

    Psi4 stopped on: Tuesday, 28 April 2020 02:01PM
    Psi4 wall time for execution: 0:00:11.31

*** Psi4 exiting successfully. Buy a developer a beer!
