                               Psi4 1.3.2 release

  ==> Input File <==

--------------------------------------------------------------------------
import numpy as np
set {scf_type pk
basis cc-pvdz
d_convergence 10
gdma_switch   0
gdma_limit    0
gdma_origin   [ 0.0,  0.0,  0.0 ]
}
molecule test {
    units Angstrom
    0 1
    --
    0 1
    C                1.998369466467387    -0.721033494251205    -1.384394122453017
    C               -0.295630533532613    -1.659033494251205    -1.589394122453017
    N               -0.764630533532613    -0.961033494251205    -0.567394122453017
    N                0.971369466467387    -1.570033494251205    -1.991394122453017
    N               -1.115630533532612    -2.474033494251205    -2.223394122453017
    H               -0.163630533532613    -0.383033494251205     0.017605877546983
    H               -1.743630533532613    -1.108033494251205    -0.333394122453017
    H                1.258369466467387    -2.169033494251205    -2.752394122453017
    H               -0.806630533532612    -3.054033494251205    -2.986394122453017
    H               -2.071630533532613    -2.522033494251205    -1.869394122453018
    H                2.989369466467387    -1.125033494251205    -1.600394122453018
    H                1.877369466467387    -0.685033494251205    -0.300394122453017
    H                1.916059466467388     0.293666505748795    -1.801055122453018
    C               -1.183630533532612     2.549966505748795     1.155605877546982
    C               -0.126630533532613     1.821966505748795     1.983605877546982
    O                0.345369466467387     0.747966505748795     1.535605877546983
    O                0.220369466467387     2.301966505748795     3.086605877546983
    H               -1.939630533532613     1.834966505748795     0.832605877546982
    H               -0.698630533532613     2.924966505748795     0.250605877546983
    H               -1.640780533532612     3.413796505748794     1.660394877546983

}
e, wfn = energy('scf', return_wfn=True)
gdma(wfn)
dmavals = variable('DMA DISTRIBUTED MULTIPOLES')
charges = np.array(dmavals)
print(charges)
np.save('SSI-022ARG-073GLU-1-dimer.npy', np.array(charges))--------------------------------------------------------------------------

*** tstart() called on ds3
*** at Tue Apr 28 11:54:47 2020

   => Loading Basis Set <=

    Name: CC-PVDZ
    Role: ORBITAL
    Keyword: BASIS
    atoms 1-2, 14-15  entry C          line   138 file /theoryfs2/ds/metcalf/miniconda2/envs/tf2gpu/share/psi4/basis/cc-pvdz.gbs
    atoms 3-5         entry N          line   168 file /theoryfs2/ds/metcalf/miniconda2/envs/tf2gpu/share/psi4/basis/cc-pvdz.gbs
    atoms 6-13, 18-20 entry H          line    22 file /theoryfs2/ds/metcalf/miniconda2/envs/tf2gpu/share/psi4/basis/cc-pvdz.gbs
    atoms 16-17       entry O          line   198 file /theoryfs2/ds/metcalf/miniconda2/envs/tf2gpu/share/psi4/basis/cc-pvdz.gbs

         ---------------------------------------------------------
                                   SCF
               by Justin Turney, Rob Parrish, Andy Simmonett
                          and Daniel G. A. Smith
                              RHF Reference
                        1 Threads,    500 MiB Core
         ---------------------------------------------------------

  ==> Geometry <==

    Molecular point group: c1
    Full point group: C1

    Geometry (in Angstrom), charge = 0, multiplicity = 1:

       Center              X                  Y                   Z               Mass
    ------------   -----------------  -----------------  -----------------  -----------------
         C            1.998369466467    -0.721033494251    -1.384394122453    12.000000000000
         C           -0.295630533533    -1.659033494251    -1.589394122453    12.000000000000
         N           -0.764630533533    -0.961033494251    -0.567394122453    14.003074004430
         N            0.971369466467    -1.570033494251    -1.991394122453    14.003074004430
         N           -1.115630533533    -2.474033494251    -2.223394122453    14.003074004430
         H           -0.163630533533    -0.383033494251     0.017605877547     1.007825032230
         H           -1.743630533533    -1.108033494251    -0.333394122453     1.007825032230
         H            1.258369466467    -2.169033494251    -2.752394122453     1.007825032230
         H           -0.806630533533    -3.054033494251    -2.986394122453     1.007825032230
         H           -2.071630533533    -2.522033494251    -1.869394122453     1.007825032230
         H            2.989369466467    -1.125033494251    -1.600394122453     1.007825032230
         H            1.877369466467    -0.685033494251    -0.300394122453     1.007825032230
         H            1.916059466467     0.293666505749    -1.801055122453     1.007825032230
         C           -1.183630533533     2.549966505749     1.155605877547    12.000000000000
         C           -0.126630533533     1.821966505749     1.983605877547    12.000000000000
         O            0.345369466467     0.747966505749     1.535605877547    15.994914619570
         O            0.220369466467     2.301966505749     3.086605877547    15.994914619570
         H           -1.939630533533     1.834966505749     0.832605877547     1.007825032230
         H           -0.698630533533     2.924966505749     0.250605877547     1.007825032230
         H           -1.640780533533     3.413796505749     1.660394877547     1.007825032230

  Running in c1 symmetry.

  Rotational constants: A =      0.09646  B =      0.01876  C =      0.01682 [cm^-1]
  Rotational constants: A =   2891.90527  B =    562.53889  C =    504.34092 [MHz]
  Nuclear repulsion =  445.775925310714285

  Charge       = 0
  Multiplicity = 1
  Electrons    = 72
  Nalpha       = 36
  Nbeta        = 36

  ==> Algorithm <==

  SCF Algorithm Type is PK.
  DIIS enabled.
  MOM disabled.
  Fractional occupation disabled.
  Guess Type is SAD.
  Energy threshold   = 1.00e-06
  Density threshold  = 1.00e-10
  Integral threshold = 0.00e+00

  ==> Primary Basis <==

  Basis Set: CC-PVDZ
    Blend: CC-PVDZ
    Number of shells: 87
    Number of basis function: 181
    Number of Cartesian functions: 190
    Spherical Harmonics?: true
    Max angular momentum: 2

  ==> Pre-Iterations <==

   -------------------------------------------------------
    Irrep   Nso     Nmo     Nalpha   Nbeta   Ndocc  Nsocc
   -------------------------------------------------------
     A        181     181       0       0       0       0
   -------------------------------------------------------
    Total     181     181      36      36      36       0
   -------------------------------------------------------

  ==> Integral Setup <==

  Using integral reordering PK algorithm.
  Sizing the integral batches needed.
  Building batch lookup table.
   Calculation information:
      Number of atoms:                  20
      Number of AO shells:              87
      Number of primitives:            253
      Number of atomic orbitals:       190
      Number of basis functions:       181

      Integral cutoff                 1.00e-12
      Number of threads:                 1

	Batch   1 pq = [       0,    9405] index = [             0,44231715] size =     44231715
	Batch   2 pq = [    9405,   13301] index = [      44231715,88464951] size =     44233236
	Batch   3 pq = [   13301,   16471] index = [      88464951,135655156] size =     47190205
  Task number: 13
  Buffer size: 11059200
  Buffer per thread: 2
  We computed 5821733 shell quartets total.
  Whereas there are 7328706 unique shell quartets.

  ==> DiskJK: Disk-Based J/K Matrices <==

    J tasked:                  Yes
    K tasked:                  Yes
    wK tasked:                  No
    Memory [MiB]:              375
    Schwarz Cutoff:          1E-12

    OpenMP threads:              1

  Minimum eigenvalue in the overlap matrix is 3.8579161901E-03.
  Using Symmetric Orthogonalization.

  SCF Guess: Superposition of Atomic Densities via on-the-fly atomic UHF.

  ==> Iterations <==

                        Total Energy        Delta E     RMS |[F,P]|

   @RHF iter SAD:  -469.59778385231039   -4.69598e+02   0.00000e+00
   @RHF iter   1:  -470.65696415138757   -1.05918e+00   4.31535e-03 DIIS
   @RHF iter   2:  -470.89176346691522   -2.34799e-01   2.31797e-03 DIIS
   @RHF iter   3:  -470.95532624482792   -6.35628e-02   4.09925e-04 DIIS
   @RHF iter   4:  -470.95884203918041   -3.51579e-03   1.49654e-04 DIIS
   @RHF iter   5:  -470.95929609001735   -4.54051e-04   3.02723e-05 DIIS
   @RHF iter   6:  -470.95932312749062   -2.70375e-05   1.59535e-05 DIIS
   @RHF iter   7:  -470.95932836400237   -5.23651e-06   4.22961e-06 DIIS
   @RHF iter   8:  -470.95932925571140   -8.91709e-07   2.07307e-06 DIIS
   @RHF iter   9:  -470.95932941243473   -1.56723e-07   7.37192e-07 DIIS
   @RHF iter  10:  -470.95932944217321   -2.97385e-08   2.36715e-07 DIIS
   @RHF iter  11:  -470.95932944468598   -2.51276e-09   6.59030e-08 DIIS
   @RHF iter  12:  -470.95932944481382   -1.27841e-10   2.09156e-08 DIIS
   @RHF iter  13:  -470.95932944482632   -1.25056e-11   5.21303e-09 DIIS
   @RHF iter  14:  -470.95932944482564    6.82121e-13   1.51196e-09 DIIS
   @RHF iter  15:  -470.95932944482837   -2.72848e-12   5.72788e-10 DIIS
   @RHF iter  16:  -470.95932944482871   -3.41061e-13   2.14396e-10 DIIS
   @RHF iter  17:  -470.95932944482911   -3.97904e-13   1.01837e-10 DIIS
   @RHF iter  18:  -470.95932944483081   -1.70530e-12   3.78484e-11 DIIS
  Energy and wave function converged.

  ==> Post-Iterations <==

    Orbital Energies [Eh]
    ---------------------

    Doubly Occupied:

       1A    -20.399616     2A    -20.376818     3A    -15.679349
       4A    -15.667824     5A    -15.643983     6A    -11.465341
       7A    -11.314815     8A    -11.241280     9A    -11.164231
      10A     -1.422099    11A     -1.285280    12A     -1.274946
      13A     -1.256932    14A     -1.160026    15A     -1.017495
      16A     -0.910494    17A     -0.908970    18A     -0.855407
      19A     -0.816081    20A     -0.738589    21A     -0.721401
      22A     -0.701600    23A     -0.671369    24A     -0.623029
      25A     -0.621042    26A     -0.596627    27A     -0.530433
      28A     -0.526239    29A     -0.519963    30A     -0.490249
      31A     -0.463629    32A     -0.462032    33A     -0.425590
      34A     -0.315228    35A     -0.291525    36A     -0.287561

    Virtual:

      37A      0.090380    38A      0.129488    39A      0.147369
      40A      0.150539    41A      0.193283    42A      0.199977
      43A      0.228974    44A      0.259368    45A      0.273270
      46A      0.292551    47A      0.305603    48A      0.318596
      49A      0.356427    50A      0.373976    51A      0.398597
      52A      0.450035    53A      0.459332    54A      0.470722
      55A      0.563408    56A      0.580529    57A      0.587911
      58A      0.612933    59A      0.631716    60A      0.642031
      61A      0.650986    62A      0.661825    63A      0.676859
      64A      0.693469    65A      0.703776    66A      0.772397
      67A      0.799747    68A      0.809225    69A      0.828165
      70A      0.830601    71A      0.839093    72A      0.852525
      73A      0.868203    74A      0.888979    75A      0.903241
      76A      0.916443    77A      0.919912    78A      0.932110
      79A      0.939603    80A      0.949390    81A      0.980021
      82A      0.994144    83A      1.015252    84A      1.030707
      85A      1.041923    86A      1.100042    87A      1.107686
      88A      1.160760    89A      1.167892    90A      1.221995
      91A      1.232774    92A      1.241923    93A      1.250866
      94A      1.269267    95A      1.303788    96A      1.321778
      97A      1.344126    98A      1.389706    99A      1.410092
     100A      1.419307   101A      1.445572   102A      1.467917
     103A      1.500936   104A      1.521835   105A      1.566090
     106A      1.578566   107A      1.610156   108A      1.622673
     109A      1.641959   110A      1.653967   111A      1.677688
     112A      1.713654   113A      1.723039   114A      1.732352
     115A      1.743222   116A      1.763875   117A      1.817696
     118A      1.827723   119A      1.866563   120A      1.869915
     121A      1.889012   122A      1.905762   123A      1.926668
     124A      1.932961   125A      1.966538   126A      1.979586
     127A      1.992651   128A      1.997862   129A      2.018959
     130A      2.067537   131A      2.091449   132A      2.112350
     133A      2.134863   134A      2.153632   135A      2.174037
     136A      2.208741   137A      2.254977   138A      2.276769
     139A      2.292458   140A      2.313500   141A      2.317764
     142A      2.358975   143A      2.371823   144A      2.424261
     145A      2.429023   146A      2.464684   147A      2.473526
     148A      2.491205   149A      2.535432   150A      2.567147
     151A      2.571474   152A      2.607396   153A      2.652066
     154A      2.691811   155A      2.720671   156A      2.732033
     157A      2.766683   158A      2.807242   159A      2.821179
     160A      2.858396   161A      2.868804   162A      2.889711
     163A      2.895261   164A      2.924681   165A      2.940636
     166A      2.997505   167A      3.111654   168A      3.145936
     169A      3.167577   170A      3.188287   171A      3.214591
     172A      3.230773   173A      3.319730   174A      3.504049
     175A      3.658496   176A      3.674031   177A      3.693842
     178A      3.745323   179A      3.935918   180A      3.988693
     181A      4.066232

    Final Occupation by Irrep:
              A
    DOCC [    36 ]

  @RHF Final Energy:  -470.95932944483081

   => Energetics <=

    Nuclear Repulsion Energy =            445.7759253107142854
    One-Electron Energy =               -1527.7763273038058287
    Two-Electron Energy =                 611.0410725482607859
    Total Energy =                       -470.9593294448308143

Computation Completed

Properties will be evaluated at   0.000000,   0.000000,   0.000000 [a0]

Properties computed using the SCF density matrix

  Nuclear Dipole Moment: [e a0]
     X:    -0.9540      Y:    -2.3884      Z:    -8.2907

  Electronic Dipole Moment: [e a0]
     X:     0.0005      Y:    -2.5354      Z:     1.9095

  Dipole Moment: [e a0]
     X:    -0.9535      Y:    -4.9238      Z:    -6.3812     Total:     8.1162

  Dipole Moment: [D]
     X:    -2.4236      Y:   -12.5150      Z:   -16.2194     Total:    20.6293

*** tstop() called on ds3 at Tue Apr 28 11:55:53 2020
Module time:
	user time   =      44.24 seconds =       0.74 minutes
	system time =      22.58 seconds =       0.38 minutes
	total time  =         66 seconds =       1.10 minutes
Total time:
	user time   =      44.24 seconds =       0.74 minutes
	system time =      22.58 seconds =       0.38 minutes
	total time  =         66 seconds =       1.10 minutes
                                     G D M A

                                 by Anthony Stone

                           version 2.2.06, 22 June 2011

               Distributed Multipoles from Gaussian wavefunctions

Starting at 11:55:53 on 28 Apr 2020

Using SCF density matrix from file ./SSI/SSI-022ARG-073GLU-1-dimer.test.19398.fchk

                         Distributed Multipole Analysis

Standard DMA

Positions and radii in angstrom
Multipole moments in atomic units, ea_0^k for rank k

C          x =  1.998369  y = -0.721033  z = -1.384394 angstrom
           Maximum rank =  0   Radius =  0.650 angstrom
                   Q00  =  -0.102121

C          x = -0.295631  y = -1.659033  z = -1.589394 angstrom
           Maximum rank =  0   Radius =  0.650 angstrom
                   Q00  =   1.071215

N          x = -0.764631  y = -0.961033  z = -0.567394 angstrom
           Maximum rank =  0   Radius =  0.650 angstrom
                   Q00  =  -0.581305

N          x =  0.971369  y = -1.570033  z = -1.991394 angstrom
           Maximum rank =  0   Radius =  0.650 angstrom
                   Q00  =  -0.491296

N          x = -1.115631  y = -2.474033  z = -2.223394 angstrom
           Maximum rank =  0   Radius =  0.650 angstrom
                   Q00  =  -0.591059

H          x = -0.163631  y = -0.383033  z =  0.017606 angstrom
           Maximum rank =  0   Radius =  0.325 angstrom
                   Q00  =   0.313157

H          x = -1.743631  y = -1.108033  z = -0.333394 angstrom
           Maximum rank =  0   Radius =  0.325 angstrom
                   Q00  =   0.242168

H          x =  1.258369  y = -2.169033  z = -2.752394 angstrom
           Maximum rank =  0   Radius =  0.325 angstrom
                   Q00  =   0.203101

H          x = -0.806631  y = -3.054033  z = -2.986394 angstrom
           Maximum rank =  0   Radius =  0.325 angstrom
                   Q00  =   0.250898

H          x = -2.071631  y = -2.522033  z = -1.869394 angstrom
           Maximum rank =  0   Radius =  0.325 angstrom
                   Q00  =   0.248959

H          x =  2.989369  y = -1.125033  z = -1.600394 angstrom
           Maximum rank =  0   Radius =  0.325 angstrom
                   Q00  =   0.129377

H          x =  1.877369  y = -0.685033  z = -0.300394 angstrom
           Maximum rank =  0   Radius =  0.325 angstrom
                   Q00  =   0.142676

H          x =  1.916059  y =  0.293667  z = -1.801055 angstrom
           Maximum rank =  0   Radius =  0.325 angstrom
                   Q00  =   0.119758

C          x = -1.183631  y =  2.549967  z =  1.155606 angstrom
           Maximum rank =  0   Radius =  0.650 angstrom
                   Q00  =  -0.268490

C          x = -0.126631  y =  1.821967  z =  1.983606 angstrom
           Maximum rank =  0   Radius =  0.650 angstrom
                   Q00  =   0.925963

O          x =  0.345369  y =  0.747967  z =  1.535606 angstrom
           Maximum rank =  0   Radius =  0.650 angstrom
                   Q00  =  -0.956988

O          x =  0.220369  y =  2.301967  z =  3.086606 angstrom
           Maximum rank =  0   Radius =  0.650 angstrom
                   Q00  =  -0.868360

H          x = -1.939631  y =  1.834967  z =  0.832606 angstrom
           Maximum rank =  0   Radius =  0.325 angstrom
                   Q00  =   0.046622

H          x = -0.698631  y =  2.924967  z =  0.250606 angstrom
           Maximum rank =  0   Radius =  0.325 angstrom
                   Q00  =   0.073439

H          x = -1.640781  y =  3.413797  z =  1.660395 angstrom
           Maximum rank =  0   Radius =  0.325 angstrom
                   Q00  =   0.092284

Total multipoles referred to origin at
           x =   0.000000,  y =    0.000000,  z =    0.000000 angstrom
                   Q00  =  -0.000000

Finished at 11:55:53 on 28 Apr 2020

  DMA results are available in the Python driver through the
	  variable('DMA DISTRIBUTED MULTIPOLES')
  and
	  variable('DMA TOTAL MULTIPOLES')
  commands.

    Psi4 stopped on: Tuesday, 28 April 2020 11:55AM
    Psi4 wall time for execution: 0:01:06.43

*** Psi4 exiting successfully. Buy a developer a beer!
