                               Psi4 1.3.2 release

  ==> Input File <==

--------------------------------------------------------------------------
import numpy as np
set {scf_type pk
basis cc-pvdz
d_convergence 10
gdma_switch   0
gdma_limit    0
gdma_origin   [ 0.0,  0.0,  0.0 ]
}
molecule test {
    units Angstrom
    0 1
    --
    0 1
    C               -2.203782495623578     1.514048909179965     0.215192053550988
    C               -1.247782495623577     0.423048909179965     0.599192053550988
    C               -1.224782495623578    -0.888951090820035     0.241192053550988
    C                0.463217504376422    -0.525951090820035     1.609192053550988
    N               -0.189782495623578     0.624048909179965     1.461192053550988
    N               -0.144782495623578    -1.458951090820035     0.881192053550988
    H               -2.324782495623578     2.192048909179965     1.052192053550988
    H               -3.167782495623578     1.059048909179965     0.024192053550988
    H               -1.931782495623578    -1.382951090820035    -0.413807946449012
    H                1.340217504376422    -0.681951090820035     2.227192053550988
    H                0.139217504376422    -2.430951090820035     0.829192053550988
    H               -1.908712495623578     2.077495909179965    -0.682277946449012
    C                1.779217504376422     0.343048909179965    -1.598807946449012
    C                2.421217504376422    -0.037951090820035    -2.918807946449012
    H                1.115217504376423    -0.447951090820035    -1.258807946449012
    H                2.554217504376422     0.496048909179965    -0.846807946449012
    H                1.216217504376422     1.266048909179965    -1.708807946449012
    H                3.224217504376422     0.666048909179965    -3.141807946449012
    H                1.689697504376422    -0.018007090820035    -3.740077946449012
    H                2.853777504376422    -1.044947090820035    -2.824737946449012

}
e, wfn = energy('scf', return_wfn=True)
gdma(wfn)
dmavals = variable('DMA DISTRIBUTED MULTIPOLES')
charges = np.array(dmavals)
print(charges)
np.save('SSI-094HIE-099THR-1-dimer.npy', np.array(charges))--------------------------------------------------------------------------

*** tstart() called on ds3
*** at Tue Apr 28 10:40:55 2020

   => Loading Basis Set <=

    Name: CC-PVDZ
    Role: ORBITAL
    Keyword: BASIS
    atoms 1-4, 13-14  entry C          line   138 file /theoryfs2/ds/metcalf/miniconda2/envs/tf2gpu/share/psi4/basis/cc-pvdz.gbs
    atoms 5-6         entry N          line   168 file /theoryfs2/ds/metcalf/miniconda2/envs/tf2gpu/share/psi4/basis/cc-pvdz.gbs
    atoms 7-12, 15-20 entry H          line    22 file /theoryfs2/ds/metcalf/miniconda2/envs/tf2gpu/share/psi4/basis/cc-pvdz.gbs

         ---------------------------------------------------------
                                   SCF
               by Justin Turney, Rob Parrish, Andy Simmonett
                          and Daniel G. A. Smith
                              RHF Reference
                        1 Threads,    500 MiB Core
         ---------------------------------------------------------

  ==> Geometry <==

    Molecular point group: c1
    Full point group: C1

    Geometry (in Angstrom), charge = 0, multiplicity = 1:

       Center              X                  Y                   Z               Mass
    ------------   -----------------  -----------------  -----------------  -----------------
         C           -2.203782495624     1.514048909180     0.215192053551    12.000000000000
         C           -1.247782495624     0.423048909180     0.599192053551    12.000000000000
         C           -1.224782495624    -0.888951090820     0.241192053551    12.000000000000
         C            0.463217504376    -0.525951090820     1.609192053551    12.000000000000
         N           -0.189782495624     0.624048909180     1.461192053551    14.003074004430
         N           -0.144782495624    -1.458951090820     0.881192053551    14.003074004430
         H           -2.324782495624     2.192048909180     1.052192053551     1.007825032230
         H           -3.167782495624     1.059048909180     0.024192053551     1.007825032230
         H           -1.931782495624    -1.382951090820    -0.413807946449     1.007825032230
         H            1.340217504376    -0.681951090820     2.227192053551     1.007825032230
         H            0.139217504376    -2.430951090820     0.829192053551     1.007825032230
         H           -1.908712495624     2.077495909180    -0.682277946449     1.007825032230
         C            1.779217504376     0.343048909180    -1.598807946449    12.000000000000
         C            2.421217504376    -0.037951090820    -2.918807946449    12.000000000000
         H            1.115217504376    -0.447951090820    -1.258807946449     1.007825032230
         H            2.554217504376     0.496048909180    -0.846807946449     1.007825032230
         H            1.216217504376     1.266048909180    -1.708807946449     1.007825032230
         H            3.224217504376     0.666048909180    -3.141807946449     1.007825032230
         H            1.689697504376    -0.018007090820    -3.740077946449     1.007825032230
         H            2.853777504376    -1.044947090820    -2.824737946449     1.007825032230

  Running in c1 symmetry.

  Rotational constants: A =      0.08515  B =      0.03518  C =      0.03007 [cm^-1]
  Rotational constants: A =   2552.83971  B =   1054.53700  C =    901.42741 [MHz]
  Nuclear repulsion =  362.188147471029993

  Charge       = 0
  Multiplicity = 1
  Electrons    = 62
  Nalpha       = 31
  Nbeta        = 31

  ==> Algorithm <==

  SCF Algorithm Type is PK.
  DIIS enabled.
  MOM disabled.
  Fractional occupation disabled.
  Guess Type is SAD.
  Energy threshold   = 1.00e-06
  Density threshold  = 1.00e-10
  Integral threshold = 0.00e+00

  ==> Primary Basis <==

  Basis Set: CC-PVDZ
    Blend: CC-PVDZ
    Number of shells: 84
    Number of basis function: 172
    Number of Cartesian functions: 180
    Spherical Harmonics?: true
    Max angular momentum: 2

  ==> Pre-Iterations <==

   -------------------------------------------------------
    Irrep   Nso     Nmo     Nalpha   Nbeta   Ndocc  Nsocc
   -------------------------------------------------------
     A        172     172       0       0       0       0
   -------------------------------------------------------
    Total     172     172      31      31      31       0
   -------------------------------------------------------

  ==> Integral Setup <==

  Using integral reordering PK algorithm.
  Sizing the integral batches needed.
  Building batch lookup table.
   Calculation information:
      Number of atoms:                  20
      Number of AO shells:              84
      Number of primitives:            236
      Number of atomic orbitals:       180
      Number of basis functions:       172

      Integral cutoff                 1.00e-12
      Number of threads:                 1

	Batch   1 pq = [       0,    9405] index = [             0,44231715] size =     44231715
	Batch   2 pq = [    9405,   13301] index = [      44231715,88464951] size =     44233236
	Batch   3 pq = [   13301,   14878] index = [      88464951,110684881] size =     22219930
  Task number: 11
  Buffer size: 11059200
  Buffer per thread: 2
  We computed 5724226 shell quartets total.
  Whereas there are 6374235 unique shell quartets.

  ==> DiskJK: Disk-Based J/K Matrices <==

    J tasked:                  Yes
    K tasked:                  Yes
    wK tasked:                  No
    Memory [MiB]:              375
    Schwarz Cutoff:          1E-12

    OpenMP threads:              1

  Minimum eigenvalue in the overlap matrix is 1.1274271129E-03.
  Using Symmetric Orthogonalization.

  SCF Guess: Superposition of Atomic Densities via on-the-fly atomic UHF.

  ==> Iterations <==

                        Total Energy        Delta E     RMS |[F,P]|

   @RHF iter SAD:  -342.22687345505040   -3.42227e+02   0.00000e+00
   @RHF iter   1:  -342.88454375404660   -6.57670e-01   3.38141e-03 DIIS
   @RHF iter   2:  -343.05787489532440   -1.73331e-01   1.72283e-03 DIIS
   @RHF iter   3:  -343.09935820670131   -4.14833e-02   4.40374e-04 DIIS
   @RHF iter   4:  -343.10289665817862   -3.53845e-03   1.83164e-04 DIIS
   @RHF iter   5:  -343.10347095225120   -5.74294e-04   2.68122e-05 DIIS
   @RHF iter   6:  -343.10349205596333   -2.11037e-05   1.15970e-05 DIIS
   @RHF iter   7:  -343.10349553131812   -3.47535e-06   4.10213e-06 DIIS
   @RHF iter   8:  -343.10349627974404   -7.48426e-07   1.63805e-06 DIIS
   @RHF iter   9:  -343.10349644478055   -1.65037e-07   5.96416e-07 DIIS
   @RHF iter  10:  -343.10349646154157   -1.67610e-08   1.85721e-07 DIIS
   @RHF iter  11:  -343.10349646345014   -1.90857e-09   8.25880e-08 DIIS
   @RHF iter  12:  -343.10349646371884   -2.68699e-10   3.25645e-08 DIIS
   @RHF iter  13:  -343.10349646376528   -4.64411e-11   8.82292e-09 DIIS
   @RHF iter  14:  -343.10349646377040   -5.11591e-12   3.25213e-09 DIIS
   @RHF iter  15:  -343.10349646377074   -3.41061e-13   1.33672e-09 DIIS
   @RHF iter  16:  -343.10349646377000    7.38964e-13   4.15667e-10 DIIS
   @RHF iter  17:  -343.10349646377028   -2.84217e-13   1.22373e-10 DIIS
   @RHF iter  18:  -343.10349646377165   -1.36424e-12   4.74503e-11 DIIS
  Energy and wave function converged.

  ==> Post-Iterations <==

    Orbital Energies [Eh]
    ---------------------

    Doubly Occupied:

       1A    -15.621869     2A    -15.528616     3A    -11.293171
       4A    -11.250726     5A    -11.241970     6A    -11.222239
       7A    -11.212457     8A    -11.203937     9A     -1.340502
      10A     -1.152991    11A     -1.030399    12A     -1.013485
      13A     -0.941527    14A     -0.827434    15A     -0.818118
      16A     -0.761105    17A     -0.741318    18A     -0.610247
      19A     -0.607828    20A     -0.596219    21A     -0.592099
      22A     -0.588525    23A     -0.552812    24A     -0.541539
      25A     -0.520863    26A     -0.493019    27A     -0.476834
      28A     -0.475377    29A     -0.410275    30A     -0.378146
      31A     -0.309249

    Virtual:

      32A      0.169188    33A      0.183897    34A      0.190759
      35A      0.203642    36A      0.219779    37A      0.222763
      38A      0.237779    39A      0.257687    40A      0.260829
      41A      0.269456    42A      0.280568    43A      0.292013
      44A      0.312682    45A      0.331957    46A      0.380348
      47A      0.391888    48A      0.401149    49A      0.420540
      50A      0.482188    51A      0.489546    52A      0.596176
      53A      0.599506    54A      0.603151    55A      0.616880
      56A      0.629594    57A      0.648194    58A      0.664630
      59A      0.667889    60A      0.681476    61A      0.725659
      62A      0.743382    63A      0.758426    64A      0.791863
      65A      0.806920    66A      0.831741    67A      0.848598
      68A      0.862849    69A      0.881171    70A      0.894524
      71A      0.897729    72A      0.905782    73A      0.909379
      74A      0.917684    75A      0.927812    76A      0.934868
      77A      0.941181    78A      0.958508    79A      0.968313
      80A      0.980804    81A      1.008425    82A      1.028791
      83A      1.086296    84A      1.090617    85A      1.101216
      86A      1.127674    87A      1.147128    88A      1.157687
      89A      1.164869    90A      1.184541    91A      1.242286
      92A      1.265504    93A      1.302184    94A      1.313404
      95A      1.327648    96A      1.334013    97A      1.424424
      98A      1.446913    99A      1.476841   100A      1.488617
     101A      1.502326   102A      1.529340   103A      1.567653
     104A      1.594889   105A      1.613604   106A      1.659668
     107A      1.685657   108A      1.698662   109A      1.701806
     110A      1.749394   111A      1.770460   112A      1.815165
     113A      1.825834   114A      1.858201   115A      1.877311
     116A      1.883081   117A      1.905417   118A      1.916604
     119A      1.928588   120A      1.942393   121A      1.948111
     122A      1.952706   123A      1.962314   124A      1.965011
     125A      1.971588   126A      1.976634   127A      2.018886
     128A      2.027831   129A      2.045343   130A      2.093717
     131A      2.111882   132A      2.130540   133A      2.135645
     134A      2.148608   135A      2.214467   136A      2.233669
     137A      2.241905   138A      2.307682   139A      2.318545
     140A      2.340040   141A      2.348787   142A      2.390036
     143A      2.432707   144A      2.449000   145A      2.468190
     146A      2.475691   147A      2.506241   148A      2.567652
     149A      2.582462   150A      2.598087   151A      2.605803
     152A      2.692128   153A      2.722288   154A      2.757589
     155A      2.769041   156A      2.788128   157A      2.793296
     158A      2.810175   159A      2.848996   160A      2.857493
     161A      2.861874   162A      2.870789   163A      2.891928
     164A      2.925575   165A      2.961333   166A      2.980161
     167A      2.993590   168A      3.064186   169A      3.156441
     170A      3.231459   171A      3.467092   172A      3.795098

    Final Occupation by Irrep:
              A
    DOCC [    31 ]

  @RHF Final Energy:  -343.10349646377165

   => Energetics <=

    Nuclear Repulsion Energy =            362.1881474710299926
    One-Electron Energy =               -1181.8734895591155691
    Two-Electron Energy =                 476.5818456243139281
    Total Energy =                       -343.1034964637716485

Computation Completed

Properties will be evaluated at   0.000000,   0.000000,   0.000000 [a0]

Properties computed using the SCF density matrix

  Nuclear Dipole Moment: [e a0]
     X:     4.5006      Y:     1.6430      Z:    -9.8356

  Electronic Dipole Moment: [e a0]
     X:    -4.5133      Y:    -2.9321      Z:     9.5976

  Dipole Moment: [e a0]
     X:    -0.0127      Y:    -1.2891      Z:    -0.2380     Total:     1.3109

  Dipole Moment: [D]
     X:    -0.0323      Y:    -3.2766      Z:    -0.6048     Total:     3.3321

*** tstop() called on ds3 at Tue Apr 28 10:41:52 2020
Module time:
	user time   =      40.22 seconds =       0.67 minutes
	system time =      17.60 seconds =       0.29 minutes
	total time  =         57 seconds =       0.95 minutes
Total time:
	user time   =      40.22 seconds =       0.67 minutes
	system time =      17.60 seconds =       0.29 minutes
	total time  =         57 seconds =       0.95 minutes
                                     G D M A

                                 by Anthony Stone

                           version 2.2.06, 22 June 2011

               Distributed Multipoles from Gaussian wavefunctions

Starting at 10:41:52 on 28 Apr 2020

Using SCF density matrix from file ./SSI/SSI-094HIE-099THR-1-dimer.test.9645.fchk

                         Distributed Multipole Analysis

Standard DMA

Positions and radii in angstrom
Multipole moments in atomic units, ea_0^k for rank k

C          x = -2.203782  y =  1.514049  z =  0.215192 angstrom
           Maximum rank =  0   Radius =  0.650 angstrom
                   Q00  =  -0.198533

C          x = -1.247782  y =  0.423049  z =  0.599192 angstrom
           Maximum rank =  0   Radius =  0.650 angstrom
                   Q00  =   0.238016

C          x = -1.224782  y = -0.888951  z =  0.241192 angstrom
           Maximum rank =  0   Radius =  0.650 angstrom
                   Q00  =  -0.009404

C          x =  0.463218  y = -0.525951  z =  1.609192 angstrom
           Maximum rank =  0   Radius =  0.650 angstrom
                   Q00  =   0.463589

N          x = -0.189782  y =  0.624049  z =  1.461192 angstrom
           Maximum rank =  0   Radius =  0.650 angstrom
                   Q00  =  -0.768484

N          x = -0.144782  y = -1.458951  z =  0.881192 angstrom
           Maximum rank =  0   Radius =  0.650 angstrom
                   Q00  =  -0.475147

H          x = -2.324782  y =  2.192049  z =  1.052192 angstrom
           Maximum rank =  0   Radius =  0.325 angstrom
                   Q00  =   0.120993

H          x = -3.167782  y =  1.059049  z =  0.024192 angstrom
           Maximum rank =  0   Radius =  0.325 angstrom
                   Q00  =   0.093087

H          x = -1.931782  y = -1.382951  z = -0.413808 angstrom
           Maximum rank =  0   Radius =  0.325 angstrom
                   Q00  =   0.099195

H          x =  1.340218  y = -0.681951  z =  2.227192 angstrom
           Maximum rank =  0   Radius =  0.325 angstrom
                   Q00  =   0.123795

H          x =  0.139218  y = -2.430951  z =  0.829192 angstrom
           Maximum rank =  0   Radius =  0.325 angstrom
                   Q00  =   0.221183

H          x = -1.908712  y =  2.077496  z = -0.682278 angstrom
           Maximum rank =  0   Radius =  0.325 angstrom
                   Q00  =   0.102099

C          x =  1.779218  y =  0.343049  z = -1.598808 angstrom
           Maximum rank =  0   Radius =  0.650 angstrom
                   Q00  =  -0.219816

C          x =  2.421218  y = -0.037951  z = -2.918808 angstrom
           Maximum rank =  0   Radius =  0.650 angstrom
                   Q00  =  -0.238939

H          x =  1.115218  y = -0.447951  z = -1.258808 angstrom
           Maximum rank =  0   Radius =  0.325 angstrom
                   Q00  =   0.073679

H          x =  2.554218  y =  0.496049  z = -0.846808 angstrom
           Maximum rank =  0   Radius =  0.325 angstrom
                   Q00  =   0.071929

H          x =  1.216218  y =  1.266049  z = -1.708808 angstrom
           Maximum rank =  0   Radius =  0.325 angstrom
                   Q00  =   0.081670

H          x =  3.224218  y =  0.666049  z = -3.141808 angstrom
           Maximum rank =  0   Radius =  0.325 angstrom
                   Q00  =   0.076423

H          x =  1.689698  y = -0.018007  z = -3.740078 angstrom
           Maximum rank =  0   Radius =  0.325 angstrom
                   Q00  =   0.076063

H          x =  2.853778  y = -1.044947  z = -2.824738 angstrom
           Maximum rank =  0   Radius =  0.325 angstrom
                   Q00  =   0.068604

Total multipoles referred to origin at
           x =   0.000000,  y =    0.000000,  z =    0.000000 angstrom
                   Q00  =  -0.000000

Finished at 10:41:52 on 28 Apr 2020

  DMA results are available in the Python driver through the
	  variable('DMA DISTRIBUTED MULTIPOLES')
  and
	  variable('DMA TOTAL MULTIPOLES')
  commands.

    Psi4 stopped on: Tuesday, 28 April 2020 10:41AM
    Psi4 wall time for execution: 0:00:56.74

*** Psi4 exiting successfully. Buy a developer a beer!
