                               Psi4 1.3.2 release

  ==> Input File <==

--------------------------------------------------------------------------
import numpy as np
set {scf_type pk
basis cc-pvdz
d_convergence 10
gdma_switch   0
gdma_limit    0
gdma_origin   [ 0.0,  0.0,  0.0 ]
}
molecule test {
    units Angstrom
    0 1
    --
    0 1
    C               -5.146745353334775     0.893494619397250     1.218522634961280
    C               -1.520745353334775     0.216494619397250     0.335522634961280
    C               -0.912745353334775     0.285494619397250     1.581522634961280
    C               -2.890745353334775     0.412494619397250     0.221522634961280
    C               -3.664745353334775     0.671494619397250     1.348522634961280
    C               -1.679745353334775     0.546494619397250     2.711522634961280
    C               -3.049745353334774     0.742494619397250     2.593522634961280
    H               -0.927745353334775     0.017494619397250    -0.547477365038720
    H                0.155254646665225     0.141494619397250     1.670522634961280
    H               -3.353745353334775     0.358494619397250    -0.753477365038720
    H               -1.211745353334775     0.592494619397250     3.684522634961279
    H               -5.647745353334775     0.461494619397250     2.085522634961280
    H               -5.497745353334774     0.359494619397250     0.341522634961280
    H               -3.640745353334775     0.946494619397250     3.475522634961280
    H               -5.425305353334775     1.953904619397250     1.129492634961280
    C                2.890254646665225     0.229494619397250    -3.740477365038720
    C                1.624254646665225    -1.451505380602750    -0.580477365038720
    C                2.625254646665225    -1.129505380602750     0.326522634961280
    C                1.711254646665225    -1.012505380602750    -1.897477365038720
    C                2.796254646665226    -0.251505380602750    -2.317477365038720
    C                3.711254646665225    -0.368505380602750    -0.083477365038720
    C                3.795254646665225     0.069494619397250    -1.400477365038720
    H                0.773254646665225    -2.035505380602750    -0.258477365038720
    H                2.560254646665225    -1.470505380602750     1.351522634961280
    H                0.924254646665225    -1.266505380602750    -2.592477365038720
    H                4.494254646665225    -0.124505380602750     0.617522634961280
    H                3.143254646665225     1.290494619397250    -3.709477365038720
    H                1.920254646665225     0.140494619397250    -4.232477365038720
    H                4.641254646665225     0.667494619397250    -1.709477365038720
    H                3.656845646665225    -0.293535380602750    -4.331047365038721

}
e, wfn = energy('scf', return_wfn=True)
gdma(wfn)
dmavals = variable('DMA DISTRIBUTED MULTIPOLES')
charges = np.array(dmavals)
print(charges)
np.save('SSI-048PHE-058PHE-1-dimer.npy', np.array(charges))--------------------------------------------------------------------------

*** tstart() called on ds3
*** at Tue Apr 28 17:14:48 2020

   => Loading Basis Set <=

    Name: CC-PVDZ
    Role: ORBITAL
    Keyword: BASIS
    atoms 1-7, 16-22  entry C          line   138 file /theoryfs2/ds/metcalf/miniconda2/envs/tf2gpu/share/psi4/basis/cc-pvdz.gbs
    atoms 8-15, 23-30 entry H          line    22 file /theoryfs2/ds/metcalf/miniconda2/envs/tf2gpu/share/psi4/basis/cc-pvdz.gbs

         ---------------------------------------------------------
                                   SCF
               by Justin Turney, Rob Parrish, Andy Simmonett
                          and Daniel G. A. Smith
                              RHF Reference
                        1 Threads,    500 MiB Core
         ---------------------------------------------------------

  ==> Geometry <==

    Molecular point group: c1
    Full point group: C1

    Geometry (in Angstrom), charge = 0, multiplicity = 1:

       Center              X                  Y                   Z               Mass
    ------------   -----------------  -----------------  -----------------  -----------------
         C           -5.146745353335     0.893494619397     1.218522634961    12.000000000000
         C           -1.520745353335     0.216494619397     0.335522634961    12.000000000000
         C           -0.912745353335     0.285494619397     1.581522634961    12.000000000000
         C           -2.890745353335     0.412494619397     0.221522634961    12.000000000000
         C           -3.664745353335     0.671494619397     1.348522634961    12.000000000000
         C           -1.679745353335     0.546494619397     2.711522634961    12.000000000000
         C           -3.049745353335     0.742494619397     2.593522634961    12.000000000000
         H           -0.927745353335     0.017494619397    -0.547477365039     1.007825032230
         H            0.155254646665     0.141494619397     1.670522634961     1.007825032230
         H           -3.353745353335     0.358494619397    -0.753477365039     1.007825032230
         H           -1.211745353335     0.592494619397     3.684522634961     1.007825032230
         H           -5.647745353335     0.461494619397     2.085522634961     1.007825032230
         H           -5.497745353335     0.359494619397     0.341522634961     1.007825032230
         H           -3.640745353335     0.946494619397     3.475522634961     1.007825032230
         H           -5.425305353335     1.953904619397     1.129492634961     1.007825032230
         C            2.890254646665     0.229494619397    -3.740477365039    12.000000000000
         C            1.624254646665    -1.451505380603    -0.580477365039    12.000000000000
         C            2.625254646665    -1.129505380603     0.326522634961    12.000000000000
         C            1.711254646665    -1.012505380603    -1.897477365039    12.000000000000
         C            2.796254646665    -0.251505380603    -2.317477365039    12.000000000000
         C            3.711254646665    -0.368505380603    -0.083477365039    12.000000000000
         C            3.795254646665     0.069494619397    -1.400477365039    12.000000000000
         H            0.773254646665    -2.035505380603    -0.258477365039     1.007825032230
         H            2.560254646665    -1.470505380603     1.351522634961     1.007825032230
         H            0.924254646665    -1.266505380603    -2.592477365039     1.007825032230
         H            4.494254646665    -0.124505380603     0.617522634961     1.007825032230
         H            3.143254646665     1.290494619397    -3.709477365039     1.007825032230
         H            1.920254646665     0.140494619397    -4.232477365039     1.007825032230
         H            4.641254646665     0.667494619397    -1.709477365039     1.007825032230
         H            3.656845646665    -0.293535380603    -4.331047365039     1.007825032230

  Running in c1 symmetry.

  Rotational constants: A =      0.04976  B =      0.00802  C =      0.00724 [cm^-1]
  Rotational constants: A =   1491.90865  B =    240.47535  C =    217.00289 [MHz]
  Nuclear repulsion =  754.112201076128940

  Charge       = 0
  Multiplicity = 1
  Electrons    = 100
  Nalpha       = 50
  Nbeta        = 50

  ==> Algorithm <==

  SCF Algorithm Type is PK.
  DIIS enabled.
  MOM disabled.
  Fractional occupation disabled.
  Guess Type is SAD.
  Energy threshold   = 1.00e-06
  Density threshold  = 1.00e-10
  Integral threshold = 0.00e+00

  ==> Primary Basis <==

  Basis Set: CC-PVDZ
    Blend: CC-PVDZ
    Number of shells: 132
    Number of basis function: 276
    Number of Cartesian functions: 290
    Spherical Harmonics?: true
    Max angular momentum: 2

  ==> Pre-Iterations <==

   -------------------------------------------------------
    Irrep   Nso     Nmo     Nalpha   Nbeta   Ndocc  Nsocc
   -------------------------------------------------------
     A        276     276       0       0       0       0
   -------------------------------------------------------
    Total     276     276      50      50      50       0
   -------------------------------------------------------

  ==> Integral Setup <==

  Using integral reordering PK algorithm.
  Sizing the integral batches needed.
  Building batch lookup table.
   Calculation information:
      Number of atoms:                  30
      Number of AO shells:             132
      Number of primitives:            388
      Number of atomic orbitals:       290
      Number of basis functions:       276

      Integral cutoff                 1.00e-12
      Number of threads:                 1

	Batch   1 pq = [       0,    9405] index = [             0,44231715] size =     44231715
	Batch   2 pq = [    9405,   13301] index = [      44231715,88464951] size =     44233236
	Batch   3 pq = [   13301,   16290] index = [      88464951,132690195] size =     44225244
	Batch   4 pq = [   16290,   18810] index = [     132690195,176917455] size =     44227260
	Batch   5 pq = [   18810,   21030] index = [     176917455,221140965] size =     44223510
	Batch   6 pq = [   21030,   23037] index = [     221140965,265363203] size =     44222238
	Batch   7 pq = [   23037,   24883] index = [     265363203,309594286] size =     44231083
	Batch   8 pq = [   24883,   26601] index = [     309594286,353819901] size =     44225615
	Batch   9 pq = [   26601,   28214] index = [     353819901,398029005] size =     44209104
	Batch  10 pq = [   28214,   29740] index = [     398029005,442248670] size =     44219665
	Batch  11 pq = [   29740,   31191] index = [     442248670,486454836] size =     44206166
	Batch  12 pq = [   31191,   32578] index = [     486454836,530679331] size =     44224495
	Batch  13 pq = [   32578,   33908] index = [     530679331,574893186] size =     44213855
	Batch  14 pq = [   33908,   35188] index = [     574893186,619115266] size =     44222080
	Batch  15 pq = [   35188,   36423] index = [     619115266,663335676] size =     44220410
	Batch  16 pq = [   36423,   37617] index = [     663335676,707538153] size =     44202477
	Batch  17 pq = [   37617,   38226] index = [     707538153,730632651] size =     23094498
  Task number: 67
  Buffer size: 11059200
  Buffer per thread: 2
  We computed 31634572 shell quartets total.
  Whereas there are 38531031 unique shell quartets.

  ==> DiskJK: Disk-Based J/K Matrices <==

    J tasked:                  Yes
    K tasked:                  Yes
    wK tasked:                  No
    Memory [MiB]:              375
    Schwarz Cutoff:          1E-12

    OpenMP threads:              1

  Minimum eigenvalue in the overlap matrix is 2.9290392597E-04.
  Using Symmetric Orthogonalization.

  SCF Guess: Superposition of Atomic Densities via on-the-fly atomic UHF.

  ==> Iterations <==

                        Total Energy        Delta E     RMS |[F,P]|

   @RHF iter SAD:  -538.45148512576509   -5.38451e+02   0.00000e+00
   @RHF iter   1:  -539.22737311002641   -7.75888e-01   2.31264e-03 DIIS
   @RHF iter   2:  -539.48042617392093   -2.53053e-01   9.43392e-04 DIIS
   @RHF iter   3:  -539.51754256209063   -3.71164e-02   2.15607e-04 DIIS
   @RHF iter   4:  -539.52068549078126   -3.14293e-03   4.93641e-05 DIIS
   @RHF iter   5:  -539.52080593177880   -1.20441e-04   1.52640e-05 DIIS
   @RHF iter   6:  -539.52081676943908   -1.08377e-05   4.46106e-06 DIIS
   @RHF iter   7:  -539.52081789325325   -1.12381e-06   1.11465e-06 DIIS
   @RHF iter   8:  -539.52081798227982   -8.90266e-08   2.97054e-07 DIIS
   @RHF iter   9:  -539.52081799442306   -1.21432e-08   1.20150e-07 DIIS
   @RHF iter  10:  -539.52081799684868   -2.42562e-09   6.14946e-08 DIIS
   @RHF iter  11:  -539.52081799771111   -8.62428e-10   2.41673e-08 DIIS
   @RHF iter  12:  -539.52081799784253   -1.31422e-10   1.07966e-08 DIIS
   @RHF iter  13:  -539.52081799786015   -1.76215e-11   3.99098e-09 DIIS
   @RHF iter  14:  -539.52081799786413   -3.97904e-12   1.03796e-09 DIIS
   @RHF iter  15:  -539.52081799786322    9.09495e-13   3.74345e-10 DIIS
   @RHF iter  16:  -539.52081799786754   -4.32010e-12   1.64049e-10 DIIS
   @RHF iter  17:  -539.52081799786299    4.54747e-12   7.37348e-11 DIIS
  Energy and wave function converged.

  ==> Post-Iterations <==

    Orbital Energies [Eh]
    ---------------------

    Doubly Occupied:

       1A    -11.242166     2A    -11.236783     3A    -11.236206
       4A    -11.235870     5A    -11.232013     6A    -11.231604
       7A    -11.231511     8A    -11.230931     9A    -11.230701
      10A    -11.229172    11A    -11.226036    12A    -11.225986
      13A    -11.225689    14A    -11.225065    15A     -1.155998
      16A     -1.150479    17A     -1.046826    18A     -1.041280
      19A     -1.014392    20A     -1.008829    21A     -0.932939
      22A     -0.928201    23A     -0.827373    24A     -0.821075
      25A     -0.797642    26A     -0.792000    27A     -0.694043
      28A     -0.686601    29A     -0.634133    30A     -0.631719
      31A     -0.628243    32A     -0.625202    33A     -0.585388
      34A     -0.579059    35A     -0.577635    36A     -0.574911
      37A     -0.564396    38A     -0.557818    39A     -0.537137
      40A     -0.532717    41A     -0.489981    42A     -0.486829
      43A     -0.484521    44A     -0.482694    45A     -0.480071
      46A     -0.477529    47A     -0.334558    48A     -0.329345
      49A     -0.324207    50A     -0.318190

    Virtual:

      51A      0.132507    52A      0.137772    53A      0.140735
      54A      0.145081    55A      0.176704    56A      0.191812
      57A      0.200382    58A      0.209845    59A      0.215350
      60A      0.233335    61A      0.237088    62A      0.255915
      63A      0.257306    64A      0.261000    65A      0.272162
      66A      0.276074    67A      0.281354    68A      0.293886
      69A      0.296365    70A      0.325761    71A      0.364202
      72A      0.370838    73A      0.377691    74A      0.382324
      75A      0.448943    76A      0.451526    77A      0.466275
      78A      0.469697    79A      0.481757    80A      0.485433
      81A      0.491298    82A      0.503208    83A      0.561682
      84A      0.567002    85A      0.593978    86A      0.603433
      87A      0.631763    88A      0.640602    89A      0.673686
      90A      0.681842    91A      0.687771    92A      0.688910
      93A      0.697816    94A      0.706461    95A      0.718510
      96A      0.721531    97A      0.736487    98A      0.739303
      99A      0.741733   100A      0.743953   101A      0.746078
     102A      0.750181   103A      0.755451   104A      0.759533
     105A      0.766157   106A      0.770890   107A      0.776085
     108A      0.784370   109A      0.802282   110A      0.811125
     111A      0.838964   112A      0.842987   113A      0.855615
     114A      0.862766   115A      0.864932   116A      0.873836
     117A      0.878682   118A      0.885789   119A      0.890757
     120A      0.893305   121A      0.898330   122A      0.904476
     123A      0.916645   124A      0.925567   125A      0.932024
     126A      0.936228   127A      0.939639   128A      0.943856
     129A      0.954477   130A      0.975235   131A      0.987527
     132A      1.008231   133A      1.026464   134A      1.040631
     135A      1.049172   136A      1.062340   137A      1.115281
     138A      1.122947   139A      1.133593   140A      1.146689
     141A      1.154432   142A      1.160460   143A      1.176120
     144A      1.184587   145A      1.195147   146A      1.215659
     147A      1.237775   148A      1.241000   149A      1.248614
     150A      1.254574   151A      1.259186   152A      1.267010
     153A      1.268639   154A      1.280957   155A      1.295896
     156A      1.309756   157A      1.310497   158A      1.314035
     159A      1.324786   160A      1.329385   161A      1.339401
     162A      1.349105   163A      1.413410   164A      1.424164
     165A      1.503377   166A      1.517773   167A      1.526408
     168A      1.535166   169A      1.555958   170A      1.565227
     171A      1.604264   172A      1.619485   173A      1.677202
     174A      1.680809   175A      1.691718   176A      1.705584
     177A      1.733727   178A      1.737777   179A      1.753967
     180A      1.755459   181A      1.762251   182A      1.773964
     183A      1.793734   184A      1.799393   185A      1.812624
     186A      1.816324   187A      1.858505   188A      1.867639
     189A      1.882331   190A      1.891806   191A      1.897585
     192A      1.904744   193A      1.907550   194A      1.916033
     195A      1.916675   196A      1.920604   197A      1.923658
     198A      1.933593   199A      1.946199   200A      1.949365
     201A      1.956720   202A      1.960202   203A      1.971403
     204A      1.978061   205A      1.983617   206A      1.996453
     207A      2.004043   208A      2.008632   209A      2.037885
     210A      2.048168   211A      2.056257   212A      2.071151
     213A      2.075733   214A      2.080194   215A      2.113165
     216A      2.114940   217A      2.138026   218A      2.150604
     219A      2.156580   220A      2.166039   221A      2.169944
     222A      2.176340   223A      2.176515   224A      2.187124
     225A      2.195040   226A      2.204552   227A      2.243201
     228A      2.262833   229A      2.275883   230A      2.284959
     231A      2.290525   232A      2.298114   233A      2.300486
     234A      2.311387   235A      2.318741   236A      2.328881
     237A      2.346761   238A      2.360960   239A      2.456230
     240A      2.472748   241A      2.479706   242A      2.482380
     243A      2.505138   244A      2.515182   245A      2.534927
     246A      2.551060   247A      2.627160   248A      2.628330
     249A      2.732354   250A      2.750328   251A      2.752833
     252A      2.766262   253A      2.769308   254A      2.776882
     255A      2.791080   256A      2.805059   257A      2.809644
     258A      2.822815   259A      2.845826   260A      2.854975
     261A      2.867956   262A      2.885587   263A      2.986614
     264A      2.991758   265A      3.012702   266A      3.018781
     267A      3.029824   268A      3.036648   269A      3.161921
     270A      3.162512   271A      3.203696   272A      3.214924
     273A      3.302054   274A      3.311518   275A      3.976389
     276A      3.983781

    Final Occupation by Irrep:
              A
    DOCC [    50 ]

  @RHF Final Energy:  -539.52081799786299

   => Energetics <=

    Nuclear Repulsion Energy =            754.1122010761289403
    One-Electron Energy =               -2224.5186458304474399
    Two-Electron Energy =                 930.8856267564555083
    Total Energy =                       -539.5208179978629914

Computation Completed

Properties will be evaluated at   0.000000,   0.000000,   0.000000 [a0]

Properties computed using the SCF density matrix

  Nuclear Dipole Moment: [e a0]
     X:    -3.2210      Y:     1.6305      Z:    -3.5420

  Electronic Dipole Moment: [e a0]
     X:     3.2318      Y:    -1.5706      Z:     3.3735

  Dipole Moment: [e a0]
     X:     0.0107      Y:     0.0600      Z:    -0.1685     Total:     0.1792

  Dipole Moment: [D]
     X:     0.0272      Y:     0.1524      Z:    -0.4283     Total:     0.4554

*** tstop() called on ds3 at Tue Apr 28 17:30:40 2020
Module time:
	user time   =     263.71 seconds =       4.40 minutes
	system time =     113.83 seconds =       1.90 minutes
	total time  =        952 seconds =      15.87 minutes
Total time:
	user time   =     263.71 seconds =       4.40 minutes
	system time =     113.83 seconds =       1.90 minutes
	total time  =        952 seconds =      15.87 minutes
                                     G D M A

                                 by Anthony Stone

                           version 2.2.06, 22 June 2011

               Distributed Multipoles from Gaussian wavefunctions

Starting at 17:30:40 on 28 Apr 2020

Using SCF density matrix from file ./SSI/SSI-048PHE-058PHE-1-dimer.test.28984.fchk

                         Distributed Multipole Analysis

Standard DMA

Positions and radii in angstrom
Multipole moments in atomic units, ea_0^k for rank k

C          x = -5.146745  y =  0.893495  z =  1.218523 angstrom
           Maximum rank =  0   Radius =  0.650 angstrom
                   Q00  =  -0.197973

C          x = -1.520745  y =  0.216495  z =  0.335523 angstrom
           Maximum rank =  0   Radius =  0.650 angstrom
                   Q00  =  -0.067257

C          x = -0.912745  y =  0.285495  z =  1.581523 angstrom
           Maximum rank =  0   Radius =  0.650 angstrom
                   Q00  =  -0.087153

C          x = -2.890745  y =  0.412495  z =  0.221523 angstrom
           Maximum rank =  0   Radius =  0.650 angstrom
                   Q00  =   0.008992

C          x = -3.664745  y =  0.671495  z =  1.348523 angstrom
           Maximum rank =  0   Radius =  0.650 angstrom
                   Q00  =  -0.102092

C          x = -1.679745  y =  0.546495  z =  2.711523 angstrom
           Maximum rank =  0   Radius =  0.650 angstrom
                   Q00  =  -0.058782

C          x = -3.049745  y =  0.742495  z =  2.593523 angstrom
           Maximum rank =  0   Radius =  0.650 angstrom
                   Q00  =  -0.093494

H          x = -0.927745  y =  0.017495  z = -0.547477 angstrom
           Maximum rank =  0   Radius =  0.325 angstrom
                   Q00  =   0.066443

H          x =  0.155255  y =  0.141495  z =  1.670523 angstrom
           Maximum rank =  0   Radius =  0.325 angstrom
                   Q00  =   0.064052

H          x = -3.353745  y =  0.358495  z = -0.753477 angstrom
           Maximum rank =  0   Radius =  0.325 angstrom
                   Q00  =   0.052382

H          x = -1.211745  y =  0.592495  z =  3.684523 angstrom
           Maximum rank =  0   Radius =  0.325 angstrom
                   Q00  =   0.061057

H          x = -5.647745  y =  0.461495  z =  2.085523 angstrom
           Maximum rank =  0   Radius =  0.325 angstrom
                   Q00  =   0.096884

H          x = -5.497745  y =  0.359495  z =  0.341523 angstrom
           Maximum rank =  0   Radius =  0.325 angstrom
                   Q00  =   0.096900

H          x = -3.640745  y =  0.946495  z =  3.475523 angstrom
           Maximum rank =  0   Radius =  0.325 angstrom
                   Q00  =   0.054002

H          x = -5.425305  y =  1.953905  z =  1.129493 angstrom
           Maximum rank =  0   Radius =  0.325 angstrom
                   Q00  =   0.104519

C          x =  2.890255  y =  0.229495  z = -3.740477 angstrom
           Maximum rank =  0   Radius =  0.650 angstrom
                   Q00  =  -0.198131

C          x =  1.624255  y = -1.451505  z = -0.580477 angstrom
           Maximum rank =  0   Radius =  0.650 angstrom
                   Q00  =  -0.075771

C          x =  2.625255  y = -1.129505  z =  0.326523 angstrom
           Maximum rank =  0   Radius =  0.650 angstrom
                   Q00  =  -0.088167

C          x =  1.711255  y = -1.012505  z = -1.897477 angstrom
           Maximum rank =  0   Radius =  0.650 angstrom
                   Q00  =  -0.016393

C          x =  2.796255  y = -0.251505  z = -2.317477 angstrom
           Maximum rank =  0   Radius =  0.650 angstrom
                   Q00  =  -0.099032

C          x =  3.711255  y = -0.368505  z = -0.083477 angstrom
           Maximum rank =  0   Radius =  0.650 angstrom
                   Q00  =  -0.074745

C          x =  3.795255  y =  0.069495  z = -1.400477 angstrom
           Maximum rank =  0   Radius =  0.650 angstrom
                   Q00  =  -0.059180

H          x =  0.773255  y = -2.035505  z = -0.258477 angstrom
           Maximum rank =  0   Radius =  0.325 angstrom
                   Q00  =   0.069625

H          x =  2.560255  y = -1.470505  z =  1.351523 angstrom
           Maximum rank =  0   Radius =  0.325 angstrom
                   Q00  =   0.062092

H          x =  0.924255  y = -1.266505  z = -2.592477 angstrom
           Maximum rank =  0   Radius =  0.325 angstrom
                   Q00  =   0.057754

H          x =  4.494255  y = -0.124505  z =  0.617523 angstrom
           Maximum rank =  0   Radius =  0.325 angstrom
                   Q00  =   0.065333

H          x =  3.143255  y =  1.290495  z = -3.709477 angstrom
           Maximum rank =  0   Radius =  0.325 angstrom
                   Q00  =   0.098253

H          x =  1.920255  y =  0.140495  z = -4.232477 angstrom
           Maximum rank =  0   Radius =  0.325 angstrom
                   Q00  =   0.098329

H          x =  4.641255  y =  0.667495  z = -1.709477 angstrom
           Maximum rank =  0   Radius =  0.325 angstrom
                   Q00  =   0.056228

H          x =  3.656846  y = -0.293535  z = -4.331047 angstrom
           Maximum rank =  0   Radius =  0.325 angstrom
                   Q00  =   0.105324

Total multipoles referred to origin at
           x =   0.000000,  y =    0.000000,  z =    0.000000 angstrom
                   Q00  =  -0.000000

Finished at 17:30:40 on 28 Apr 2020

  DMA results are available in the Python driver through the
	  variable('DMA DISTRIBUTED MULTIPOLES')
  and
	  variable('DMA TOTAL MULTIPOLES')
  commands.

    Psi4 stopped on: Tuesday, 28 April 2020 05:30PM
    Psi4 wall time for execution: 0:15:52.17

*** Psi4 exiting successfully. Buy a developer a beer!
