                               Psi4 1.3.2 release

  ==> Input File <==

--------------------------------------------------------------------------
import numpy as np
set {scf_type pk
basis cc-pvdz
d_convergence 10
gdma_switch   0
gdma_limit    0
gdma_origin   [ 0.0,  0.0,  0.0 ]
}
molecule test {
    units Angstrom
    0 1
    --
    0 1
    C                0.627674931478637    -1.991339808675705    -2.431670042104999
    C                0.707674931478637    -3.407339808675705    -1.843670042104999
    C                1.198674931478637    -1.818339808675705    -3.829670042104999
    H               -0.418325068521363    -1.691339808675705    -2.453670042104999
    H                1.146674931478637    -1.300339808675705    -1.765670042104999
    H                1.671674931478637    -3.859339808675705    -2.079670042104999
    H                0.899674931478637    -2.661339808675705    -4.451670042104999
    H               -0.109368068521363    -4.026333808675705    -2.242780042104999
    H                0.614429931478637    -3.384931808675705    -0.747860042104999
    H                0.821332931478637    -0.895313808675705    -4.294040042104999
    H                2.295966931478637    -1.807727808675704    -3.753260042104999
    C                1.890674931478637     1.670660191324295     2.158329957895001
    C               -0.964325068521363     0.413660191324295    -0.070670042104999
    C               -2.122325068521363     0.769660191324295     0.584329957895001
    C                0.307674931478637     0.714660191324295     0.450329957895001
    C                0.468674931478637     1.353660191324295     1.665329957895001
    C               -2.006325068521363     1.401660191324295     1.825329957895001
    C               -0.709325068521363     1.704660191324295     2.358329957895001
    H               -1.045325068521363    -0.083339808675705    -1.025670042104999
    H               -3.092325068521363     0.541660191324295     0.163329957895001
    H                1.186674931478637     0.436660191324295    -0.113670042104999
    H               -2.897325068521363     1.676660191324295     2.374329957895001
    H                2.355674931478637     2.338660191324295     1.431329957895001
    H                2.459674931478637     0.740660191324295     2.167329957895001
    H               -0.678325068521363     2.182660191324295     3.320329957895001
    H                1.948202931478637     2.129440191324295     3.156429957895001

}
e, wfn = energy('scf', return_wfn=True)
gdma(wfn)
dmavals = variable('DMA DISTRIBUTED MULTIPOLES')
charges = np.array(dmavals)
print(charges)
np.save('SSI-132LEU-198PHE-1-dimer.npy', np.array(charges))--------------------------------------------------------------------------

*** tstart() called on ds3
*** at Mon Apr 27 12:40:13 2020

   => Loading Basis Set <=

    Name: CC-PVDZ
    Role: ORBITAL
    Keyword: BASIS
    atoms 1-3, 12-18  entry C          line   138 file /theoryfs2/ds/metcalf/miniconda2/envs/tf2gpu/share/psi4/basis/cc-pvdz.gbs
    atoms 4-11, 19-26 entry H          line    22 file /theoryfs2/ds/metcalf/miniconda2/envs/tf2gpu/share/psi4/basis/cc-pvdz.gbs

         ---------------------------------------------------------
                                   SCF
               by Justin Turney, Rob Parrish, Andy Simmonett
                          and Daniel G. A. Smith
                              RHF Reference
                        1 Threads,    500 MiB Core
         ---------------------------------------------------------

  ==> Geometry <==

    Molecular point group: c1
    Full point group: C1

    Geometry (in Angstrom), charge = 0, multiplicity = 1:

       Center              X                  Y                   Z               Mass
    ------------   -----------------  -----------------  -----------------  -----------------
         C            0.627674931479    -1.991339808676    -2.431670042105    12.000000000000
         C            0.707674931479    -3.407339808676    -1.843670042105    12.000000000000
         C            1.198674931479    -1.818339808676    -3.829670042105    12.000000000000
         H           -0.418325068521    -1.691339808676    -2.453670042105     1.007825032230
         H            1.146674931479    -1.300339808676    -1.765670042105     1.007825032230
         H            1.671674931479    -3.859339808676    -2.079670042105     1.007825032230
         H            0.899674931479    -2.661339808676    -4.451670042105     1.007825032230
         H           -0.109368068521    -4.026333808676    -2.242780042105     1.007825032230
         H            0.614429931479    -3.384931808676    -0.747860042105     1.007825032230
         H            0.821332931479    -0.895313808676    -4.294040042105     1.007825032230
         H            2.295966931479    -1.807727808676    -3.753260042105     1.007825032230
         C            1.890674931479     1.670660191324     2.158329957895    12.000000000000
         C           -0.964325068521     0.413660191324    -0.070670042105    12.000000000000
         C           -2.122325068521     0.769660191324     0.584329957895    12.000000000000
         C            0.307674931479     0.714660191324     0.450329957895    12.000000000000
         C            0.468674931479     1.353660191324     1.665329957895    12.000000000000
         C           -2.006325068521     1.401660191324     1.825329957895    12.000000000000
         C           -0.709325068521     1.704660191324     2.358329957895    12.000000000000
         H           -1.045325068521    -0.083339808676    -1.025670042105     1.007825032230
         H           -3.092325068521     0.541660191324     0.163329957895     1.007825032230
         H            1.186674931479     0.436660191324    -0.113670042105     1.007825032230
         H           -2.897325068521     1.676660191324     2.374329957895     1.007825032230
         H            2.355674931479     2.338660191324     1.431329957895     1.007825032230
         H            2.459674931479     0.740660191324     2.167329957895     1.007825032230
         H           -0.678325068521     2.182660191324     3.320329957895     1.007825032230
         H            1.948202931479     2.129440191324     3.156429957895     1.007825032230

  Running in c1 symmetry.

  Rotational constants: A =      0.06285  B =      0.01584  C =      0.01391 [cm^-1]
  Rotational constants: A =   1884.19316  B =    474.72872  C =    416.88802 [MHz]
  Nuclear repulsion =  473.090032735538557

  Charge       = 0
  Multiplicity = 1
  Electrons    = 76
  Nalpha       = 38
  Nbeta        = 38

  ==> Algorithm <==

  SCF Algorithm Type is PK.
  DIIS enabled.
  MOM disabled.
  Fractional occupation disabled.
  Guess Type is SAD.
  Energy threshold   = 1.00e-06
  Density threshold  = 1.00e-10
  Integral threshold = 0.00e+00

  ==> Primary Basis <==

  Basis Set: CC-PVDZ
    Blend: CC-PVDZ
    Number of shells: 108
    Number of basis function: 220
    Number of Cartesian functions: 230
    Spherical Harmonics?: true
    Max angular momentum: 2

  ==> Pre-Iterations <==

   -------------------------------------------------------
    Irrep   Nso     Nmo     Nalpha   Nbeta   Ndocc  Nsocc
   -------------------------------------------------------
     A        220     220       0       0       0       0
   -------------------------------------------------------
    Total     220     220      38      38      38       0
   -------------------------------------------------------

  ==> Integral Setup <==

  Using integral reordering PK algorithm.
  Sizing the integral batches needed.
  Building batch lookup table.
   Calculation information:
      Number of atoms:                  26
      Number of AO shells:             108
      Number of primitives:            300
      Number of atomic orbitals:       230
      Number of basis functions:       220

      Integral cutoff                 1.00e-12
      Number of threads:                 1

	Batch   1 pq = [       0,    9405] index = [             0,44231715] size =     44231715
	Batch   2 pq = [    9405,   13301] index = [      44231715,88464951] size =     44233236
	Batch   3 pq = [   13301,   16290] index = [      88464951,132690195] size =     44225244
	Batch   4 pq = [   16290,   18810] index = [     132690195,176917455] size =     44227260
	Batch   5 pq = [   18810,   21030] index = [     176917455,221140965] size =     44223510
	Batch   6 pq = [   21030,   23037] index = [     221140965,265363203] size =     44222238
	Batch   7 pq = [   23037,   24310] index = [     265363203,295500205] size =     30137002
  Task number: 27
  Buffer size: 11059200
  Buffer per thread: 2
  We computed 13845928 shell quartets total.
  Whereas there are 17325441 unique shell quartets.

  ==> DiskJK: Disk-Based J/K Matrices <==

    J tasked:                  Yes
    K tasked:                  Yes
    wK tasked:                  No
    Memory [MiB]:              375
    Schwarz Cutoff:          1E-12

    OpenMP threads:              1

  Minimum eigenvalue in the overlap matrix is 3.1556693228E-04.
  Using Symmetric Orthogonalization.

  SCF Guess: Superposition of Atomic Densities via on-the-fly atomic UHF.

  ==> Iterations <==

                        Total Energy        Delta E     RMS |[F,P]|

   @RHF iter SAD:  -386.73123044270380   -3.86731e+02   0.00000e+00
   @RHF iter   1:  -387.77064706608456   -1.03942e+00   2.71280e-03 DIIS
   @RHF iter   2:  -387.98584660062130   -2.15200e-01   1.12840e-03 DIIS
   @RHF iter   3:  -388.01953812769801   -3.36915e-02   2.47482e-04 DIIS
   @RHF iter   4:  -388.02240498232635   -2.86685e-03   4.78864e-05 DIIS
   @RHF iter   5:  -388.02248393936679   -7.89570e-05   1.46444e-05 DIIS
   @RHF iter   6:  -388.02249113576266   -7.19640e-06   4.34870e-06 DIIS
   @RHF iter   7:  -388.02249179163300   -6.55870e-07   1.18559e-06 DIIS
   @RHF iter   8:  -388.02249184637458   -5.47416e-08   2.54087e-07 DIIS
   @RHF iter   9:  -388.02249185097310   -4.59852e-09   1.01337e-07 DIIS
   @RHF iter  10:  -388.02249185159059   -6.17490e-10   4.41290e-08 DIIS
   @RHF iter  11:  -388.02249185177635   -1.85764e-10   1.80891e-08 DIIS
   @RHF iter  12:  -388.02249185182751   -5.11591e-11   7.82416e-09 DIIS
   @RHF iter  13:  -388.02249185183365   -6.13909e-12   3.59850e-09 DIIS
   @RHF iter  14:  -388.02249185183774   -4.09273e-12   8.72938e-10 DIIS
   @RHF iter  15:  -388.02249185183837   -6.25278e-13   2.64696e-10 DIIS
   @RHF iter  16:  -388.02249185183848   -1.13687e-13   1.15212e-10 DIIS
   @RHF iter  17:  -388.02249185183524    3.24007e-12   4.27197e-11 DIIS
  Energy and wave function converged.

  ==> Post-Iterations <==

    Orbital Energies [Eh]
    ---------------------

    Doubly Occupied:

       1A    -11.245536     2A    -11.239587     3A    -11.236156
       4A    -11.234779     5A    -11.232895     6A    -11.230125
       7A    -11.229255     8A    -11.220381     9A    -11.218741
      10A    -11.218517    11A     -1.145558    12A     -1.054151
      13A     -1.042108    14A     -0.999776    15A     -0.932709
      16A     -0.926455    17A     -0.823636    18A     -0.798970
      19A     -0.790035    20A     -0.688716    21A     -0.632112
      22A     -0.625917    23A     -0.624156    24A     -0.595794
      25A     -0.574847    26A     -0.571335    27A     -0.565702
      28A     -0.547528    29A     -0.539249    30A     -0.537209
      31A     -0.485246    32A     -0.483083    33A     -0.479209
      34A     -0.476591    35A     -0.464967    36A     -0.463973
      37A     -0.325544    38A     -0.322795

    Virtual:

      39A      0.132658    40A      0.143722    41A      0.172271
      42A      0.192229    43A      0.201298    44A      0.219800
      45A      0.222721    46A      0.229707    47A      0.242428
      48A      0.256166    49A      0.260650    50A      0.266178
      51A      0.268631    52A      0.279411    53A      0.287445
      54A      0.295215    55A      0.337883    56A      0.351608
      57A      0.364450    58A      0.381563    59A      0.397596
      60A      0.423486    61A      0.456061    62A      0.462364
      63A      0.490078    64A      0.499315    65A      0.566526
      66A      0.580125    67A      0.598077    68A      0.602980
      69A      0.609545    70A      0.623409    71A      0.632241
      72A      0.675047    73A      0.682996    74A      0.695665
      75A      0.719553    76A      0.725506    77A      0.733149
      78A      0.742535    79A      0.746781    80A      0.754496
      81A      0.768365    82A      0.772510    83A      0.790883
      84A      0.805694    85A      0.811721    86A      0.822087
      87A      0.842795    88A      0.858065    89A      0.870653
      90A      0.876750    91A      0.883885    92A      0.885137
      93A      0.889727    94A      0.891510    95A      0.897448
      96A      0.903207    97A      0.915840    98A      0.917646
      99A      0.920705   100A      0.923632   101A      0.932009
     102A      0.945720   103A      0.960558   104A      0.974658
     105A      0.989830   106A      1.024304   107A      1.045656
     108A      1.055326   109A      1.102696   110A      1.105501
     111A      1.118779   112A      1.146538   113A      1.156152
     114A      1.181137   115A      1.197853   116A      1.224439
     117A      1.237304   118A      1.246929   119A      1.251372
     120A      1.269451   121A      1.298203   122A      1.309464
     123A      1.312923   124A      1.331678   125A      1.386653
     126A      1.418101   127A      1.468136   128A      1.478014
     129A      1.522063   130A      1.530639   131A      1.553154
     132A      1.558187   133A      1.619845   134A      1.650502
     135A      1.657873   136A      1.671262   137A      1.679623
     138A      1.686255   139A      1.719129   140A      1.727553
     141A      1.740704   142A      1.762962   143A      1.790485
     144A      1.799300   145A      1.833143   146A      1.841840
     147A      1.848150   148A      1.875193   149A      1.879922
     150A      1.887967   151A      1.909292   152A      1.909874
     153A      1.914104   154A      1.917064   155A      1.928032
     156A      1.942753   157A      1.949748   158A      1.960272
     159A      1.963385   160A      1.969072   161A      1.974187
     162A      1.982791   163A      1.990426   164A      1.997220
     165A      2.010808   166A      2.017087   167A      2.031695
     168A      2.047455   169A      2.049266   170A      2.073953
     171A      2.101001   172A      2.119997   173A      2.148247
     174A      2.153101   175A      2.174997   176A      2.196196
     177A      2.203483   178A      2.205691   179A      2.239519
     180A      2.259261   181A      2.270634   182A      2.274119
     183A      2.288817   184A      2.302572   185A      2.316313
     186A      2.328132   187A      2.343556   188A      2.381405
     189A      2.441237   190A      2.460798   191A      2.477398
     192A      2.505704   193A      2.513952   194A      2.526462
     195A      2.570324   196A      2.617491   197A      2.631630
     198A      2.651139   199A      2.715702   200A      2.745844
     201A      2.755008   202A      2.757571   203A      2.768418
     204A      2.775753   205A      2.780446   206A      2.821371
     207A      2.827979   208A      2.833791   209A      2.850398
     210A      2.903998   211A      2.937634   212A      2.957038
     213A      2.967234   214A      2.999529   215A      3.024001
     216A      3.084513   217A      3.150870   218A      3.180885
     219A      3.284426   220A      3.916162

    Final Occupation by Irrep:
              A
    DOCC [    38 ]

  @RHF Final Energy:  -388.02249185183524

   => Energetics <=

    Nuclear Repulsion Energy =            473.0900327355385571
    One-Electron Energy =               -1460.5783711361473252
    Two-Electron Energy =                 599.4658465487734702
    Total Energy =                       -388.0224918518352979

Computation Completed

Properties will be evaluated at   0.000000,   0.000000,   0.000000 [a0]

Properties computed using the SCF density matrix

  Nuclear Dipole Moment: [e a0]
     X:     6.7113      Y:    -9.0593      Z:    -9.6699

  Electronic Dipole Moment: [e a0]
     X:    -6.5897      Y:     9.0789      Z:     9.7080

  Dipole Moment: [e a0]
     X:     0.1217      Y:     0.0196      Z:     0.0382     Total:     0.1290

  Dipole Moment: [D]
     X:     0.3092      Y:     0.0498      Z:     0.0970     Total:     0.3279

*** tstop() called on ds3 at Mon Apr 27 12:43:07 2020
Module time:
	user time   =     101.19 seconds =       1.69 minutes
	system time =      51.55 seconds =       0.86 minutes
	total time  =        174 seconds =       2.90 minutes
Total time:
	user time   =     101.19 seconds =       1.69 minutes
	system time =      51.55 seconds =       0.86 minutes
	total time  =        174 seconds =       2.90 minutes
                                     G D M A

                                 by Anthony Stone

                           version 2.2.06, 22 June 2011

               Distributed Multipoles from Gaussian wavefunctions

Starting at 12:43:7 on 27 Apr 2020

Using SCF density matrix from file ./SSI/SSI-132LEU-198PHE-1-dimer.test.3670.fchk

                         Distributed Multipole Analysis

Standard DMA

Positions and radii in angstrom
Multipole moments in atomic units, ea_0^k for rank k

C          x =  0.627675  y = -1.991340  z = -2.431670 angstrom
           Maximum rank =  0   Radius =  0.650 angstrom
                   Q00  =  -0.079549

C          x =  0.707675  y = -3.407340  z = -1.843670 angstrom
           Maximum rank =  0   Radius =  0.650 angstrom
                   Q00  =  -0.242541

C          x =  1.198675  y = -1.818340  z = -3.829670 angstrom
           Maximum rank =  0   Radius =  0.650 angstrom
                   Q00  =  -0.234475

H          x = -0.418325  y = -1.691340  z = -2.453670 angstrom
           Maximum rank =  0   Radius =  0.325 angstrom
                   Q00  =   0.037364

H          x =  1.146675  y = -1.300340  z = -1.765670 angstrom
           Maximum rank =  0   Radius =  0.325 angstrom
                   Q00  =   0.039093

H          x =  1.671675  y = -3.859340  z = -2.079670 angstrom
           Maximum rank =  0   Radius =  0.325 angstrom
                   Q00  =   0.075603

H          x =  0.899675  y = -2.661340  z = -4.451670 angstrom
           Maximum rank =  0   Radius =  0.325 angstrom
                   Q00  =   0.075846

H          x = -0.109368  y = -4.026334  z = -2.242780 angstrom
           Maximum rank =  0   Radius =  0.325 angstrom
                   Q00  =   0.080627

H          x =  0.614430  y = -3.384932  z = -0.747860 angstrom
           Maximum rank =  0   Radius =  0.325 angstrom
                   Q00  =   0.087150

H          x =  0.821333  y = -0.895314  z = -4.294040 angstrom
           Maximum rank =  0   Radius =  0.325 angstrom
                   Q00  =   0.084555

H          x =  2.295967  y = -1.807728  z = -3.753260 angstrom
           Maximum rank =  0   Radius =  0.325 angstrom
                   Q00  =   0.076659

C          x =  1.890675  y =  1.670660  z =  2.158330 angstrom
           Maximum rank =  0   Radius =  0.650 angstrom
                   Q00  =  -0.214879

C          x = -0.964325  y =  0.413660  z = -0.070670 angstrom
           Maximum rank =  0   Radius =  0.650 angstrom
                   Q00  =  -0.006155

C          x = -2.122325  y =  0.769660  z =  0.584330 angstrom
           Maximum rank =  0   Radius =  0.650 angstrom
                   Q00  =  -0.081089

C          x =  0.307675  y =  0.714660  z =  0.450330 angstrom
           Maximum rank =  0   Radius =  0.650 angstrom
                   Q00  =  -0.058045

C          x =  0.468675  y =  1.353660  z =  1.665330 angstrom
           Maximum rank =  0   Radius =  0.650 angstrom
                   Q00  =  -0.091307

C          x = -2.006325  y =  1.401660  z =  1.825330 angstrom
           Maximum rank =  0   Radius =  0.650 angstrom
                   Q00  =  -0.089358

C          x = -0.709325  y =  1.704660  z =  2.358330 angstrom
           Maximum rank =  0   Radius =  0.650 angstrom
                   Q00  =  -0.079286

H          x = -1.045325  y = -0.083340  z = -1.025670 angstrom
           Maximum rank =  0   Radius =  0.325 angstrom
                   Q00  =   0.062771

H          x = -3.092325  y =  0.541660  z =  0.163330 angstrom
           Maximum rank =  0   Radius =  0.325 angstrom
                   Q00  =   0.062014

H          x =  1.186675  y =  0.436660  z = -0.113670 angstrom
           Maximum rank =  0   Radius =  0.325 angstrom
                   Q00  =   0.050513

H          x = -2.897325  y =  1.676660  z =  2.374330 angstrom
           Maximum rank =  0   Radius =  0.325 angstrom
                   Q00  =   0.068814

H          x =  2.355675  y =  2.338660  z =  1.431330 angstrom
           Maximum rank =  0   Radius =  0.325 angstrom
                   Q00  =   0.105289

H          x =  2.459675  y =  0.740660  z =  2.167330 angstrom
           Maximum rank =  0   Radius =  0.325 angstrom
                   Q00  =   0.103554

H          x = -0.678325  y =  2.182660  z =  3.320330 angstrom
           Maximum rank =  0   Radius =  0.325 angstrom
                   Q00  =   0.061635

H          x =  1.948203  y =  2.129440  z =  3.156430 angstrom
           Maximum rank =  0   Radius =  0.325 angstrom
                   Q00  =   0.105196

Total multipoles referred to origin at
           x =   0.000000,  y =    0.000000,  z =    0.000000 angstrom
                   Q00  =  -0.000000

Finished at 12:43:7 on 27 Apr 2020

  DMA results are available in the Python driver through the
	  variable('DMA DISTRIBUTED MULTIPOLES')
  and
	  variable('DMA TOTAL MULTIPOLES')
  commands.

    Psi4 stopped on: Monday, 27 April 2020 12:43PM
    Psi4 wall time for execution: 0:02:54.04

*** Psi4 exiting successfully. Buy a developer a beer!
