                               Psi4 1.3.2 release

  ==> Input File <==

--------------------------------------------------------------------------
import numpy as np
set {scf_type pk
basis cc-pvdz
d_convergence 10
gdma_switch   0
gdma_limit    0
gdma_origin   [ 0.0,  0.0,  0.0 ]
}
molecule test {
    units Angstrom
    0 1
    --
    0 1
    C               -1.342543828947260    -1.099446774950000     0.913070707900534
    C               -2.831543828947261    -1.375446774950000     0.632070707900534
    C               -0.638543828947260    -0.407446774950000    -0.230929292099466
    C               -0.948543828947260     0.927553225050000    -0.520929292099466
    C                0.343456171052740    -1.070446774950000    -0.984929292099466
    C               -0.303543828947260     1.602553225050000    -1.571929292099466
    C                0.970456171052740    -0.411446774950000    -2.030929292099465
    C                0.658456171052740     0.918553225050000    -2.322929292099466
    H               -1.270543828947260    -0.484446774950000     1.812070707900534
    H               -0.826543828947260    -2.035446774950000     1.119070707900534
    H               -3.409543828947260    -0.492446774950000     0.910070707900534
    H               -1.698543828947260     1.442553225050000     0.061070707900534
    H                0.600456171052740    -2.098446774950000    -0.766929292099466
    H               -0.552543828947260     2.631553225050000    -1.791929292099466
    H                1.724456171052740    -0.926446774950000    -2.605929292099466
    H                1.174456171052740     1.406553225050000    -3.134929292099466
    H               -3.161991828947260    -2.240155774950000     1.226280707900534
    H               -2.996414828947260    -1.552398774950000    -0.441009292099466
    C                1.937456171052740    -0.227446774950000     2.393070707900534
    C                2.032456171052740     1.254553225050000     2.735070707900535
    H                2.777456171052739    -0.562446774950000     1.798070707900534
    H                1.891456171052740    -0.812446774950000     3.310070707900535
    H                1.046456171052740    -0.411446774950000     1.808070707900534
    H                2.753456171052740     1.381553225050000     3.541070707900534
    H                2.358129171052740     1.824837225050000     1.852620707900535
    H                1.047655171052740     1.601083225050000     3.081600707900535

}
e, wfn = energy('scf', return_wfn=True)
gdma(wfn)
dmavals = variable('DMA DISTRIBUTED MULTIPOLES')
charges = np.array(dmavals)
print(charges)
np.save('SSI-109PHE-182VAL-1-dimer.npy', np.array(charges))--------------------------------------------------------------------------

*** tstart() called on ds3
*** at Mon Apr 27 13:02:12 2020

   => Loading Basis Set <=

    Name: CC-PVDZ
    Role: ORBITAL
    Keyword: BASIS
    atoms 1-8, 19-20  entry C          line   138 file /theoryfs2/ds/metcalf/miniconda2/envs/tf2gpu/share/psi4/basis/cc-pvdz.gbs
    atoms 9-18, 21-26 entry H          line    22 file /theoryfs2/ds/metcalf/miniconda2/envs/tf2gpu/share/psi4/basis/cc-pvdz.gbs

         ---------------------------------------------------------
                                   SCF
               by Justin Turney, Rob Parrish, Andy Simmonett
                          and Daniel G. A. Smith
                              RHF Reference
                        1 Threads,    500 MiB Core
         ---------------------------------------------------------

  ==> Geometry <==

    Molecular point group: c1
    Full point group: C1

    Geometry (in Angstrom), charge = 0, multiplicity = 1:

       Center              X                  Y                   Z               Mass
    ------------   -----------------  -----------------  -----------------  -----------------
         C           -1.342543828947    -1.099446774950     0.913070707901    12.000000000000
         C           -2.831543828947    -1.375446774950     0.632070707901    12.000000000000
         C           -0.638543828947    -0.407446774950    -0.230929292099    12.000000000000
         C           -0.948543828947     0.927553225050    -0.520929292099    12.000000000000
         C            0.343456171053    -1.070446774950    -0.984929292099    12.000000000000
         C           -0.303543828947     1.602553225050    -1.571929292099    12.000000000000
         C            0.970456171053    -0.411446774950    -2.030929292099    12.000000000000
         C            0.658456171053     0.918553225050    -2.322929292099    12.000000000000
         H           -1.270543828947    -0.484446774950     1.812070707901     1.007825032230
         H           -0.826543828947    -2.035446774950     1.119070707901     1.007825032230
         H           -3.409543828947    -0.492446774950     0.910070707901     1.007825032230
         H           -1.698543828947     1.442553225050     0.061070707901     1.007825032230
         H            0.600456171053    -2.098446774950    -0.766929292099     1.007825032230
         H           -0.552543828947     2.631553225050    -1.791929292099     1.007825032230
         H            1.724456171053    -0.926446774950    -2.605929292099     1.007825032230
         H            1.174456171053     1.406553225050    -3.134929292099     1.007825032230
         H           -3.161991828947    -2.240155774950     1.226280707901     1.007825032230
         H           -2.996414828947    -1.552398774950    -0.441009292099     1.007825032230
         C            1.937456171053    -0.227446774950     2.393070707901    12.000000000000
         C            2.032456171053     1.254553225050     2.735070707901    12.000000000000
         H            2.777456171053    -0.562446774950     1.798070707901     1.007825032230
         H            1.891456171053    -0.812446774950     3.310070707901     1.007825032230
         H            1.046456171053    -0.411446774950     1.808070707901     1.007825032230
         H            2.753456171053     1.381553225050     3.541070707901     1.007825032230
         H            2.358129171053     1.824837225050     1.852620707901     1.007825032230
         H            1.047655171053     1.601083225050     3.081600707901     1.007825032230

  Running in c1 symmetry.

  Rotational constants: A =      0.03828  B =      0.03054  C =      0.02184 [cm^-1]
  Rotational constants: A =   1147.69536  B =    915.70078  C =    654.66715 [MHz]
  Nuclear repulsion =  501.317031564710419

  Charge       = 0
  Multiplicity = 1
  Electrons    = 76
  Nalpha       = 38
  Nbeta        = 38

  ==> Algorithm <==

  SCF Algorithm Type is PK.
  DIIS enabled.
  MOM disabled.
  Fractional occupation disabled.
  Guess Type is SAD.
  Energy threshold   = 1.00e-06
  Density threshold  = 1.00e-10
  Integral threshold = 0.00e+00

  ==> Primary Basis <==

  Basis Set: CC-PVDZ
    Blend: CC-PVDZ
    Number of shells: 108
    Number of basis function: 220
    Number of Cartesian functions: 230
    Spherical Harmonics?: true
    Max angular momentum: 2

  ==> Pre-Iterations <==

   -------------------------------------------------------
    Irrep   Nso     Nmo     Nalpha   Nbeta   Ndocc  Nsocc
   -------------------------------------------------------
     A        220     220       0       0       0       0
   -------------------------------------------------------
    Total     220     220      38      38      38       0
   -------------------------------------------------------

  ==> Integral Setup <==

  Using integral reordering PK algorithm.
  Sizing the integral batches needed.
  Building batch lookup table.
   Calculation information:
      Number of atoms:                  26
      Number of AO shells:             108
      Number of primitives:            300
      Number of atomic orbitals:       230
      Number of basis functions:       220

      Integral cutoff                 1.00e-12
      Number of threads:                 1

	Batch   1 pq = [       0,    9405] index = [             0,44231715] size =     44231715
	Batch   2 pq = [    9405,   13301] index = [      44231715,88464951] size =     44233236
	Batch   3 pq = [   13301,   16290] index = [      88464951,132690195] size =     44225244
	Batch   4 pq = [   16290,   18810] index = [     132690195,176917455] size =     44227260
	Batch   5 pq = [   18810,   21030] index = [     176917455,221140965] size =     44223510
	Batch   6 pq = [   21030,   23037] index = [     221140965,265363203] size =     44222238
	Batch   7 pq = [   23037,   24310] index = [     265363203,295500205] size =     30137002
  Task number: 27
  Buffer size: 11059200
  Buffer per thread: 2
  We computed 17356359 shell quartets total.
  Whereas there are 17325441 unique shell quartets.
     0.18 percent of shell quartets recomputed by reordering.

  ==> DiskJK: Disk-Based J/K Matrices <==

    J tasked:                  Yes
    K tasked:                  Yes
    wK tasked:                  No
    Memory [MiB]:              375
    Schwarz Cutoff:          1E-12

    OpenMP threads:              1

  Minimum eigenvalue in the overlap matrix is 3.2490975218E-04.
  Using Symmetric Orthogonalization.

  SCF Guess: Superposition of Atomic Densities via on-the-fly atomic UHF.

  ==> Iterations <==

                        Total Energy        Delta E     RMS |[F,P]|

   @RHF iter SAD:  -386.82847861929935   -3.86828e+02   0.00000e+00
   @RHF iter   1:  -387.77408289927928   -9.45604e-01   2.71220e-03 DIIS
   @RHF iter   2:  -387.98729349532192   -2.13211e-01   1.12351e-03 DIIS
   @RHF iter   3:  -388.02075306739437   -3.34596e-02   2.46180e-04 DIIS
   @RHF iter   4:  -388.02357613851956   -2.82307e-03   5.38811e-05 DIIS
   @RHF iter   5:  -388.02366565298820   -8.95145e-05   2.08149e-05 DIIS
   @RHF iter   6:  -388.02367931351557   -1.36605e-05   4.10280e-06 DIIS
   @RHF iter   7:  -388.02368004646183   -7.32946e-07   1.31834e-06 DIIS
   @RHF iter   8:  -388.02368013250327   -8.60414e-08   4.50318e-07 DIIS
   @RHF iter   9:  -388.02368015634619   -2.38429e-08   2.16425e-07 DIIS
   @RHF iter  10:  -388.02368016376755   -7.42136e-09   1.02973e-07 DIIS
   @RHF iter  11:  -388.02368016520649   -1.43893e-09   2.69792e-08 DIIS
   @RHF iter  12:  -388.02368016527805   -7.15659e-11   1.03469e-08 DIIS
   @RHF iter  13:  -388.02368016528294   -4.88853e-12   4.59819e-09 DIIS
   @RHF iter  14:  -388.02368016528544   -2.50111e-12   1.32857e-09 DIIS
   @RHF iter  15:  -388.02368016528538    5.68434e-14   5.87025e-10 DIIS
   @RHF iter  16:  -388.02368016528453    8.52651e-13   2.62970e-10 DIIS
   @RHF iter  17:  -388.02368016528663   -2.10321e-12   9.60445e-11 DIIS
  Energy and wave function converged.

  ==> Post-Iterations <==

    Orbital Energies [Eh]
    ---------------------

    Doubly Occupied:

       1A    -11.240612     2A    -11.239761     3A    -11.235574
       4A    -11.233320     5A    -11.233146     6A    -11.232355
       7A    -11.230089     8A    -11.224338     9A    -11.212389
      10A    -11.204892    11A     -1.150738    12A     -1.060860
      13A     -1.012989    14A     -1.011498    15A     -0.978925
      16A     -0.862523    17A     -0.830206    18A     -0.823967
      19A     -0.785472    20A     -0.690225    21A     -0.638389
      22A     -0.635446    23A     -0.597774    24A     -0.593315
      25A     -0.588645    26A     -0.587271    27A     -0.578215
      28A     -0.538441    29A     -0.518587    30A     -0.501038
      31A     -0.492978    32A     -0.481689    33A     -0.479507
      34A     -0.475734    35A     -0.473900    36A     -0.467323
      37A     -0.332526    38A     -0.319696

    Virtual:

      39A      0.132555    40A      0.137536    41A      0.174667
      42A      0.195041    43A      0.201666    44A      0.205325
      45A      0.234887    46A      0.238273    47A      0.242415
      48A      0.252753    49A      0.258038    50A      0.263020
      51A      0.266997    52A      0.291281    53A      0.299159
      54A      0.307470    55A      0.324417    56A      0.331823
      57A      0.354371    58A      0.391716    59A      0.406117
      60A      0.423140    61A      0.448922    62A      0.463121
      63A      0.484571    64A      0.491197    65A      0.568666
      66A      0.578156    67A      0.596952    68A      0.602743
      69A      0.612432    70A      0.633225    71A      0.641418
      72A      0.659673    73A      0.666725    74A      0.688253
      75A      0.704911    76A      0.719377    77A      0.726281
      78A      0.735927    79A      0.742189    80A      0.755878
      81A      0.759313    82A      0.771164    83A      0.786702
      84A      0.814624    85A      0.842932    86A      0.853268
      87A      0.857907    88A      0.861671    89A      0.864212
      90A      0.871295    91A      0.888008    92A      0.889059
      93A      0.895247    94A      0.898044    95A      0.908116
      96A      0.910984    97A      0.918971    98A      0.926275
      99A      0.931104   100A      0.937926   101A      0.954202
     102A      0.966485   103A      0.974771   104A      0.990257
     105A      1.003538   106A      1.024194   107A      1.040851
     108A      1.088753   109A      1.116208   110A      1.124216
     111A      1.132846   112A      1.144833   113A      1.153737
     114A      1.160283   115A      1.192997   116A      1.226144
     117A      1.240864   118A      1.247767   119A      1.251234
     120A      1.294657   121A      1.304152   122A      1.315057
     123A      1.317829   124A      1.368547   125A      1.432842
     126A      1.443128   127A      1.468393   128A      1.491473
     129A      1.501550   130A      1.505758   131A      1.520653
     132A      1.592540   133A      1.604116   134A      1.630364
     135A      1.649416   136A      1.686189   137A      1.689244
     138A      1.715579   139A      1.726771   140A      1.744223
     141A      1.761757   142A      1.765825   143A      1.824402
     144A      1.848294   145A      1.853201   146A      1.860396
     147A      1.872536   148A      1.877201   149A      1.889490
     150A      1.905253   151A      1.911774   152A      1.924726
     153A      1.926025   154A      1.932044   155A      1.939086
     156A      1.943476   157A      1.949999   158A      1.957613
     159A      1.960232   160A      1.965356   161A      1.966789
     162A      1.980358   163A      1.987235   164A      1.997736
     165A      2.012516   166A      2.027533   167A      2.028672
     168A      2.070101   169A      2.095189   170A      2.104985
     171A      2.120283   172A      2.143705   173A      2.152059
     174A      2.161320   175A      2.165025   176A      2.167395
     177A      2.169798   178A      2.224209   179A      2.241167
     180A      2.262807   181A      2.270516   182A      2.296099
     183A      2.298200   184A      2.317401   185A      2.332294
     186A      2.347350   187A      2.368064   188A      2.429460
     189A      2.436469   190A      2.452311   191A      2.473095
     192A      2.498921   193A      2.517695   194A      2.555409
     195A      2.566319   196A      2.606008   197A      2.612528
     198A      2.650100   199A      2.740336   200A      2.762102
     201A      2.768346   202A      2.776770   203A      2.777377
     204A      2.792442   205A      2.819744   206A      2.841289
     207A      2.854548   208A      2.858510   209A      2.881129
     210A      2.906761   211A      2.937423   212A      2.961117
     213A      2.982705   214A      2.998968   215A      3.042262
     216A      3.052276   217A      3.163723   218A      3.196975
     219A      3.292830   220A      3.951621

    Final Occupation by Irrep:
              A
    DOCC [    38 ]

  @RHF Final Energy:  -388.02368016528663

   => Energetics <=

    Nuclear Repulsion Energy =            501.3170315647104189
    One-Electron Energy =               -1517.0927185180339620
    Two-Electron Energy =                 627.7520067880369652
    Total Energy =                       -388.0236801652865779

Computation Completed

Properties will be evaluated at   0.000000,   0.000000,   0.000000 [a0]

Properties computed using the SCF density matrix

  Nuclear Dipole Moment: [e a0]
     X:     1.3667      Y:    -1.2450      Z:    11.0428

  Electronic Dipole Moment: [e a0]
     X:    -1.4616      Y:     1.1783      Z:   -11.0239

  Dipole Moment: [e a0]
     X:    -0.0949      Y:    -0.0667      Z:     0.0189     Total:     0.1176

  Dipole Moment: [D]
     X:    -0.2413      Y:    -0.1695      Z:     0.0481     Total:     0.2988

*** tstop() called on ds3 at Mon Apr 27 13:05:07 2020
Module time:
	user time   =     135.13 seconds =       2.25 minutes
	system time =      46.99 seconds =       0.78 minutes
	total time  =        175 seconds =       2.92 minutes
Total time:
	user time   =     135.13 seconds =       2.25 minutes
	system time =      46.99 seconds =       0.78 minutes
	total time  =        175 seconds =       2.92 minutes
                                     G D M A

                                 by Anthony Stone

                           version 2.2.06, 22 June 2011

               Distributed Multipoles from Gaussian wavefunctions

Starting at 13:5:7 on 27 Apr 2020

Using SCF density matrix from file ./SSI/SSI-109PHE-182VAL-1-dimer.test.5076.fchk

                         Distributed Multipole Analysis

Standard DMA

Positions and radii in angstrom
Multipole moments in atomic units, ea_0^k for rank k

C          x = -1.342544  y = -1.099447  z =  0.913071 angstrom
           Maximum rank =  0   Radius =  0.650 angstrom
                   Q00  =  -0.059822

C          x = -2.831544  y = -1.375447  z =  0.632071 angstrom
           Maximum rank =  0   Radius =  0.650 angstrom
                   Q00  =  -0.239443

C          x = -0.638544  y = -0.407447  z = -0.230929 angstrom
           Maximum rank =  0   Radius =  0.650 angstrom
                   Q00  =  -0.109209

C          x = -0.948544  y =  0.927553  z = -0.520929 angstrom
           Maximum rank =  0   Radius =  0.650 angstrom
                   Q00  =  -0.084788

C          x =  0.343456  y = -1.070447  z = -0.984929 angstrom
           Maximum rank =  0   Radius =  0.650 angstrom
                   Q00  =  -0.068761

C          x = -0.303544  y =  1.602553  z = -1.571929 angstrom
           Maximum rank =  0   Radius =  0.650 angstrom
                   Q00  =  -0.073980

C          x =  0.970456  y = -0.411447  z = -2.030929 angstrom
           Maximum rank =  0   Radius =  0.650 angstrom
                   Q00  =  -0.019449

C          x =  0.658456  y =  0.918553  z = -2.322929 angstrom
           Maximum rank =  0   Radius =  0.650 angstrom
                   Q00  =  -0.058175

H          x = -1.270544  y = -0.484447  z =  1.812071 angstrom
           Maximum rank =  0   Radius =  0.325 angstrom
                   Q00  =   0.072398

H          x = -0.826544  y = -2.035447  z =  1.119071 angstrom
           Maximum rank =  0   Radius =  0.325 angstrom
                   Q00  =   0.065838

H          x = -3.409544  y = -0.492447  z =  0.910071 angstrom
           Maximum rank =  0   Radius =  0.325 angstrom
                   Q00  =   0.087147

H          x = -1.698544  y =  1.442553  z =  0.061071 angstrom
           Maximum rank =  0   Radius =  0.325 angstrom
                   Q00  =   0.058361

H          x =  0.600456  y = -2.098447  z = -0.766929 angstrom
           Maximum rank =  0   Radius =  0.325 angstrom
                   Q00  =   0.061247

H          x = -0.552544  y =  2.631553  z = -1.791929 angstrom
           Maximum rank =  0   Radius =  0.325 angstrom
                   Q00  =   0.068871

H          x =  1.724456  y = -0.926447  z = -2.605929 angstrom
           Maximum rank =  0   Radius =  0.325 angstrom
                   Q00  =   0.064505

H          x =  1.174456  y =  1.406553  z = -3.134929 angstrom
           Maximum rank =  0   Radius =  0.325 angstrom
                   Q00  =   0.062275

H          x = -3.161992  y = -2.240156  z =  1.226281 angstrom
           Maximum rank =  0   Radius =  0.325 angstrom
                   Q00  =   0.091749

H          x = -2.996415  y = -1.552399  z = -0.441009 angstrom
           Maximum rank =  0   Radius =  0.325 angstrom
                   Q00  =   0.089348

C          x =  1.937456  y = -0.227447  z =  2.393071 angstrom
           Maximum rank =  0   Radius =  0.650 angstrom
                   Q00  =  -0.229104

C          x =  2.032456  y =  1.254553  z =  2.735071 angstrom
           Maximum rank =  0   Radius =  0.650 angstrom
                   Q00  =  -0.241067

H          x =  2.777456  y = -0.562447  z =  1.798071 angstrom
           Maximum rank =  0   Radius =  0.325 angstrom
                   Q00  =   0.078918

H          x =  1.891456  y = -0.812447  z =  3.310071 angstrom
           Maximum rank =  0   Radius =  0.325 angstrom
                   Q00  =   0.068329

H          x =  1.046456  y = -0.411447  z =  1.808071 angstrom
           Maximum rank =  0   Radius =  0.325 angstrom
                   Q00  =   0.084351

H          x =  2.753456  y =  1.381553  z =  3.541071 angstrom
           Maximum rank =  0   Radius =  0.325 angstrom
                   Q00  =   0.074478

H          x =  2.358129  y =  1.824837  z =  1.852621 angstrom
           Maximum rank =  0   Radius =  0.325 angstrom
                   Q00  =   0.083435

H          x =  1.047655  y =  1.601083  z =  3.081601 angstrom
           Maximum rank =  0   Radius =  0.325 angstrom
                   Q00  =   0.072547

Total multipoles referred to origin at
           x =   0.000000,  y =    0.000000,  z =    0.000000 angstrom
                   Q00  =  -0.000000

Finished at 13:5:7 on 27 Apr 2020

  DMA results are available in the Python driver through the
	  variable('DMA DISTRIBUTED MULTIPOLES')
  and
	  variable('DMA TOTAL MULTIPOLES')
  commands.

    Psi4 stopped on: Monday, 27 April 2020 01:05PM
    Psi4 wall time for execution: 0:02:55.43

*** Psi4 exiting successfully. Buy a developer a beer!
