                               Psi4 1.3.2 release

  ==> Input File <==

--------------------------------------------------------------------------
import numpy as np
set {scf_type pk
basis cc-pvdz
d_convergence 10
gdma_switch   0
gdma_limit    0
gdma_origin   [ 0.0,  0.0,  0.0 ]
}
molecule test {
    units Angstrom
    0 1
    --
    0 1
    C                1.335188494866566     1.022506581491057    -3.682907718024218
    C                1.019188494866565     0.239506581491057    -4.900907718024219
    H                2.389188494866565     1.281506581491057    -3.635907718024219
    H                0.745188494866565     1.939506581491057    -3.679907718024219
    H                1.057188494866566     0.444506581491057    -2.803907718024219
    H                0.989188494866565     0.913506581491056    -5.746907718024219
    H                0.017188494866565    -0.179493418508943    -4.792907718024218
    H                1.733458494866565    -0.579383418508943    -5.071899718024219
    C                1.855188494866566     0.874506581491057     0.148092281975781
    C                2.983188494866565     0.343506581491057     1.032092281975781
    C                0.517188494866566     0.332506581491057     0.579092281975781
    C                0.088188494866565    -0.929493418508944     0.170092281975781
    C               -0.287811505133435     1.048506581491057     1.460092281975781
    C               -1.133811505133435    -1.466493418508943     0.625092281975781
    C               -1.507811505133434     0.530506581491057     1.906092281975781
    C               -1.915811505133435    -0.729493418508944     1.502092281975781
    O               -3.117811505133435    -1.217493418508943     1.954092281975781
    H                1.839188494866565     1.965506581491057     0.181092281975781
    H                2.056188494866565     0.569506581491056    -0.875907718024219
    H                2.982188494866565    -0.746493418508943     0.965092281975781
    H                0.710188494866565    -1.504493418508943    -0.502907718024219
    H                0.000188494866565     2.036506581491056     1.771092281975781
    H               -1.455811505133435    -2.444493418508944     0.298092281975781
    H               -2.132811505133435     1.103506581491057     2.574092281975781
    H               -3.392811505133435    -1.931493418508943     1.376092281975781
    H                2.832608494866566     0.652236581491057     2.077082281975781
    H                3.951918494866566     0.727236581491057     0.679502281975781

}
e, wfn = energy('scf', return_wfn=True)
gdma(wfn)
dmavals = variable('DMA DISTRIBUTED MULTIPOLES')
charges = np.array(dmavals)
print(charges)
np.save('SSI-014ILE-025TYR-1-dimer.npy', np.array(charges))--------------------------------------------------------------------------

*** tstart() called on ds3
*** at Mon Apr 27 07:34:07 2020

   => Loading Basis Set <=

    Name: CC-PVDZ
    Role: ORBITAL
    Keyword: BASIS
    atoms 1-2, 9-16  entry C          line   138 file /theoryfs2/ds/metcalf/miniconda2/envs/tf2gpu/share/psi4/basis/cc-pvdz.gbs
    atoms 3-8, 18-27 entry H          line    22 file /theoryfs2/ds/metcalf/miniconda2/envs/tf2gpu/share/psi4/basis/cc-pvdz.gbs
    atoms 17         entry O          line   198 file /theoryfs2/ds/metcalf/miniconda2/envs/tf2gpu/share/psi4/basis/cc-pvdz.gbs

         ---------------------------------------------------------
                                   SCF
               by Justin Turney, Rob Parrish, Andy Simmonett
                          and Daniel G. A. Smith
                              RHF Reference
                        1 Threads,    500 MiB Core
         ---------------------------------------------------------

  ==> Geometry <==

    Molecular point group: c1
    Full point group: C1

    Geometry (in Angstrom), charge = 0, multiplicity = 1:

       Center              X                  Y                   Z               Mass
    ------------   -----------------  -----------------  -----------------  -----------------
         C            1.335188494867     1.022506581491    -3.682907718024    12.000000000000
         C            1.019188494867     0.239506581491    -4.900907718024    12.000000000000
         H            2.389188494867     1.281506581491    -3.635907718024     1.007825032230
         H            0.745188494867     1.939506581491    -3.679907718024     1.007825032230
         H            1.057188494867     0.444506581491    -2.803907718024     1.007825032230
         H            0.989188494867     0.913506581491    -5.746907718024     1.007825032230
         H            0.017188494867    -0.179493418509    -4.792907718024     1.007825032230
         H            1.733458494867    -0.579383418509    -5.071899718024     1.007825032230
         C            1.855188494867     0.874506581491     0.148092281976    12.000000000000
         C            2.983188494867     0.343506581491     1.032092281976    12.000000000000
         C            0.517188494867     0.332506581491     0.579092281976    12.000000000000
         C            0.088188494867    -0.929493418509     0.170092281976    12.000000000000
         C           -0.287811505133     1.048506581491     1.460092281976    12.000000000000
         C           -1.133811505133    -1.466493418509     0.625092281976    12.000000000000
         C           -1.507811505133     0.530506581491     1.906092281976    12.000000000000
         C           -1.915811505133    -0.729493418509     1.502092281976    12.000000000000
         O           -3.117811505133    -1.217493418509     1.954092281976    15.994914619570
         H            1.839188494867     1.965506581491     0.181092281976     1.007825032230
         H            2.056188494867     0.569506581491    -0.875907718024     1.007825032230
         H            2.982188494867    -0.746493418509     0.965092281976     1.007825032230
         H            0.710188494867    -1.504493418509    -0.502907718024     1.007825032230
         H            0.000188494867     2.036506581491     1.771092281976     1.007825032230
         H           -1.455811505133    -2.444493418509     0.298092281976     1.007825032230
         H           -2.132811505133     1.103506581491     2.574092281976     1.007825032230
         H           -3.392811505133    -1.931493418509     1.376092281976     1.007825032230
         H            2.832608494867     0.652236581491     2.077082281976     1.007825032230
         H            3.951918494867     0.727236581491     0.679502281976     1.007825032230

  Running in c1 symmetry.

  Rotational constants: A =      0.03976  B =      0.01591  C =      0.01274 [cm^-1]
  Rotational constants: A =   1191.87550  B =    476.85735  C =    381.87126 [MHz]
  Nuclear repulsion =  572.640224579373239

  Charge       = 0
  Multiplicity = 1
  Electrons    = 84
  Nalpha       = 42
  Nbeta        = 42

  ==> Algorithm <==

  SCF Algorithm Type is PK.
  DIIS enabled.
  MOM disabled.
  Fractional occupation disabled.
  Guess Type is SAD.
  Energy threshold   = 1.00e-06
  Density threshold  = 1.00e-10
  Integral threshold = 0.00e+00

  ==> Primary Basis <==

  Basis Set: CC-PVDZ
    Blend: CC-PVDZ
    Number of shells: 114
    Number of basis function: 234
    Number of Cartesian functions: 245
    Spherical Harmonics?: true
    Max angular momentum: 2

  ==> Pre-Iterations <==

   -------------------------------------------------------
    Irrep   Nso     Nmo     Nalpha   Nbeta   Ndocc  Nsocc
   -------------------------------------------------------
     A        234     234       0       0       0       0
   -------------------------------------------------------
    Total     234     234      42      42      42       0
   -------------------------------------------------------

  ==> Integral Setup <==

  Using integral reordering PK algorithm.
  Sizing the integral batches needed.
  Building batch lookup table.
   Calculation information:
      Number of atoms:                  27
      Number of AO shells:             114
      Number of primitives:            322
      Number of atomic orbitals:       245
      Number of basis functions:       234

      Integral cutoff                 1.00e-12
      Number of threads:                 1

	Batch   1 pq = [       0,    9405] index = [             0,44231715] size =     44231715
	Batch   2 pq = [    9405,   13301] index = [      44231715,88464951] size =     44233236
	Batch   3 pq = [   13301,   16290] index = [      88464951,132690195] size =     44225244
	Batch   4 pq = [   16290,   18810] index = [     132690195,176917455] size =     44227260
	Batch   5 pq = [   18810,   21030] index = [     176917455,221140965] size =     44223510
	Batch   6 pq = [   21030,   23037] index = [     221140965,265363203] size =     44222238
	Batch   7 pq = [   23037,   24883] index = [     265363203,309594286] size =     44231083
	Batch   8 pq = [   24883,   26601] index = [     309594286,353819901] size =     44225615
	Batch   9 pq = [   26601,   27495] index = [     353819901,378001260] size =     24181359
  Task number: 35
  Buffer size: 11059200
  Buffer per thread: 2
  We computed 18539731 shell quartets total.
  Whereas there are 21487290 unique shell quartets.

  ==> DiskJK: Disk-Based J/K Matrices <==

    J tasked:                  Yes
    K tasked:                  Yes
    wK tasked:                  No
    Memory [MiB]:              375
    Schwarz Cutoff:          1E-12

    OpenMP threads:              1

  Minimum eigenvalue in the overlap matrix is 3.2565233283E-04.
  Using Symmetric Orthogonalization.

  SCF Guess: Superposition of Atomic Densities via on-the-fly atomic UHF.

  ==> Iterations <==

                        Total Energy        Delta E     RMS |[F,P]|

   @RHF iter SAD:  -461.76638544317962   -4.61766e+02   0.00000e+00
   @RHF iter   1:  -462.60376510006461   -8.37380e-01   2.83414e-03 DIIS
   @RHF iter   2:  -462.84581629592378   -2.42051e-01   1.21796e-03 DIIS
   @RHF iter   3:  -462.88660337728453   -4.07871e-02   2.76331e-04 DIIS
   @RHF iter   4:  -462.88992737380460   -3.32400e-03   1.17281e-04 DIIS
   @RHF iter   5:  -462.89036419599751   -4.36822e-04   1.95167e-05 DIIS
   @RHF iter   6:  -462.89038383179673   -1.96358e-05   5.47887e-06 DIIS
   @RHF iter   7:  -462.89038531790794   -1.48611e-06   1.91615e-06 DIIS
   @RHF iter   8:  -462.89038551523993   -1.97332e-07   6.83411e-07 DIIS
   @RHF iter   9:  -462.89038554453890   -2.92990e-08   2.11389e-07 DIIS
   @RHF iter  10:  -462.89038554807723   -3.53833e-09   7.36889e-08 DIIS
   @RHF iter  11:  -462.89038554878209   -7.04858e-10   3.53967e-08 DIIS
   @RHF iter  12:  -462.89038554895046   -1.68370e-10   1.71689e-08 DIIS
   @RHF iter  13:  -462.89038554900714   -5.66729e-11   7.13920e-09 DIIS
   @RHF iter  14:  -462.89038554901560   -8.46967e-12   1.69555e-09 DIIS
   @RHF iter  15:  -462.89038554901595   -3.41061e-13   5.63647e-10 DIIS
   @RHF iter  16:  -462.89038554901731   -1.36424e-12   1.77670e-10 DIIS
   @RHF iter  17:  -462.89038554901663    6.82121e-13   6.42709e-11 DIIS
  Energy and wave function converged.

  ==> Post-Iterations <==

    Orbital Energies [Eh]
    ---------------------

    Doubly Occupied:

       1A    -20.581918     2A    -11.296821     3A    -11.241830
       4A    -11.237523     5A    -11.236457     6A    -11.231691
       7A    -11.229915     8A    -11.226962     9A    -11.221690
      10A    -11.214204    11A    -11.212532    12A     -1.396837
      13A     -1.152137    14A     -1.060099    15A     -1.032068
      16A     -1.015246    17A     -0.977094    18A     -0.858340
      19A     -0.845636    20A     -0.834579    21A     -0.789401
      22A     -0.727705    23A     -0.670854    24A     -0.647186
      25A     -0.616946    26A     -0.606730    27A     -0.604601
      28A     -0.596657    29A     -0.589977    30A     -0.582379
      31A     -0.561489    32A     -0.547664    33A     -0.519486
      34A     -0.510803    35A     -0.497950    36A     -0.485009
      37A     -0.482295    38A     -0.478328    39A     -0.470618
      40A     -0.463540    41A     -0.336093    42A     -0.305685

    Virtual:

      43A      0.126084    44A      0.153848    45A      0.174556
      46A      0.182680    47A      0.195110    48A      0.213467
      49A      0.214743    50A      0.229837    51A      0.240872
      52A      0.247681    53A      0.253730    54A      0.260329
      55A      0.275207    56A      0.290091    57A      0.294367
      58A      0.298876    59A      0.312134    60A      0.334326
      61A      0.347342    62A      0.379105    63A      0.407818
      64A      0.418328    65A      0.425264    66A      0.470496
      67A      0.484431    68A      0.496915    69A      0.514232
      70A      0.578504    71A      0.597499    72A      0.603214
      73A      0.605276    74A      0.623318    75A      0.643031
      76A      0.651502    77A      0.658462    78A      0.671717
      79A      0.683393    80A      0.694337    81A      0.713783
      82A      0.726020    83A      0.735565    84A      0.739355
      85A      0.749481    86A      0.750214    87A      0.765429
      88A      0.800103    89A      0.812098    90A      0.815903
      91A      0.843440    92A      0.854568    93A      0.869551
      94A      0.870753    95A      0.876470    96A      0.883459
      97A      0.889745    98A      0.894230    99A      0.899040
     100A      0.903064   101A      0.906786   102A      0.913174
     103A      0.925699   104A      0.929389   105A      0.943288
     106A      0.944140   107A      0.951834   108A      0.968546
     109A      0.979431   110A      1.000488   111A      1.016695
     112A      1.030043   113A      1.057758   114A      1.085568
     115A      1.117768   116A      1.128688   117A      1.139022
     118A      1.144543   119A      1.162251   120A      1.175921
     121A      1.192058   122A      1.221009   123A      1.242915
     124A      1.248556   125A      1.267062   126A      1.281574
     127A      1.296938   128A      1.306156   129A      1.308180
     130A      1.338158   131A      1.364936   132A      1.376283
     133A      1.417645   134A      1.425377   135A      1.478194
     136A      1.481578   137A      1.498988   138A      1.508398
     139A      1.550049   140A      1.584841   141A      1.605457
     142A      1.616910   143A      1.633350   144A      1.683062
     145A      1.684335   146A      1.690063   147A      1.698306
     148A      1.731565   149A      1.737092   150A      1.779476
     151A      1.794123   152A      1.841363   153A      1.849919
     154A      1.861717   155A      1.865277   156A      1.875482
     157A      1.882034   158A      1.890791   159A      1.897516
     160A      1.903930   161A      1.909162   162A      1.920391
     163A      1.930658   164A      1.940880   165A      1.950888
     166A      1.955742   167A      1.963482   168A      1.973200
     169A      1.975224   170A      1.979393   171A      1.986127
     172A      1.996472   173A      2.006246   174A      2.021896
     175A      2.034915   176A      2.038390   177A      2.062249
     178A      2.065924   179A      2.079779   180A      2.104770
     181A      2.121959   182A      2.131419   183A      2.148432
     184A      2.156313   185A      2.161950   186A      2.199493
     187A      2.227374   188A      2.256655   189A      2.269145
     190A      2.302552   191A      2.312175   192A      2.322465
     193A      2.323342   194A      2.353405   195A      2.359073
     196A      2.447108   197A      2.449728   198A      2.458654
     199A      2.470519   200A      2.477668   201A      2.487469
     202A      2.517787   203A      2.535883   204A      2.543960
     205A      2.566210   206A      2.586809   207A      2.601371
     208A      2.630261   209A      2.633919   210A      2.753433
     211A      2.770355   212A      2.778168   213A      2.788467
     214A      2.799543   215A      2.813842   216A      2.856187
     217A      2.861422   218A      2.863466   219A      2.877913
     220A      2.912994   221A      2.952635   222A      2.961362
     223A      2.985500   224A      3.006955   225A      3.024336
     226A      3.086383   227A      3.174215   228A      3.280435
     229A      3.284151   230A      3.344511   231A      3.566575
     232A      3.685085   233A      3.946064   234A      4.179822

    Final Occupation by Irrep:
              A
    DOCC [    42 ]

  @RHF Final Energy:  -462.89038554901663

   => Energetics <=

    Nuclear Repulsion Energy =            572.6402245793732391
    One-Electron Energy =               -1762.6712681466742652
    Two-Electron Energy =                 727.1406580182842845
    Total Energy =                       -462.8903855490166279

Computation Completed

Properties will be evaluated at   0.000000,   0.000000,   0.000000 [a0]

Properties computed using the SCF density matrix

  Nuclear Dipole Moment: [e a0]
     X:    13.4119      Y:     3.9762      Z:   -16.1039

  Electronic Dipole Moment: [e a0]
     X:   -13.2176      Y:    -4.2121      Z:    15.6172

  Dipole Moment: [e a0]
     X:     0.1942      Y:    -0.2359      Z:    -0.4867     Total:     0.5747

  Dipole Moment: [D]
     X:     0.4937      Y:    -0.5996      Z:    -1.2371     Total:     1.4607

*** tstop() called on ds3 at Mon Apr 27 07:37:58 2020
Module time:
	user time   =     135.87 seconds =       2.26 minutes
	system time =      56.43 seconds =       0.94 minutes
	total time  =        231 seconds =       3.85 minutes
Total time:
	user time   =     135.87 seconds =       2.26 minutes
	system time =      56.43 seconds =       0.94 minutes
	total time  =        231 seconds =       3.85 minutes
                                     G D M A

                                 by Anthony Stone

                           version 2.2.06, 22 June 2011

               Distributed Multipoles from Gaussian wavefunctions

Starting at 7:37:58 on 27 Apr 2020

Using SCF density matrix from file ./SSI/SSI-014ILE-025TYR-1-dimer.test.24670.fchk

                         Distributed Multipole Analysis

Standard DMA

Positions and radii in angstrom
Multipole moments in atomic units, ea_0^k for rank k

C          x =  1.335188  y =  1.022507  z = -3.682908 angstrom
           Maximum rank =  0   Radius =  0.650 angstrom
                   Q00  =  -0.217828

C          x =  1.019188  y =  0.239507  z = -4.900908 angstrom
           Maximum rank =  0   Radius =  0.650 angstrom
                   Q00  =  -0.223930

H          x =  2.389188  y =  1.281507  z = -3.635908 angstrom
           Maximum rank =  0   Radius =  0.325 angstrom
                   Q00  =   0.073437

H          x =  0.745188  y =  1.939507  z = -3.679908 angstrom
           Maximum rank =  0   Radius =  0.325 angstrom
                   Q00  =   0.077635

H          x =  1.057188  y =  0.444507  z = -2.803908 angstrom
           Maximum rank =  0   Radius =  0.325 angstrom
                   Q00  =   0.070684

H          x =  0.989188  y =  0.913507  z = -5.746908 angstrom
           Maximum rank =  0   Radius =  0.325 angstrom
                   Q00  =   0.074744

H          x =  0.017188  y = -0.179493  z = -4.792908 angstrom
           Maximum rank =  0   Radius =  0.325 angstrom
                   Q00  =   0.072746

H          x =  1.733458  y = -0.579383  z = -5.071900 angstrom
           Maximum rank =  0   Radius =  0.325 angstrom
                   Q00  =   0.074534

C          x =  1.855188  y =  0.874507  z =  0.148092 angstrom
           Maximum rank =  0   Radius =  0.650 angstrom
                   Q00  =  -0.034616

C          x =  2.983188  y =  0.343507  z =  1.032092 angstrom
           Maximum rank =  0   Radius =  0.650 angstrom
                   Q00  =  -0.232333

C          x =  0.517188  y =  0.332507  z =  0.579092 angstrom
           Maximum rank =  0   Radius =  0.650 angstrom
                   Q00  =  -0.134491

C          x =  0.088188  y = -0.929493  z =  0.170092 angstrom
           Maximum rank =  0   Radius =  0.650 angstrom
                   Q00  =  -0.042082

C          x = -0.287812  y =  1.048507  z =  1.460092 angstrom
           Maximum rank =  0   Radius =  0.650 angstrom
                   Q00  =   0.036300

C          x = -1.133812  y = -1.466493  z =  0.625092 angstrom
           Maximum rank =  0   Radius =  0.650 angstrom
                   Q00  =  -0.191645

C          x = -1.507812  y =  0.530507  z =  1.906092 angstrom
           Maximum rank =  0   Radius =  0.650 angstrom
                   Q00  =  -0.110962

C          x = -1.915812  y = -0.729493  z =  1.502092 angstrom
           Maximum rank =  0   Radius =  0.650 angstrom
                   Q00  =   0.310412

O          x = -3.117812  y = -1.217493  z =  1.954092 angstrom
           Maximum rank =  0   Radius =  0.650 angstrom
                   Q00  =  -0.666138

H          x =  1.839188  y =  1.965507  z =  0.181092 angstrom
           Maximum rank =  0   Radius =  0.325 angstrom
                   Q00  =   0.066700

H          x =  2.056188  y =  0.569507  z = -0.875908 angstrom
           Maximum rank =  0   Radius =  0.325 angstrom
                   Q00  =   0.068092

H          x =  2.982188  y = -0.746493  z =  0.965092 angstrom
           Maximum rank =  0   Radius =  0.325 angstrom
                   Q00  =   0.080609

H          x =  0.710188  y = -1.504493  z = -0.502908 angstrom
           Maximum rank =  0   Radius =  0.325 angstrom
                   Q00  =   0.067711

H          x =  0.000188  y =  2.036507  z =  1.771092 angstrom
           Maximum rank =  0   Radius =  0.325 angstrom
                   Q00  =   0.062643

H          x = -1.455812  y = -2.444493  z =  0.298092 angstrom
           Maximum rank =  0   Radius =  0.325 angstrom
                   Q00  =   0.074318

H          x = -2.132812  y =  1.103507  z =  2.574092 angstrom
           Maximum rank =  0   Radius =  0.325 angstrom
                   Q00  =   0.080995

H          x = -3.392812  y = -1.931493  z =  1.376092 angstrom
           Maximum rank =  0   Radius =  0.325 angstrom
                   Q00  =   0.400293

H          x =  2.832608  y =  0.652237  z =  2.077082 angstrom
           Maximum rank =  0   Radius =  0.325 angstrom
                   Q00  =   0.082809

H          x =  3.951918  y =  0.727237  z =  0.679502 angstrom
           Maximum rank =  0   Radius =  0.325 angstrom
                   Q00  =   0.079362

Total multipoles referred to origin at
           x =   0.000000,  y =    0.000000,  z =    0.000000 angstrom
                   Q00  =  -0.000000

Finished at 7:37:58 on 27 Apr 2020

  DMA results are available in the Python driver through the
	  variable('DMA DISTRIBUTED MULTIPOLES')
  and
	  variable('DMA TOTAL MULTIPOLES')
  commands.

    Psi4 stopped on: Monday, 27 April 2020 07:37AM
    Psi4 wall time for execution: 0:03:50.86

*** Psi4 exiting successfully. Buy a developer a beer!
