                               Psi4 1.3.2 release

  ==> Input File <==

--------------------------------------------------------------------------
import numpy as np
set {scf_type pk
basis cc-pvdz
d_convergence 10
gdma_switch   0
gdma_limit    0
gdma_origin   [ 0.0,  0.0,  0.0 ]
}
molecule test {
    units Angstrom
    0 1
    --
    0 1
    C               -2.220459798743672    -0.790165434598194     1.344208943191244
    C                0.039540201256327    -0.490165434598194     0.211208943191244
    C               -1.335459798743672    -0.772165434598194     0.114208943191244
    C                0.820540201256327    -0.557165434598194    -0.914791056808756
    C               -1.911459798743673    -1.016165434598194    -1.140791056808756
    C                0.261540201256327    -0.728165434598194    -2.166791056808756
    C               -1.119459798743673    -0.998165434598194    -2.293791056808757
    H                0.488540201256327    -0.297165434598194     1.175208943191244
    H                1.883540201256327    -0.375165434598194    -0.832791056808756
    H               -3.114459798743673    -0.208165434598194     1.118208943191244
    H               -1.713459798743673    -0.295165434598194     2.174208943191243
    H               -2.973459798743673    -1.209165434598194    -1.221791056808756
    H                0.888540201256327    -0.704165434598194    -3.049791056808756
    H               -1.559459798743673    -1.168165434598194    -3.266791056808756
    H               -2.521886798743673    -1.805685434598194     1.640608943191244
    C                2.518540201256327     2.055834565401806     1.308208943191244
    C                2.429540201256327     2.621834565401806     2.722208943191244
    H                2.686540201256327     0.985834565401806     1.328208943191244
    H                1.577540201256328     2.244834565401806     0.787208943191244
    H                3.304540201256327     2.542834565401806     0.730208943191244
    H                2.348540201256327     3.705834565401806     2.644208943191244
    H                3.343552201256327     2.369744565401807     3.279908943191244
    H                1.518868201256327     2.244784565401806     3.210578943191244

}
e, wfn = energy('scf', return_wfn=True)
gdma(wfn)
dmavals = variable('DMA DISTRIBUTED MULTIPOLES')
charges = np.array(dmavals)
print(charges)
np.save('SSI-004PHE-116VAL-1-dimer.npy', np.array(charges))--------------------------------------------------------------------------

*** tstart() called on ds3
*** at Tue Apr 28 10:37:05 2020

   => Loading Basis Set <=

    Name: CC-PVDZ
    Role: ORBITAL
    Keyword: BASIS
    atoms 1-7, 16-17  entry C          line   138 file /theoryfs2/ds/metcalf/miniconda2/envs/tf2gpu/share/psi4/basis/cc-pvdz.gbs
    atoms 8-15, 18-23 entry H          line    22 file /theoryfs2/ds/metcalf/miniconda2/envs/tf2gpu/share/psi4/basis/cc-pvdz.gbs

         ---------------------------------------------------------
                                   SCF
               by Justin Turney, Rob Parrish, Andy Simmonett
                          and Daniel G. A. Smith
                              RHF Reference
                        1 Threads,    500 MiB Core
         ---------------------------------------------------------

  ==> Geometry <==

    Molecular point group: c1
    Full point group: C1

    Geometry (in Angstrom), charge = 0, multiplicity = 1:

       Center              X                  Y                   Z               Mass
    ------------   -----------------  -----------------  -----------------  -----------------
         C           -2.220459798744    -0.790165434598     1.344208943191    12.000000000000
         C            0.039540201256    -0.490165434598     0.211208943191    12.000000000000
         C           -1.335459798744    -0.772165434598     0.114208943191    12.000000000000
         C            0.820540201256    -0.557165434598    -0.914791056809    12.000000000000
         C           -1.911459798744    -1.016165434598    -1.140791056809    12.000000000000
         C            0.261540201256    -0.728165434598    -2.166791056809    12.000000000000
         C           -1.119459798744    -0.998165434598    -2.293791056809    12.000000000000
         H            0.488540201256    -0.297165434598     1.175208943191     1.007825032230
         H            1.883540201256    -0.375165434598    -0.832791056809     1.007825032230
         H           -3.114459798744    -0.208165434598     1.118208943191     1.007825032230
         H           -1.713459798744    -0.295165434598     2.174208943191     1.007825032230
         H           -2.973459798744    -1.209165434598    -1.221791056809     1.007825032230
         H            0.888540201256    -0.704165434598    -3.049791056809     1.007825032230
         H           -1.559459798744    -1.168165434598    -3.266791056809     1.007825032230
         H           -2.521886798744    -1.805685434598     1.640608943191     1.007825032230
         C            2.518540201256     2.055834565402     1.308208943191    12.000000000000
         C            2.429540201256     2.621834565402     2.722208943191    12.000000000000
         H            2.686540201256     0.985834565402     1.328208943191     1.007825032230
         H            1.577540201256     2.244834565402     0.787208943191     1.007825032230
         H            3.304540201256     2.542834565402     0.730208943191     1.007825032230
         H            2.348540201256     3.705834565402     2.644208943191     1.007825032230
         H            3.343552201256     2.369744565402     3.279908943191     1.007825032230
         H            1.518868201256     2.244784565402     3.210578943191     1.007825032230

  Running in c1 symmetry.

  Rotational constants: A =      0.07374  B =      0.02307  C =      0.01829 [cm^-1]
  Rotational constants: A =   2210.80766  B =    691.67597  C =    548.46759 [MHz]
  Nuclear repulsion =  401.672519601693693

  Charge       = 0
  Multiplicity = 1
  Electrons    = 68
  Nalpha       = 34
  Nbeta        = 34

  ==> Algorithm <==

  SCF Algorithm Type is PK.
  DIIS enabled.
  MOM disabled.
  Fractional occupation disabled.
  Guess Type is SAD.
  Energy threshold   = 1.00e-06
  Density threshold  = 1.00e-10
  Integral threshold = 0.00e+00

  ==> Primary Basis <==

  Basis Set: CC-PVDZ
    Blend: CC-PVDZ
    Number of shells: 96
    Number of basis function: 196
    Number of Cartesian functions: 205
    Spherical Harmonics?: true
    Max angular momentum: 2

  ==> Pre-Iterations <==

   -------------------------------------------------------
    Irrep   Nso     Nmo     Nalpha   Nbeta   Ndocc  Nsocc
   -------------------------------------------------------
     A        196     196       0       0       0       0
   -------------------------------------------------------
    Total     196     196      34      34      34       0
   -------------------------------------------------------

  ==> Integral Setup <==

  Using integral reordering PK algorithm.
  Sizing the integral batches needed.
  Building batch lookup table.
   Calculation information:
      Number of atoms:                  23
      Number of AO shells:              96
      Number of primitives:            268
      Number of atomic orbitals:       205
      Number of basis functions:       196

      Integral cutoff                 1.00e-12
      Number of threads:                 1

	Batch   1 pq = [       0,    9405] index = [             0,44231715] size =     44231715
	Batch   2 pq = [    9405,   13301] index = [      44231715,88464951] size =     44233236
	Batch   3 pq = [   13301,   16290] index = [      88464951,132690195] size =     44225244
	Batch   4 pq = [   16290,   18810] index = [     132690195,176917455] size =     44227260
	Batch   5 pq = [   18810,   19306] index = [     176917455,186370471] size =      9453016
  Task number: 17
  Buffer size: 11059200
  Buffer per thread: 2
  We computed 8915779 shell quartets total.
  Whereas there are 10841496 unique shell quartets.

  ==> DiskJK: Disk-Based J/K Matrices <==

    J tasked:                  Yes
    K tasked:                  Yes
    wK tasked:                  No
    Memory [MiB]:              375
    Schwarz Cutoff:          1E-12

    OpenMP threads:              1

  Minimum eigenvalue in the overlap matrix is 3.4923003633E-04.
  Using Symmetric Orthogonalization.

  SCF Guess: Superposition of Atomic Densities via on-the-fly atomic UHF.

  ==> Iterations <==

                        Total Energy        Delta E     RMS |[F,P]|

   @RHF iter SAD:  -347.82467625648644   -3.47825e+02   0.00000e+00
   @RHF iter   1:  -348.76542067642686   -9.40744e-01   2.88829e-03 DIIS
   @RHF iter   2:  -348.95772632481425   -1.92306e-01   1.19260e-03 DIIS
   @RHF iter   3:  -348.98755155025185   -2.98252e-02   2.58214e-04 DIIS
   @RHF iter   4:  -348.99002655731630   -2.47501e-03   5.36773e-05 DIIS
   @RHF iter   5:  -348.99010177332269   -7.52160e-05   1.79436e-05 DIIS
   @RHF iter   6:  -348.99010978597727   -8.01265e-06   4.76407e-06 DIIS
   @RHF iter   7:  -348.99011043664541   -6.50668e-07   1.23920e-06 DIIS
   @RHF iter   8:  -348.99011048821359   -5.15682e-08   3.08288e-07 DIIS
   @RHF iter   9:  -348.99011049443311   -6.21952e-09   1.33223e-07 DIIS
   @RHF iter  10:  -348.99011049578507   -1.35196e-09   6.28215e-08 DIIS
   @RHF iter  11:  -348.99011049625733   -4.72255e-10   2.59204e-08 DIIS
   @RHF iter  12:  -348.99011049633907   -8.17408e-11   1.27919e-08 DIIS
   @RHF iter  13:  -348.99011049635300   -1.39266e-11   3.92625e-09 DIIS
   @RHF iter  14:  -348.99011049635681   -3.80851e-12   1.14102e-09 DIIS
   @RHF iter  15:  -348.99011049635737   -5.68434e-13   3.16567e-10 DIIS
   @RHF iter  16:  -348.99011049635328    4.09273e-12   8.27370e-11 DIIS
  Energy and wave function converged.

  ==> Post-Iterations <==

    Orbital Energies [Eh]
    ---------------------

    Doubly Occupied:

       1A    -11.242952     2A    -11.238855     3A    -11.231921
       4A    -11.231639     5A    -11.230694     6A    -11.229671
       7A    -11.229128     8A    -11.220371     9A    -11.215648
      10A     -1.149808    11A     -1.039791    12A     -1.020341
      13A     -1.012602    14A     -0.928513    15A     -0.837284
      16A     -0.821659    17A     -0.794479    18A     -0.689333
      19A     -0.630268    20A     -0.627897    21A     -0.600969
      22A     -0.599524    23A     -0.583514    24A     -0.575379
      25A     -0.557873    26A     -0.535239    27A     -0.500952
      28A     -0.488974    29A     -0.486714    30A     -0.484236
      31A     -0.482419    32A     -0.478017    33A     -0.333464
      34A     -0.317557

    Virtual:

      35A      0.137093    36A      0.138684    37A      0.169518
      38A      0.196084    39A      0.198447    40A      0.221545
      41A      0.229348    42A      0.241617    43A      0.252760
      44A      0.261853    45A      0.271128    46A      0.274278
      47A      0.279680    48A      0.289293    49A      0.299623
      50A      0.333226    51A      0.361537    52A      0.383429
      53A      0.400041    54A      0.452029    55A      0.459409
      56A      0.480529    57A      0.492158    58A      0.559898
      59A      0.590944    60A      0.600038    61A      0.609788
      62A      0.614738    63A      0.633394    64A      0.673124
      65A      0.688118    66A      0.691273    67A      0.696061
      68A      0.705903    69A      0.720295    70A      0.738308
      71A      0.741015    72A      0.749341    73A      0.757987
      74A      0.772111    75A      0.788220    76A      0.804001
      77A      0.833986    78A      0.845863    79A      0.858826
      80A      0.868300    81A      0.881833    82A      0.885071
      83A      0.891552    84A      0.893124    85A      0.897989
      86A      0.904176    87A      0.907924    88A      0.915843
      89A      0.925229    90A      0.939752    91A      0.951459
      92A      0.959783    93A      0.982660    94A      0.993860
      95A      1.016255    96A      1.051304    97A      1.109288
      98A      1.118913    99A      1.122174   100A      1.141620
     101A      1.162026   102A      1.184725   103A      1.200277
     104A      1.223413   105A      1.237363   106A      1.244766
     107A      1.250221   108A      1.270610   109A      1.307582
     110A      1.312385   111A      1.322008   112A      1.328206
     113A      1.415689   114A      1.477979   115A      1.484111
     116A      1.503537   117A      1.522260   118A      1.555802
     119A      1.584603   120A      1.617288   121A      1.674193
     122A      1.684719   123A      1.692326   124A      1.704168
     125A      1.735387   126A      1.745404   127A      1.756678
     128A      1.786009   129A      1.813033   130A      1.848637
     131A      1.861212   132A      1.871433   133A      1.891293
     134A      1.894403   135A      1.900070   136A      1.907410
     137A      1.918771   138A      1.922882   139A      1.937484
     140A      1.943526   141A      1.946236   142A      1.947496
     143A      1.954217   144A      1.959900   145A      1.966174
     146A      1.971144   147A      1.993187   148A      2.008918
     149A      2.029771   150A      2.051434   151A      2.077892
     152A      2.096181   153A      2.104603   154A      2.122740
     155A      2.139988   156A      2.156075   157A      2.161478
     158A      2.180395   159A      2.195643   160A      2.249807
     161A      2.273288   162A      2.281825   163A      2.293962
     164A      2.298536   165A      2.314891   166A      2.337431
     167A      2.341495   168A      2.445859   169A      2.455099
     170A      2.466145   171A      2.474297   172A      2.516093
     173A      2.527705   174A      2.566422   175A      2.579653
     176A      2.623623   177A      2.733565   178A      2.746883
     179A      2.762530   180A      2.770703   181A      2.784105
     182A      2.796813   183A      2.814650   184A      2.840499
     185A      2.847975   186A      2.854801   187A      2.860276
     188A      2.950289   189A      2.967807   190A      2.973407
     191A      2.980710   192A      3.017097   193A      3.140091
     194A      3.196913   195A      3.293368   196A      3.945101

    Final Occupation by Irrep:
              A
    DOCC [    34 ]

  @RHF Final Energy:  -348.99011049635328

   => Energetics <=

    Nuclear Repulsion Energy =            401.6725196016936934
    One-Electron Energy =               -1266.0298903525460901
    Two-Electron Energy =                 515.3672602544991150
    Total Energy =                       -348.9901104963532816

Computation Completed

Properties will be evaluated at   0.000000,   0.000000,   0.000000 [a0]

Properties computed using the SCF density matrix

  Nuclear Dipole Moment: [e a0]
     X:     5.7724      Y:     7.5288      Z:     9.1098

  Electronic Dipole Moment: [e a0]
     X:    -5.8625      Y:    -7.5054      Z:    -9.0417

  Dipole Moment: [e a0]
     X:    -0.0901      Y:     0.0234      Z:     0.0681     Total:     0.1153

  Dipole Moment: [D]
     X:    -0.2289      Y:     0.0595      Z:     0.1730     Total:     0.2930

*** tstop() called on ds3 at Tue Apr 28 10:38:27 2020
Module time:
	user time   =      59.82 seconds =       1.00 minutes
	system time =      25.29 seconds =       0.42 minutes
	total time  =         82 seconds =       1.37 minutes
Total time:
	user time   =      59.82 seconds =       1.00 minutes
	system time =      25.29 seconds =       0.42 minutes
	total time  =         82 seconds =       1.37 minutes
                                     G D M A

                                 by Anthony Stone

                           version 2.2.06, 22 June 2011

               Distributed Multipoles from Gaussian wavefunctions

Starting at 10:38:27 on 28 Apr 2020

Using SCF density matrix from file ./SSI/SSI-004PHE-116VAL-1-dimer.test.4482.fchk

                         Distributed Multipole Analysis

Standard DMA

Positions and radii in angstrom
Multipole moments in atomic units, ea_0^k for rank k

C          x = -2.220460  y = -0.790165  z =  1.344209 angstrom
           Maximum rank =  0   Radius =  0.650 angstrom
                   Q00  =  -0.201846

C          x =  0.039540  y = -0.490165  z =  0.211209 angstrom
           Maximum rank =  0   Radius =  0.650 angstrom
                   Q00  =  -0.084688

C          x = -1.335460  y = -0.772165  z =  0.114209 angstrom
           Maximum rank =  0   Radius =  0.650 angstrom
                   Q00  =  -0.069880

C          x =  0.820540  y = -0.557165  z = -0.914791 angstrom
           Maximum rank =  0   Radius =  0.650 angstrom
                   Q00  =   0.006464

C          x = -1.911460  y = -1.016165  z = -1.140791 angstrom
           Maximum rank =  0   Radius =  0.650 angstrom
                   Q00  =  -0.096288

C          x =  0.261540  y = -0.728165  z = -2.166791 angstrom
           Maximum rank =  0   Radius =  0.650 angstrom
                   Q00  =  -0.087445

C          x = -1.119460  y = -0.998165  z = -2.293791 angstrom
           Maximum rank =  0   Radius =  0.650 angstrom
                   Q00  =  -0.077716

H          x =  0.488540  y = -0.297165  z =  1.175209 angstrom
           Maximum rank =  0   Radius =  0.325 angstrom
                   Q00  =   0.059764

H          x =  1.883540  y = -0.375165  z = -0.832791 angstrom
           Maximum rank =  0   Radius =  0.325 angstrom
                   Q00  =   0.062336

H          x = -3.114460  y = -0.208165  z =  1.118209 angstrom
           Maximum rank =  0   Radius =  0.325 angstrom
                   Q00  =   0.097004

H          x = -1.713460  y = -0.295165  z =  2.174209 angstrom
           Maximum rank =  0   Radius =  0.325 angstrom
                   Q00  =   0.097115

H          x = -2.973460  y = -1.209165  z = -1.221791 angstrom
           Maximum rank =  0   Radius =  0.325 angstrom
                   Q00  =   0.057679

H          x =  0.888540  y = -0.704165  z = -3.049791 angstrom
           Maximum rank =  0   Radius =  0.325 angstrom
                   Q00  =   0.062586

H          x = -1.559460  y = -1.168165  z = -3.266791 angstrom
           Maximum rank =  0   Radius =  0.325 angstrom
                   Q00  =   0.069454

H          x = -2.521887  y = -1.805685  z =  1.640609 angstrom
           Maximum rank =  0   Radius =  0.325 angstrom
                   Q00  =   0.105011

C          x =  2.518540  y =  2.055835  z =  1.308209 angstrom
           Maximum rank =  0   Radius =  0.650 angstrom
                   Q00  =  -0.237931

C          x =  2.429540  y =  2.621835  z =  2.722209 angstrom
           Maximum rank =  0   Radius =  0.650 angstrom
                   Q00  =  -0.234179

H          x =  2.686540  y =  0.985835  z =  1.328209 angstrom
           Maximum rank =  0   Radius =  0.325 angstrom
                   Q00  =   0.073785

H          x =  1.577540  y =  2.244835  z =  0.787209 angstrom
           Maximum rank =  0   Radius =  0.325 angstrom
                   Q00  =   0.082435

H          x =  3.304540  y =  2.542835  z =  0.730209 angstrom
           Maximum rank =  0   Radius =  0.325 angstrom
                   Q00  =   0.079958

H          x =  2.348540  y =  3.705835  z =  2.644209 angstrom
           Maximum rank =  0   Radius =  0.325 angstrom
                   Q00  =   0.079875

H          x =  3.343552  y =  2.369745  z =  3.279909 angstrom
           Maximum rank =  0   Radius =  0.325 angstrom
                   Q00  =   0.079021

H          x =  1.518868  y =  2.244785  z =  3.210579 angstrom
           Maximum rank =  0   Radius =  0.325 angstrom
                   Q00  =   0.077485

Total multipoles referred to origin at
           x =   0.000000,  y =    0.000000,  z =    0.000000 angstrom
                   Q00  =  -0.000000

Finished at 10:38:27 on 28 Apr 2020

  DMA results are available in the Python driver through the
	  variable('DMA DISTRIBUTED MULTIPOLES')
  and
	  variable('DMA TOTAL MULTIPOLES')
  commands.

    Psi4 stopped on: Tuesday, 28 April 2020 10:38AM
    Psi4 wall time for execution: 0:01:21.86

*** Psi4 exiting successfully. Buy a developer a beer!
