                               Psi4 1.3.2 release

  ==> Input File <==

--------------------------------------------------------------------------
import numpy as np
set {scf_type pk
basis cc-pvdz
d_convergence 10
gdma_switch   0
gdma_limit    0
gdma_origin   [ 0.0,  0.0,  0.0 ]
}
molecule test {
    units Angstrom
    0 1
    --
    0 1
    C                4.156688886100614     2.977816198837212    -2.587321432048924
    C                0.612688886100614     2.774816198837212    -1.338321432048925
    C                1.818688886100613     2.135816198837212    -1.727321432048925
    C                2.757688886100614     3.166816198837211    -2.079321432048925
    C                2.083688886100614     4.338816198837212    -1.907321432048925
    C               -0.402311113899386     0.671816198837212    -0.926321432048925
    C               -0.501311113899386     2.048816198837212    -0.935321432048925
    C                0.765688886100614     0.000816198837212    -1.303321432048925
    C                1.894688886100614     0.730816198837211    -1.711321432048925
    N                0.805688886100614     4.118816198837211    -1.457321432048925
    H               -1.262311113899386     0.092816198837212    -0.628321432048925
    H               -1.410311113899386     2.547816198837212    -0.644321432048925
    H                0.807688886100614    -1.074183801162788    -1.262321432048925
    H                2.803688886100614     0.224816198837212    -2.001321432048925
    H                0.073688886100614     4.831816198837211    -1.383321432048925
    H                2.491688886100614     5.319816198837213    -2.127321432048924
    H                4.172688886100614     3.297816198837212    -3.629321432048925
    H                4.402688886100614     1.914816198837211    -2.571321432048924
    H                4.934448886100614     3.535728198837211    -2.045271432048925
    C               -1.701311113899386    -5.539183801162788     3.277678567951075
    C               -2.249311113899386    -1.588183801162789     1.572678567951075
    C               -1.226311113899386    -2.420183801162789     1.153678567951075
    C               -3.130311113899386    -2.077183801162788     2.531678567951075
    C               -1.058311113899386    -3.715183801162789     1.654678567951075
    C               -2.966311113899386    -3.360183801162788     3.061678567951075
    C               -1.918311113899386    -4.197183801162789     2.644678567951075
    H               -2.352311113899386    -0.587183801162788     1.185678567951075
    H               -0.512311113899386    -2.046183801162788     0.435678567951075
    H               -3.921311113899386    -1.444183801162788     2.898678567951075
    H               -0.222311113899386    -4.312183801162789     1.318678567951075
    H               -3.646311113899386    -3.702183801162789     3.829678567951075
    H               -2.117311113899386    -5.507183801162788     4.285678567951075
    H               -0.627311113899386    -5.680183801162788     3.382678567951075
    H               -2.140704113899386    -6.406387801162788     2.762998567951076

}
e, wfn = energy('scf', return_wfn=True)
gdma(wfn)
dmavals = variable('DMA DISTRIBUTED MULTIPOLES')
charges = np.array(dmavals)
print(charges)
np.save('SSI-030TRP-073PHE-1-dimer.npy', np.array(charges))--------------------------------------------------------------------------

*** tstart() called on ds3
*** at Mon Apr 27 16:57:10 2020

   => Loading Basis Set <=

    Name: CC-PVDZ
    Role: ORBITAL
    Keyword: BASIS
    atoms 1-9, 20-26   entry C          line   138 file /theoryfs2/ds/metcalf/miniconda2/envs/tf2gpu/share/psi4/basis/cc-pvdz.gbs
    atoms 10           entry N          line   168 file /theoryfs2/ds/metcalf/miniconda2/envs/tf2gpu/share/psi4/basis/cc-pvdz.gbs
    atoms 11-19, 27-34 entry H          line    22 file /theoryfs2/ds/metcalf/miniconda2/envs/tf2gpu/share/psi4/basis/cc-pvdz.gbs

         ---------------------------------------------------------
                                   SCF
               by Justin Turney, Rob Parrish, Andy Simmonett
                          and Daniel G. A. Smith
                              RHF Reference
                        1 Threads,    500 MiB Core
         ---------------------------------------------------------

  ==> Geometry <==

    Molecular point group: c1
    Full point group: C1

    Geometry (in Angstrom), charge = 0, multiplicity = 1:

       Center              X                  Y                   Z               Mass
    ------------   -----------------  -----------------  -----------------  -----------------
         C            4.156688886101     2.977816198837    -2.587321432049    12.000000000000
         C            0.612688886101     2.774816198837    -1.338321432049    12.000000000000
         C            1.818688886101     2.135816198837    -1.727321432049    12.000000000000
         C            2.757688886101     3.166816198837    -2.079321432049    12.000000000000
         C            2.083688886101     4.338816198837    -1.907321432049    12.000000000000
         C           -0.402311113899     0.671816198837    -0.926321432049    12.000000000000
         C           -0.501311113899     2.048816198837    -0.935321432049    12.000000000000
         C            0.765688886101     0.000816198837    -1.303321432049    12.000000000000
         C            1.894688886101     0.730816198837    -1.711321432049    12.000000000000
         N            0.805688886101     4.118816198837    -1.457321432049    14.003074004430
         H           -1.262311113899     0.092816198837    -0.628321432049     1.007825032230
         H           -1.410311113899     2.547816198837    -0.644321432049     1.007825032230
         H            0.807688886101    -1.074183801163    -1.262321432049     1.007825032230
         H            2.803688886101     0.224816198837    -2.001321432049     1.007825032230
         H            0.073688886101     4.831816198837    -1.383321432049     1.007825032230
         H            2.491688886101     5.319816198837    -2.127321432049     1.007825032230
         H            4.172688886101     3.297816198837    -3.629321432049     1.007825032230
         H            4.402688886101     1.914816198837    -2.571321432049     1.007825032230
         H            4.934448886101     3.535728198837    -2.045271432049     1.007825032230
         C           -1.701311113899    -5.539183801163     3.277678567951    12.000000000000
         C           -2.249311113899    -1.588183801163     1.572678567951    12.000000000000
         C           -1.226311113899    -2.420183801163     1.153678567951    12.000000000000
         C           -3.130311113899    -2.077183801163     2.531678567951    12.000000000000
         C           -1.058311113899    -3.715183801163     1.654678567951    12.000000000000
         C           -2.966311113899    -3.360183801163     3.061678567951    12.000000000000
         C           -1.918311113899    -4.197183801163     2.644678567951    12.000000000000
         H           -2.352311113899    -0.587183801163     1.185678567951     1.007825032230
         H           -0.512311113899    -2.046183801163     0.435678567951     1.007825032230
         H           -3.921311113899    -1.444183801163     2.898678567951     1.007825032230
         H           -0.222311113899    -4.312183801163     1.318678567951     1.007825032230
         H           -3.646311113899    -3.702183801163     3.829678567951     1.007825032230
         H           -2.117311113899    -5.507183801163     4.285678567951     1.007825032230
         H           -0.627311113899    -5.680183801163     3.382678567951     1.007825032230
         H           -2.140704113899    -6.406387801163     2.762998567951     1.007825032230

  Running in c1 symmetry.

  Rotational constants: A =      0.04602  B =      0.00451  C =      0.00419 [cm^-1]
  Rotational constants: A =   1379.50237  B =    135.19153  C =    125.70506 [MHz]
  Nuclear repulsion = 1008.529017351065590

  Charge       = 0
  Multiplicity = 1
  Electrons    = 120
  Nalpha       = 60
  Nbeta        = 60

  ==> Algorithm <==

  SCF Algorithm Type is PK.
  DIIS enabled.
  MOM disabled.
  Fractional occupation disabled.
  Guess Type is SAD.
  Energy threshold   = 1.00e-06
  Density threshold  = 1.00e-10
  Integral threshold = 0.00e+00

  ==> Primary Basis <==

  Basis Set: CC-PVDZ
    Blend: CC-PVDZ
    Number of shells: 153
    Number of basis function: 323
    Number of Cartesian functions: 340
    Spherical Harmonics?: true
    Max angular momentum: 2

  ==> Pre-Iterations <==

   -------------------------------------------------------
    Irrep   Nso     Nmo     Nalpha   Nbeta   Ndocc  Nsocc
   -------------------------------------------------------
     A        323     323       0       0       0       0
   -------------------------------------------------------
    Total     323     323      60      60      60       0
   -------------------------------------------------------

  ==> Integral Setup <==

  Using integral reordering PK algorithm.
  Sizing the integral batches needed.
  Building batch lookup table.
   Calculation information:
      Number of atoms:                  34
      Number of AO shells:             153
      Number of primitives:            459
      Number of atomic orbitals:       340
      Number of basis functions:       323

      Integral cutoff                 1.00e-12
      Number of threads:                 1

	Batch   1 pq = [       0,    9405] index = [             0,44231715] size =     44231715
	Batch   2 pq = [    9405,   13301] index = [      44231715,88464951] size =     44233236
	Batch   3 pq = [   13301,   16290] index = [      88464951,132690195] size =     44225244
	Batch   4 pq = [   16290,   18810] index = [     132690195,176917455] size =     44227260
	Batch   5 pq = [   18810,   21030] index = [     176917455,221140965] size =     44223510
	Batch   6 pq = [   21030,   23037] index = [     221140965,265363203] size =     44222238
	Batch   7 pq = [   23037,   24883] index = [     265363203,309594286] size =     44231083
	Batch   8 pq = [   24883,   26601] index = [     309594286,353819901] size =     44225615
	Batch   9 pq = [   26601,   28214] index = [     353819901,398029005] size =     44209104
	Batch  10 pq = [   28214,   29740] index = [     398029005,442248670] size =     44219665
	Batch  11 pq = [   29740,   31191] index = [     442248670,486454836] size =     44206166
	Batch  12 pq = [   31191,   32578] index = [     486454836,530679331] size =     44224495
	Batch  13 pq = [   32578,   33908] index = [     530679331,574893186] size =     44213855
	Batch  14 pq = [   33908,   35188] index = [     574893186,619115266] size =     44222080
	Batch  15 pq = [   35188,   36423] index = [     619115266,663335676] size =     44220410
	Batch  16 pq = [   36423,   37617] index = [     663335676,707538153] size =     44202477
	Batch  17 pq = [   37617,   38775] index = [     707538153,751769700] size =     44231547
	Batch  18 pq = [   38775,   39899] index = [     751769700,795985050] size =     44215350
	Batch  19 pq = [   39899,   40992] index = [     795985050,840192528] size =     44207478
	Batch  20 pq = [   40992,   42057] index = [     840192528,884416653] size =     44224125
	Batch  21 pq = [   42057,   43095] index = [     884416653,928611060] size =     44194407
	Batch  22 pq = [   43095,   44109] index = [     928611060,972823995] size =     44212935
	Batch  23 pq = [   44109,   45100] index = [     972823995,1017027550] size =     44203555
	Batch  24 pq = [   45100,   46070] index = [    1017027550,1061245485] size =     44217935
	Batch  25 pq = [   46070,   47020] index = [    1061245485,1105463710] size =     44218225
	Batch  26 pq = [   47020,   47951] index = [    1105463710,1149673176] size =     44209466
	Batch  27 pq = [   47951,   48864] index = [    1149673176,1193869680] size =     44196504
	Batch  28 pq = [   48864,   49761] index = [    1193869680,1238103441] size =     44233761
	Batch  29 pq = [   49761,   50642] index = [    1238103441,1282331403] size =     44227962
	Batch  30 pq = [   50642,   51508] index = [    1282331403,1326562786] size =     44231383
	Batch  31 pq = [   51508,   52326] index = [    1326562786,1369031301] size =     42468515
  Task number: 124
  Buffer size: 11059200
  Buffer per thread: 2
  We computed 52167524 shell quartets total.
  Whereas there are 69401871 unique shell quartets.

  ==> DiskJK: Disk-Based J/K Matrices <==

    J tasked:                  Yes
    K tasked:                  Yes
    wK tasked:                  No
    Memory [MiB]:              375
    Schwarz Cutoff:          1E-12

    OpenMP threads:              1

  Minimum eigenvalue in the overlap matrix is 2.3940771873E-04.
  Using Symmetric Orthogonalization.

  SCF Guess: Superposition of Atomic Densities via on-the-fly atomic UHF.

  ==> Iterations <==

                        Total Energy        Delta E     RMS |[F,P]|

   @RHF iter SAD:  -669.55051496254237   -6.69551e+02   0.00000e+00
   @RHF iter   1:  -669.94429749929668   -3.93783e-01   2.14776e-03 DIIS
   @RHF iter   2:  -670.23598659013487   -2.91689e-01   9.28573e-04 DIIS
   @RHF iter   3:  -670.28391694409845   -4.79304e-02   2.51157e-04 DIIS
   @RHF iter   4:  -670.28848759356401   -4.57065e-03   1.10584e-04 DIIS
   @RHF iter   5:  -670.28919556030337   -7.07967e-04   1.68602e-05 DIIS
   @RHF iter   6:  -670.28922816611373   -3.26058e-05   7.44117e-06 DIIS
   @RHF iter   7:  -670.28923493107288   -6.76496e-06   2.96019e-06 DIIS
   @RHF iter   8:  -670.28923667478523   -1.74371e-06   1.25535e-06 DIIS
   @RHF iter   9:  -670.28923706467140   -3.89886e-07   5.51207e-07 DIIS
   @RHF iter  10:  -670.28923714539314   -8.07217e-08   2.43964e-07 DIIS
   @RHF iter  11:  -670.28923716498093   -1.95878e-08   9.17986e-08 DIIS
   @RHF iter  12:  -670.28923716744066   -2.45973e-09   3.44768e-08 DIIS
   @RHF iter  13:  -670.28923716766747   -2.26805e-10   1.00318e-08 DIIS
   @RHF iter  14:  -670.28923716768725   -1.97815e-11   3.95832e-09 DIIS
   @RHF iter  15:  -670.28923716769236   -5.11591e-12   1.85319e-09 DIIS
   @RHF iter  16:  -670.28923716768509    7.27596e-12   8.22573e-10 DIIS
   @RHF iter  17:  -670.28923716768850   -3.41061e-12   3.84903e-10 DIIS
   @RHF iter  18:  -670.28923716768418    4.32010e-12   1.44779e-10 DIIS
   @RHF iter  19:  -670.28923716769327   -9.09495e-12   5.90778e-11 DIIS
  Energy and wave function converged.

  ==> Post-Iterations <==

    Orbital Energies [Eh]
    ---------------------

    Doubly Occupied:

       1A    -15.603772     2A    -11.263479     3A    -11.263110
       4A    -11.240452     5A    -11.233393     6A    -11.233050
       7A    -11.231015     8A    -11.229581     9A    -11.228983
      10A    -11.228447    11A    -11.228297    12A    -11.227682
      13A    -11.227639    14A    -11.227600    15A    -11.222973
      16A    -11.222477    17A    -11.219108    18A     -1.298097
      19A     -1.148205    20A     -1.127616    21A     -1.074001
      22A     -1.043956    23A     -1.005271    24A     -0.996565
      25A     -0.987011    26A     -0.933211    27A     -0.931086
      28A     -0.840813    29A     -0.821175    30A     -0.802856
      31A     -0.792274    32A     -0.754541    33A     -0.721785
      34A     -0.690216    35A     -0.662265    36A     -0.644041
      37A     -0.627993    38A     -0.626728    39A     -0.604328
      40A     -0.595372    41A     -0.590283    42A     -0.577267
      43A     -0.574281    44A     -0.566860    45A     -0.563549
      46A     -0.553544    47A     -0.539177    48A     -0.532660
      49A     -0.523879    50A     -0.497171    51A     -0.484739
      52A     -0.482271    53A     -0.476841    54A     -0.472750
      55A     -0.461091    56A     -0.373747    57A     -0.326803
      58A     -0.320524    59A     -0.295602    60A     -0.273782

    Virtual:

      61A      0.123864    62A      0.138291    63A      0.142731
      64A      0.167902    65A      0.176276    66A      0.183460
      67A      0.191397    68A      0.200049    69A      0.213252
      70A      0.217659    71A      0.218332    72A      0.230249
      73A      0.242330    74A      0.250290    75A      0.257194
      76A      0.270692    77A      0.277912    78A      0.287351
      79A      0.296951    80A      0.303482    81A      0.331075
      82A      0.364927    83A      0.368260    84A      0.371952
      85A      0.375213    86A      0.382445    87A      0.404375
      88A      0.420882    89A      0.442414    90A      0.454103
      91A      0.465763    92A      0.480463    93A      0.483565
      94A      0.490505    95A      0.508488    96A      0.524315
      97A      0.541321    98A      0.573425    99A      0.595091
     100A      0.596556   101A      0.634805   102A      0.637961
     103A      0.641641   104A      0.654526   105A      0.656693
     106A      0.680213   107A      0.688115   108A      0.696298
     109A      0.702657   110A      0.707708   111A      0.712347
     112A      0.719785   113A      0.728382   114A      0.732263
     115A      0.732869   116A      0.739420   117A      0.743013
     118A      0.746409   119A      0.748063   120A      0.752114
     121A      0.756903   122A      0.758360   123A      0.765683
     124A      0.773593   125A      0.780627   126A      0.788575
     127A      0.789062   128A      0.798838   129A      0.821165
     130A      0.835569   131A      0.843111   132A      0.860783
     133A      0.867884   134A      0.871596   135A      0.876858
     136A      0.878983   137A      0.880574   138A      0.882020
     139A      0.891560   140A      0.898318   141A      0.907399
     142A      0.912755   143A      0.923519   144A      0.930141
     145A      0.936548   146A      0.941038   147A      0.951450
     148A      0.953578   149A      0.962391   150A      0.966872
     151A      0.986500   152A      0.991725   153A      1.003771
     154A      1.013891   155A      1.043494   156A      1.048298
     157A      1.071791   158A      1.082342   159A      1.100226
     160A      1.130260   161A      1.133174   162A      1.140349
     163A      1.148935   164A      1.157109   165A      1.165964
     166A      1.174116   167A      1.176918   168A      1.186158
     169A      1.203364   170A      1.214345   171A      1.225952
     172A      1.235069   173A      1.242354   174A      1.243206
     175A      1.250317   176A      1.255635   177A      1.266627
     178A      1.276827   179A      1.285263   180A      1.299573
     181A      1.300004   182A      1.307590   183A      1.320201
     184A      1.324712   185A      1.336939   186A      1.337278
     187A      1.345819   188A      1.358895   189A      1.371200
     190A      1.423613   191A      1.435848   192A      1.452672
     193A      1.514867   194A      1.520656   195A      1.534708
     196A      1.537828   197A      1.553854   198A      1.562289
     199A      1.600778   200A      1.617998   201A      1.627815
     202A      1.640120   203A      1.666552   204A      1.685704
     205A      1.689510   206A      1.701683   207A      1.702622
     208A      1.736432   209A      1.741745   210A      1.746121
     211A      1.754717   212A      1.761592   213A      1.763060
     214A      1.788105   215A      1.794188   216A      1.807573
     217A      1.811747   218A      1.825213   219A      1.840388
     220A      1.870910   221A      1.874281   222A      1.881416
     223A      1.890819   224A      1.898060   225A      1.902307
     226A      1.903724   227A      1.908500   228A      1.913879
     229A      1.915602   230A      1.927340   231A      1.938472
     232A      1.941984   233A      1.950111   234A      1.962166
     235A      1.967776   236A      1.978951   237A      1.984290
     238A      1.989768   239A      1.994804   240A      2.000061
     241A      2.009141   242A      2.015958   243A      2.018197
     244A      2.046715   245A      2.054353   246A      2.064687
     247A      2.068502   248A      2.074992   249A      2.090349
     250A      2.093757   251A      2.107854   252A      2.117082
     253A      2.129249   254A      2.142807   255A      2.148505
     256A      2.158072   257A      2.164703   258A      2.177555
     259A      2.183179   260A      2.197371   261A      2.213568
     262A      2.219438   263A      2.231351   264A      2.258124
     265A      2.267533   266A      2.278127   267A      2.283019
     268A      2.301658   269A      2.303858   270A      2.307921
     271A      2.315284   272A      2.319723   273A      2.345245
     274A      2.356683   275A      2.362065   276A      2.395496
     277A      2.412143   278A      2.456530   279A      2.468290
     280A      2.472655   281A      2.479934   282A      2.504345
     283A      2.534928   284A      2.548094   285A      2.583921
     286A      2.592802   287A      2.615686   288A      2.629851
     289A      2.659336   290A      2.680212   291A      2.744482
     292A      2.749146   293A      2.761580   294A      2.769433
     295A      2.770627   296A      2.776995   297A      2.782818
     298A      2.794143   299A      2.798387   300A      2.815803
     301A      2.829347   302A      2.857215   303A      2.863239
     304A      2.865140   305A      2.890317   306A      2.929582
     307A      2.975137   308A      2.984284   309A      3.008687
     310A      3.024781   311A      3.037186   312A      3.053697
     313A      3.081453   314A      3.110786   315A      3.153009
     316A      3.199314   317A      3.218017   318A      3.302915
     319A      3.309548   320A      3.359713   321A      3.728327
     322A      3.948870   323A      3.960271

    Final Occupation by Irrep:
              A
    DOCC [    60 ]

  @RHF Final Energy:  -670.28923716769327

   => Energetics <=

    Nuclear Repulsion Energy =           1008.5290173510655904
    One-Electron Energy =               -2908.5419311565869975
    Two-Electron Energy =                1229.7236766378280208
    Total Energy =                       -670.2892371676932726

Computation Completed

Properties will be evaluated at   0.000000,   0.000000,   0.000000 [a0]

Properties computed using the SCF density matrix

  Nuclear Dipole Moment: [e a0]
     X:     1.3796      Y:    -8.4440      Z:     3.5731

  Electronic Dipole Moment: [e a0]
     X:    -1.4452      Y:     9.2018      Z:    -3.6004

  Dipole Moment: [e a0]
     X:    -0.0657      Y:     0.7578      Z:    -0.0273     Total:     0.7612

  Dipole Moment: [D]
     X:    -0.1670      Y:     1.9262      Z:    -0.0695     Total:     1.9347

*** tstop() called on ds3 at Mon Apr 27 17:16:53 2020
Module time:
	user time   =     522.25 seconds =       8.70 minutes
	system time =     236.39 seconds =       3.94 minutes
	total time  =       1183 seconds =      19.72 minutes
Total time:
	user time   =     522.25 seconds =       8.70 minutes
	system time =     236.39 seconds =       3.94 minutes
	total time  =       1183 seconds =      19.72 minutes
                                     G D M A

                                 by Anthony Stone

                           version 2.2.06, 22 June 2011

               Distributed Multipoles from Gaussian wavefunctions

Starting at 17:16:53 on 27 Apr 2020

Using SCF density matrix from file ./SSI/SSI-030TRP-073PHE-1-dimer.test.28593.fchk

                         Distributed Multipole Analysis

Standard DMA

Positions and radii in angstrom
Multipole moments in atomic units, ea_0^k for rank k

C          x =  4.156689  y =  2.977816  z = -2.587321 angstrom
           Maximum rank =  0   Radius =  0.650 angstrom
                   Q00  =  -0.225421

C          x =  0.612689  y =  2.774816  z = -1.338321 angstrom
           Maximum rank =  0   Radius =  0.650 angstrom
                   Q00  =   0.235698

C          x =  1.818689  y =  2.135816  z = -1.727321 angstrom
           Maximum rank =  0   Radius =  0.650 angstrom
                   Q00  =  -0.043690

C          x =  2.757689  y =  3.166816  z = -2.079321 angstrom
           Maximum rank =  0   Radius =  0.650 angstrom
                   Q00  =  -0.116439

C          x =  2.083689  y =  4.338816  z = -1.907321 angstrom
           Maximum rank =  0   Radius =  0.650 angstrom
                   Q00  =   0.070269

C          x = -0.402311  y =  0.671816  z = -0.926321 angstrom
           Maximum rank =  0   Radius =  0.650 angstrom
                   Q00  =  -0.000016

C          x = -0.501311  y =  2.048816  z = -0.935321 angstrom
           Maximum rank =  0   Radius =  0.650 angstrom
                   Q00  =  -0.115475

C          x =  0.765689  y =  0.000816  z = -1.303321 angstrom
           Maximum rank =  0   Radius =  0.650 angstrom
                   Q00  =  -0.110577

C          x =  1.894689  y =  0.730816  z = -1.711321 angstrom
           Maximum rank =  0   Radius =  0.650 angstrom
                   Q00  =  -0.098877

N          x =  0.805689  y =  4.118816  z = -1.457321 angstrom
           Maximum rank =  0   Radius =  0.650 angstrom
                   Q00  =  -0.492132

H          x = -1.262311  y =  0.092816  z = -0.628321 angstrom
           Maximum rank =  0   Radius =  0.325 angstrom
                   Q00  =   0.053107

H          x = -1.410311  y =  2.547816  z = -0.644321 angstrom
           Maximum rank =  0   Radius =  0.325 angstrom
                   Q00  =   0.072133

H          x =  0.807689  y = -1.074184  z = -1.262321 angstrom
           Maximum rank =  0   Radius =  0.325 angstrom
                   Q00  =   0.059750

H          x =  2.803689  y =  0.224816  z = -2.001321 angstrom
           Maximum rank =  0   Radius =  0.325 angstrom
                   Q00  =   0.072307

H          x =  0.073689  y =  4.831816  z = -1.383321 angstrom
           Maximum rank =  0   Radius =  0.325 angstrom
                   Q00  =   0.222773

H          x =  2.491689  y =  5.319816  z = -2.127321 angstrom
           Maximum rank =  0   Radius =  0.325 angstrom
                   Q00  =   0.094933

H          x =  4.172689  y =  3.297816  z = -3.629321 angstrom
           Maximum rank =  0   Radius =  0.325 angstrom
                   Q00  =   0.101150

H          x =  4.402689  y =  1.914816  z = -2.571321 angstrom
           Maximum rank =  0   Radius =  0.325 angstrom
                   Q00  =   0.110659

H          x =  4.934449  y =  3.535728  z = -2.045271 angstrom
           Maximum rank =  0   Radius =  0.325 angstrom
                   Q00  =   0.107068

C          x = -1.701311  y = -5.539184  z =  3.277679 angstrom
           Maximum rank =  0   Radius =  0.650 angstrom
                   Q00  =  -0.209017

C          x = -2.249311  y = -1.588184  z =  1.572679 angstrom
           Maximum rank =  0   Radius =  0.650 angstrom
                   Q00  =  -0.089745

C          x = -1.226311  y = -2.420184  z =  1.153679 angstrom
           Maximum rank =  0   Radius =  0.650 angstrom
                   Q00  =   0.039293

C          x = -3.130311  y = -2.077184  z =  2.531679 angstrom
           Maximum rank =  0   Radius =  0.650 angstrom
                   Q00  =  -0.074197

C          x = -1.058311  y = -3.715184  z =  1.654679 angstrom
           Maximum rank =  0   Radius =  0.650 angstrom
                   Q00  =  -0.094931

C          x = -2.966311  y = -3.360184  z =  3.061679 angstrom
           Maximum rank =  0   Radius =  0.650 angstrom
                   Q00  =  -0.067693

C          x = -1.918311  y = -4.197184  z =  2.644679 angstrom
           Maximum rank =  0   Radius =  0.650 angstrom
                   Q00  =  -0.095039

H          x = -2.352311  y = -0.587184  z =  1.185679 angstrom
           Maximum rank =  0   Radius =  0.325 angstrom
                   Q00  =   0.058434

H          x = -0.512311  y = -2.046184  z =  0.435679 angstrom
           Maximum rank =  0   Radius =  0.325 angstrom
                   Q00  =   0.058237

H          x = -3.921311  y = -1.444184  z =  2.898679 angstrom
           Maximum rank =  0   Radius =  0.325 angstrom
                   Q00  =   0.063438

H          x = -0.222311  y = -4.312184  z =  1.318679 angstrom
           Maximum rank =  0   Radius =  0.325 angstrom
                   Q00  =   0.055526

H          x = -3.646311  y = -3.702184  z =  3.829679 angstrom
           Maximum rank =  0   Radius =  0.325 angstrom
                   Q00  =   0.055926

H          x = -2.117311  y = -5.507184  z =  4.285679 angstrom
           Maximum rank =  0   Radius =  0.325 angstrom
                   Q00  =   0.096623

H          x = -0.627311  y = -5.680184  z =  3.382679 angstrom
           Maximum rank =  0   Radius =  0.325 angstrom
                   Q00  =   0.099243

H          x = -2.140704  y = -6.406388  z =  2.762999 angstrom
           Maximum rank =  0   Radius =  0.325 angstrom
                   Q00  =   0.106684

Total multipoles referred to origin at
           x =   0.000000,  y =    0.000000,  z =    0.000000 angstrom
                   Q00  =  -0.000000

Finished at 17:16:53 on 27 Apr 2020

  DMA results are available in the Python driver through the
	  variable('DMA DISTRIBUTED MULTIPOLES')
  and
	  variable('DMA TOTAL MULTIPOLES')
  commands.

    Psi4 stopped on: Monday, 27 April 2020 05:16PM
    Psi4 wall time for execution: 0:19:43.66

*** Psi4 exiting successfully. Buy a developer a beer!
