                               Psi4 1.3.2 release

  ==> Input File <==

--------------------------------------------------------------------------
import numpy as np
set {scf_type pk
basis cc-pvdz
d_convergence 10
gdma_switch   0
gdma_limit    0
gdma_origin   [ 0.0,  0.0,  0.0 ]
}
molecule test {
    units Angstrom
    0 1
    --
    0 1
    C               -3.793305621285876     0.324617267858972     1.556374981909251
    C               -5.217305621285876     0.523617267858972     1.039374981909251
    H               -3.054305621285876     0.643617267858972     0.822374981909251
    H               -3.654305621285876     0.933617267858972     2.450374981909251
    H               -3.625305621285876    -0.715382732141028     1.835374981909251
    H               -5.916305621285876     0.315617267858972     1.845374981909251
    H               -5.441435621285876    -0.155852732141028     0.203864981909251
    H               -5.351685621285876     1.567717267858972     0.720324981909251
    C               -0.588305621285876    -1.657382732141027     0.711374981909251
    C               -0.906305621285876    -2.882382732141028    -0.149625018090749
    C                0.434694378714124    -0.693382732141028     0.151374981909251
    C                0.113694378714124     0.146617267858972    -0.919625018090749
    C                1.702694378714124    -0.587382732141028     0.733374981909251
    C                1.040694378714124     1.072617267858972    -1.403625018090749
    C                2.632694378714124     0.337617267858972     0.258374981909251
    C                2.298694378714124     1.168617267858972    -0.809625018090749
    O                3.186694378714124     2.088617267858972    -1.264625018090749
    H               -1.508305621285876    -1.105382732141028     0.880374981909251
    H               -0.244305621285876    -2.002382732141028     1.687374981909251
    H                0.018694378714124    -3.440382732141028    -0.284625018090749
    H               -0.872305621285876     0.110617267858972    -1.364625018090749
    H                1.964694378714124    -1.203382732141028     1.580374981909251
    H                0.780694378714124     1.715617267858973    -2.226625018090749
    H                3.608694378714124     0.421617267858972     0.712374981909251
    H                2.821694378714124     2.608617267858972    -1.984625018090749
    H               -1.320055621285876    -2.571692732141028    -1.120335018090749
    H               -1.609255621285876    -3.517862732141028     0.408964981909251

}
e, wfn = energy('scf', return_wfn=True)
gdma(wfn)
dmavals = variable('DMA DISTRIBUTED MULTIPOLES')
charges = np.array(dmavals)
print(charges)
np.save('SSI-098VAL-105TYR-1-dimer.npy', np.array(charges))--------------------------------------------------------------------------

*** tstart() called on ds3
*** at Sun Apr 26 22:07:08 2020

   => Loading Basis Set <=

    Name: CC-PVDZ
    Role: ORBITAL
    Keyword: BASIS
    atoms 1-2, 9-16  entry C          line   138 file /theoryfs2/ds/metcalf/miniconda2/envs/tf2gpu/share/psi4/basis/cc-pvdz.gbs
    atoms 3-8, 18-27 entry H          line    22 file /theoryfs2/ds/metcalf/miniconda2/envs/tf2gpu/share/psi4/basis/cc-pvdz.gbs
    atoms 17         entry O          line   198 file /theoryfs2/ds/metcalf/miniconda2/envs/tf2gpu/share/psi4/basis/cc-pvdz.gbs

         ---------------------------------------------------------
                                   SCF
               by Justin Turney, Rob Parrish, Andy Simmonett
                          and Daniel G. A. Smith
                              RHF Reference
                        1 Threads,    500 MiB Core
         ---------------------------------------------------------

  ==> Geometry <==

    Molecular point group: c1
    Full point group: C1

    Geometry (in Angstrom), charge = 0, multiplicity = 1:

       Center              X                  Y                   Z               Mass
    ------------   -----------------  -----------------  -----------------  -----------------
         C           -3.793305621286     0.324617267859     1.556374981909    12.000000000000
         C           -5.217305621286     0.523617267859     1.039374981909    12.000000000000
         H           -3.054305621286     0.643617267859     0.822374981909     1.007825032230
         H           -3.654305621286     0.933617267859     2.450374981909     1.007825032230
         H           -3.625305621286    -0.715382732141     1.835374981909     1.007825032230
         H           -5.916305621286     0.315617267859     1.845374981909     1.007825032230
         H           -5.441435621286    -0.155852732141     0.203864981909     1.007825032230
         H           -5.351685621286     1.567717267859     0.720324981909     1.007825032230
         C           -0.588305621286    -1.657382732141     0.711374981909    12.000000000000
         C           -0.906305621286    -2.882382732141    -0.149625018091    12.000000000000
         C            0.434694378714    -0.693382732141     0.151374981909    12.000000000000
         C            0.113694378714     0.146617267859    -0.919625018091    12.000000000000
         C            1.702694378714    -0.587382732141     0.733374981909    12.000000000000
         C            1.040694378714     1.072617267859    -1.403625018091    12.000000000000
         C            2.632694378714     0.337617267859     0.258374981909    12.000000000000
         C            2.298694378714     1.168617267859    -0.809625018091    12.000000000000
         O            3.186694378714     2.088617267859    -1.264625018091    15.994914619570
         H           -1.508305621286    -1.105382732141     0.880374981909     1.007825032230
         H           -0.244305621286    -2.002382732141     1.687374981909     1.007825032230
         H            0.018694378714    -3.440382732141    -0.284625018091     1.007825032230
         H           -0.872305621286     0.110617267859    -1.364625018091     1.007825032230
         H            1.964694378714    -1.203382732141     1.580374981909     1.007825032230
         H            0.780694378714     1.715617267859    -2.226625018091     1.007825032230
         H            3.608694378714     0.421617267859     0.712374981909     1.007825032230
         H            2.821694378714     2.608617267859    -1.984625018091     1.007825032230
         H           -1.320055621286    -2.571692732141    -1.120335018091     1.007825032230
         H           -1.609255621286    -3.517862732141     0.408964981909     1.007825032230

  Running in c1 symmetry.

  Rotational constants: A =      0.04753  B =      0.01386  C =      0.01191 [cm^-1]
  Rotational constants: A =   1424.92883  B =    415.61161  C =    357.06271 [MHz]
  Nuclear repulsion =  567.909975654312461

  Charge       = 0
  Multiplicity = 1
  Electrons    = 84
  Nalpha       = 42
  Nbeta        = 42

  ==> Algorithm <==

  SCF Algorithm Type is PK.
  DIIS enabled.
  MOM disabled.
  Fractional occupation disabled.
  Guess Type is SAD.
  Energy threshold   = 1.00e-06
  Density threshold  = 1.00e-10
  Integral threshold = 0.00e+00

  ==> Primary Basis <==

  Basis Set: CC-PVDZ
    Blend: CC-PVDZ
    Number of shells: 114
    Number of basis function: 234
    Number of Cartesian functions: 245
    Spherical Harmonics?: true
    Max angular momentum: 2

  ==> Pre-Iterations <==

   -------------------------------------------------------
    Irrep   Nso     Nmo     Nalpha   Nbeta   Ndocc  Nsocc
   -------------------------------------------------------
     A        234     234       0       0       0       0
   -------------------------------------------------------
    Total     234     234      42      42      42       0
   -------------------------------------------------------

  ==> Integral Setup <==

  Using integral reordering PK algorithm.
  Sizing the integral batches needed.
  Building batch lookup table.
   Calculation information:
      Number of atoms:                  27
      Number of AO shells:             114
      Number of primitives:            322
      Number of atomic orbitals:       245
      Number of basis functions:       234

      Integral cutoff                 1.00e-12
      Number of threads:                 1

	Batch   1 pq = [       0,    9405] index = [             0,44231715] size =     44231715
	Batch   2 pq = [    9405,   13301] index = [      44231715,88464951] size =     44233236
	Batch   3 pq = [   13301,   16290] index = [      88464951,132690195] size =     44225244
	Batch   4 pq = [   16290,   18810] index = [     132690195,176917455] size =     44227260
	Batch   5 pq = [   18810,   21030] index = [     176917455,221140965] size =     44223510
	Batch   6 pq = [   21030,   23037] index = [     221140965,265363203] size =     44222238
	Batch   7 pq = [   23037,   24883] index = [     265363203,309594286] size =     44231083
	Batch   8 pq = [   24883,   26601] index = [     309594286,353819901] size =     44225615
	Batch   9 pq = [   26601,   27495] index = [     353819901,378001260] size =     24181359
  Task number: 35
  Buffer size: 11059200
  Buffer per thread: 2
  We computed 17984929 shell quartets total.
  Whereas there are 21487290 unique shell quartets.

  ==> DiskJK: Disk-Based J/K Matrices <==

    J tasked:                  Yes
    K tasked:                  Yes
    wK tasked:                  No
    Memory [MiB]:              375
    Schwarz Cutoff:          1E-12

    OpenMP threads:              1

  Minimum eigenvalue in the overlap matrix is 3.2843654627E-04.
  Using Symmetric Orthogonalization.

  SCF Guess: Superposition of Atomic Densities via on-the-fly atomic UHF.

  ==> Iterations <==

                        Total Energy        Delta E     RMS |[F,P]|

   @RHF iter SAD:  -461.66415746031532   -4.61664e+02   0.00000e+00
   @RHF iter   1:  -462.61105365071080   -9.46896e-01   2.79782e-03 DIIS
   @RHF iter   2:  -462.85000928849132   -2.38956e-01   1.18106e-03 DIIS
   @RHF iter   3:  -462.88874210215613   -3.87328e-02   2.71305e-04 DIIS
   @RHF iter   4:  -462.89199353073053   -3.25143e-03   1.13914e-04 DIIS
   @RHF iter   5:  -462.89240719363920   -4.13663e-04   1.93891e-05 DIIS
   @RHF iter   6:  -462.89242671899075   -1.95254e-05   5.44201e-06 DIIS
   @RHF iter   7:  -462.89242817347304   -1.45448e-06   1.92299e-06 DIIS
   @RHF iter   8:  -462.89242837016502   -1.96692e-07   6.55033e-07 DIIS
   @RHF iter   9:  -462.89242839719100   -2.70260e-08   2.02677e-07 DIIS
   @RHF iter  10:  -462.89242840009376   -2.90277e-09   7.19816e-08 DIIS
   @RHF iter  11:  -462.89242840067135   -5.77586e-10   3.31157e-08 DIIS
   @RHF iter  12:  -462.89242840080357   -1.32218e-10   1.78614e-08 DIIS
   @RHF iter  13:  -462.89242840085262   -4.90559e-11   7.44799e-09 DIIS
   @RHF iter  14:  -462.89242840085950   -6.87805e-12   1.87547e-09 DIIS
   @RHF iter  15:  -462.89242840086166   -2.16005e-12   6.32021e-10 DIIS
   @RHF iter  16:  -462.89242840086081    8.52651e-13   2.28310e-10 DIIS
   @RHF iter  17:  -462.89242840086149   -6.82121e-13   9.49460e-11 DIIS
  Energy and wave function converged.

  ==> Post-Iterations <==

    Orbital Energies [Eh]
    ---------------------

    Doubly Occupied:

       1A    -20.582818     2A    -11.299208     3A    -11.239832
       4A    -11.238091     5A    -11.232884     6A    -11.230863
       7A    -11.229349     8A    -11.224228     9A    -11.221693
      10A    -11.221139    11A    -11.218789    12A     -1.402727
      13A     -1.148688    14A     -1.055175    15A     -1.020495
      16A     -1.016366    17A     -0.975819    18A     -0.859107
      19A     -0.843409    20A     -0.840020    21A     -0.789497
      22A     -0.732520    23A     -0.670625    24A     -0.644877
      25A     -0.613199    26A     -0.601487    27A     -0.599036
      28A     -0.595250    29A     -0.585996    30A     -0.584433
      31A     -0.570426    32A     -0.544998    33A     -0.517463
      34A     -0.504868    35A     -0.496160    36A     -0.489939
      37A     -0.486498    38A     -0.478226    39A     -0.469212
      40A     -0.459998    41A     -0.337396    42A     -0.299358

    Virtual:

      43A      0.129192    44A      0.152387    45A      0.172951
      46A      0.180360    47A      0.196611    48A      0.208507
      49A      0.214061    50A      0.233175    51A      0.241673
      52A      0.251102    53A      0.253121    54A      0.262965
      55A      0.273403    56A      0.284836    57A      0.291231
      58A      0.300146    59A      0.320169    60A      0.339388
      61A      0.356259    62A      0.387257    63A      0.399366
      64A      0.418944    65A      0.428418    66A      0.476367
      67A      0.488951    68A      0.498366    69A      0.518864
      70A      0.583203    71A      0.596084    72A      0.603409
      73A      0.609179    74A      0.621767    75A      0.639447
      76A      0.650577    77A      0.665424    78A      0.676734
      79A      0.688747    80A      0.694078    81A      0.709083
      82A      0.723049    83A      0.732763    84A      0.739597
      85A      0.746233    86A      0.755683    87A      0.774263
      88A      0.792279    89A      0.807692    90A      0.816804
      91A      0.841121    92A      0.852247    93A      0.862967
      94A      0.869646    95A      0.872355    96A      0.887366
      97A      0.889625    98A      0.892229    99A      0.896943
     100A      0.898368   101A      0.904613   102A      0.908267
     103A      0.919653   104A      0.928294   105A      0.931139
     106A      0.944946   107A      0.954417   108A      0.956000
     109A      0.975348   110A      0.989300   111A      1.010230
     112A      1.020524   113A      1.052865   114A      1.082808
     115A      1.119445   116A      1.123300   117A      1.143623
     118A      1.144912   119A      1.167972   120A      1.189891
     121A      1.215344   122A      1.235724   123A      1.244018
     124A      1.264200   125A      1.281213   126A      1.287675
     127A      1.292288   128A      1.306823   129A      1.311603
     130A      1.352536   131A      1.360687   132A      1.386565
     133A      1.433515   134A      1.437419   135A      1.470778
     136A      1.473406   137A      1.492376   138A      1.508548
     139A      1.540106   140A      1.569982   141A      1.587663
     142A      1.618956   143A      1.626623   144A      1.678702
     145A      1.681377   146A      1.685985   147A      1.697519
     148A      1.725070   149A      1.739533   150A      1.767392
     151A      1.797980   152A      1.827387   153A      1.839903
     154A      1.861500   155A      1.873789   156A      1.877915
     157A      1.888239   158A      1.892208   159A      1.902217
     160A      1.906319   161A      1.909933   162A      1.920707
     163A      1.923503   164A      1.936295   165A      1.945213
     166A      1.948912   167A      1.949809   168A      1.955052
     169A      1.959757   170A      1.971949   171A      1.979035
     172A      1.995581   173A      2.002886   174A      2.029666
     175A      2.036559   176A      2.048139   177A      2.060697
     178A      2.069708   179A      2.075588   180A      2.097948
     181A      2.103410   182A      2.110910   183A      2.129563
     184A      2.144274   185A      2.166670   186A      2.192370
     187A      2.239408   188A      2.258391   189A      2.269816
     190A      2.305759   191A      2.308750   192A      2.312551
     193A      2.317592   194A      2.325361   195A      2.365640
     196A      2.439934   197A      2.452302   198A      2.455414
     199A      2.463050   200A      2.470429   201A      2.484324
     202A      2.526906   203A      2.538574   204A      2.548618
     205A      2.563583   206A      2.569736   207A      2.580815
     208A      2.637492   209A      2.647681   210A      2.751032
     211A      2.759494   212A      2.773588   213A      2.779922
     214A      2.799211   215A      2.814673   216A      2.848095
     217A      2.864367   218A      2.865661   219A      2.869792
     220A      2.919066   221A      2.948130   222A      2.960772
     223A      2.972309   224A      2.992217   225A      3.029013
     226A      3.093877   227A      3.173546   228A      3.254693
     229A      3.282161   230A      3.349586   231A      3.579131
     232A      3.675797   233A      3.971178   234A      4.194568

    Final Occupation by Irrep:
              A
    DOCC [    42 ]

  @RHF Final Energy:  -462.89242840086149

   => Energetics <=

    Nuclear Repulsion Energy =            567.9099756543124613
    One-Electron Energy =               -1753.2604889000392632
    Two-Electron Energy =                 722.4580848448651977
    Total Energy =                       -462.8924284008614904

Computation Completed

Properties will be evaluated at   0.000000,   0.000000,   0.000000 [a0]

Properties computed using the SCF density matrix

  Nuclear Dipole Moment: [e a0]
     X:   -21.9244      Y:    -5.9853      Z:     5.7747

  Electronic Dipole Moment: [e a0]
     X:    21.4247      Y:     6.0866      Z:    -6.0172

  Dipole Moment: [e a0]
     X:    -0.4997      Y:     0.1012      Z:    -0.2425     Total:     0.5646

  Dipole Moment: [D]
     X:    -1.2700      Y:     0.2574      Z:    -0.6164     Total:     1.4350

*** tstop() called on ds3 at Sun Apr 26 22:10:41 2020
Module time:
	user time   =     130.50 seconds =       2.17 minutes
	system time =      54.45 seconds =       0.91 minutes
	total time  =        213 seconds =       3.55 minutes
Total time:
	user time   =     130.50 seconds =       2.17 minutes
	system time =      54.45 seconds =       0.91 minutes
	total time  =        213 seconds =       3.55 minutes
                                     G D M A

                                 by Anthony Stone

                           version 2.2.06, 22 June 2011

               Distributed Multipoles from Gaussian wavefunctions

Starting at 22:10:41 on 26 Apr 2020

Using SCF density matrix from file ./SSI/SSI-098VAL-105TYR-1-dimer.test.29101.fchk

                         Distributed Multipole Analysis

Standard DMA

Positions and radii in angstrom
Multipole moments in atomic units, ea_0^k for rank k

C          x = -3.793306  y =  0.324617  z =  1.556375 angstrom
           Maximum rank =  0   Radius =  0.650 angstrom
                   Q00  =  -0.241125

C          x = -5.217306  y =  0.523617  z =  1.039375 angstrom
           Maximum rank =  0   Radius =  0.650 angstrom
                   Q00  =  -0.232513

H          x = -3.054306  y =  0.643617  z =  0.822375 angstrom
           Maximum rank =  0   Radius =  0.325 angstrom
                   Q00  =   0.077420

H          x = -3.654306  y =  0.933617  z =  2.450375 angstrom
           Maximum rank =  0   Radius =  0.325 angstrom
                   Q00  =   0.081236

H          x = -3.625306  y = -0.715383  z =  1.835375 angstrom
           Maximum rank =  0   Radius =  0.325 angstrom
                   Q00  =   0.077449

H          x = -5.916306  y =  0.315617  z =  1.845375 angstrom
           Maximum rank =  0   Radius =  0.325 angstrom
                   Q00  =   0.080834

H          x = -5.441436  y = -0.155853  z =  0.203865 angstrom
           Maximum rank =  0   Radius =  0.325 angstrom
                   Q00  =   0.077636

H          x = -5.351686  y =  1.567717  z =  0.720325 angstrom
           Maximum rank =  0   Radius =  0.325 angstrom
                   Q00  =   0.079224

C          x = -0.588306  y = -1.657383  z =  0.711375 angstrom
           Maximum rank =  0   Radius =  0.650 angstrom
                   Q00  =  -0.025710

C          x = -0.906306  y = -2.882383  z = -0.149625 angstrom
           Maximum rank =  0   Radius =  0.650 angstrom
                   Q00  =  -0.240404

C          x =  0.434694  y = -0.693383  z =  0.151375 angstrom
           Maximum rank =  0   Radius =  0.650 angstrom
                   Q00  =  -0.143789

C          x =  0.113694  y =  0.146617  z = -0.919625 angstrom
           Maximum rank =  0   Radius =  0.650 angstrom
                   Q00  =  -0.037879

C          x =  1.702694  y = -0.587383  z =  0.733375 angstrom
           Maximum rank =  0   Radius =  0.650 angstrom
                   Q00  =   0.037276

C          x =  1.040694  y =  1.072617  z = -1.403625 angstrom
           Maximum rank =  0   Radius =  0.650 angstrom
                   Q00  =  -0.182308

C          x =  2.632694  y =  0.337617  z =  0.258375 angstrom
           Maximum rank =  0   Radius =  0.650 angstrom
                   Q00  =  -0.124497

C          x =  2.298694  y =  1.168617  z = -0.809625 angstrom
           Maximum rank =  0   Radius =  0.650 angstrom
                   Q00  =   0.317207

O          x =  3.186694  y =  2.088617  z = -1.264625 angstrom
           Maximum rank =  0   Radius =  0.650 angstrom
                   Q00  =  -0.669070

H          x = -1.508306  y = -1.105383  z =  0.880375 angstrom
           Maximum rank =  0   Radius =  0.325 angstrom
                   Q00  =   0.074516

H          x = -0.244306  y = -2.002383  z =  1.687375 angstrom
           Maximum rank =  0   Radius =  0.325 angstrom
                   Q00  =   0.059744

H          x =  0.018694  y = -3.440383  z = -0.284625 angstrom
           Maximum rank =  0   Radius =  0.325 angstrom
                   Q00  =   0.082892

H          x = -0.872306  y =  0.110617  z = -1.364625 angstrom
           Maximum rank =  0   Radius =  0.325 angstrom
                   Q00  =   0.068374

H          x =  1.964694  y = -1.203383  z =  1.580375 angstrom
           Maximum rank =  0   Radius =  0.325 angstrom
                   Q00  =   0.064779

H          x =  0.780694  y =  1.715617  z = -2.226625 angstrom
           Maximum rank =  0   Radius =  0.325 angstrom
                   Q00  =   0.071038

H          x =  3.608694  y =  0.421617  z =  0.712375 angstrom
           Maximum rank =  0   Radius =  0.325 angstrom
                   Q00  =   0.080605

H          x =  2.821694  y =  2.608617  z = -1.984625 angstrom
           Maximum rank =  0   Radius =  0.325 angstrom
                   Q00  =   0.405202

H          x = -1.320056  y = -2.571693  z = -1.120335 angstrom
           Maximum rank =  0   Radius =  0.325 angstrom
                   Q00  =   0.081003

H          x = -1.609256  y = -3.517863  z =  0.408965 angstrom
           Maximum rank =  0   Radius =  0.325 angstrom
                   Q00  =   0.080860

Total multipoles referred to origin at
           x =   0.000000,  y =    0.000000,  z =    0.000000 angstrom
                   Q00  =  -0.000000

Finished at 22:10:41 on 26 Apr 2020

  DMA results are available in the Python driver through the
	  variable('DMA DISTRIBUTED MULTIPOLES')
  and
	  variable('DMA TOTAL MULTIPOLES')
  commands.

    Psi4 stopped on: Sunday, 26 April 2020 10:10PM
    Psi4 wall time for execution: 0:03:32.98

*** Psi4 exiting successfully. Buy a developer a beer!
