                               Psi4 1.3.2 release

  ==> Input File <==

--------------------------------------------------------------------------
import numpy as np
set {scf_type pk
basis cc-pvdz
d_convergence 10
gdma_switch   0
gdma_limit    0
gdma_origin   [ 0.0,  0.0,  0.0 ]
}
molecule test {
    units Angstrom
    0 1
    --
    0 1
    C                3.181787842701143     1.322943426287591    -0.689497632864770
    C                3.931787842701143     1.020943426287591    -2.021497632864770
    H                3.042787842701143     2.393943426287592    -0.564497632864770
    H                2.197787842701143     0.854943426287591    -0.727497632864770
    H                3.729787842701143     0.907943426287591     0.157502367135230
    H                3.491787842701144     1.634943426287591    -2.806497632864770
    H                5.003377842701143     1.258043426287591    -1.947447632864770
    H                3.792377842701144    -0.033576573712409    -2.301747632864770
    C               -0.003212157298857     1.963943426287591     1.061502367135230
    C               -1.069212157298857     3.048943426287591     1.090502367135230
    C               -0.442212157298857     0.585943426287591     0.652502367135230
    C               -1.206212157298856     0.386943426287591    -0.494497632864770
    C               -0.100212157298857    -0.536056573712409     1.424502367135230
    C               -1.579212157298856    -0.910056573712409    -0.884497632864770
    C               -0.467212157298857    -1.821056573712409     1.031502367135230
    C               -1.186212157298857    -2.013056573712409    -0.153497632864770
    O               -1.614212157298857    -3.236056573712409    -0.588497632864770
    H                0.768787842701144     2.284943426287592     0.366502367135230
    H                0.463787842701143     1.881943426287591     2.034502367135230
    H               -1.437212157298857     3.232943426287592     0.080502367135230
    H               -1.502212157298857     1.234943426287591    -1.095497632864770
    H                0.474787842701143    -0.406056573712409     2.332502367135230
    H               -2.177212157298857    -1.056056573712409    -1.762497632864770
    H               -0.190212157298857    -2.679056573712408     1.621502367135230
    H               -2.161212157298857    -3.175056573712408    -1.374497632864770
    H               -0.582865157298856     3.953023426287591     1.485612367135230
    H               -1.915417157298857     2.761663426287591     1.731912367135230

}
e, wfn = energy('scf', return_wfn=True)
gdma(wfn)
dmavals = variable('DMA DISTRIBUTED MULTIPOLES')
charges = np.array(dmavals)
print(charges)
np.save('SSI-074LEU-079TYR-1-dimer.npy', np.array(charges))--------------------------------------------------------------------------

*** tstart() called on ds3
*** at Mon Apr 27 12:59:10 2020

   => Loading Basis Set <=

    Name: CC-PVDZ
    Role: ORBITAL
    Keyword: BASIS
    atoms 1-2, 9-16  entry C          line   138 file /theoryfs2/ds/metcalf/miniconda2/envs/tf2gpu/share/psi4/basis/cc-pvdz.gbs
    atoms 3-8, 18-27 entry H          line    22 file /theoryfs2/ds/metcalf/miniconda2/envs/tf2gpu/share/psi4/basis/cc-pvdz.gbs
    atoms 17         entry O          line   198 file /theoryfs2/ds/metcalf/miniconda2/envs/tf2gpu/share/psi4/basis/cc-pvdz.gbs

         ---------------------------------------------------------
                                   SCF
               by Justin Turney, Rob Parrish, Andy Simmonett
                          and Daniel G. A. Smith
                              RHF Reference
                        1 Threads,    500 MiB Core
         ---------------------------------------------------------

  ==> Geometry <==

    Molecular point group: c1
    Full point group: C1

    Geometry (in Angstrom), charge = 0, multiplicity = 1:

       Center              X                  Y                   Z               Mass
    ------------   -----------------  -----------------  -----------------  -----------------
         C            3.181787842701     1.322943426288    -0.689497632865    12.000000000000
         C            3.931787842701     1.020943426288    -2.021497632865    12.000000000000
         H            3.042787842701     2.393943426288    -0.564497632865     1.007825032230
         H            2.197787842701     0.854943426288    -0.727497632865     1.007825032230
         H            3.729787842701     0.907943426288     0.157502367135     1.007825032230
         H            3.491787842701     1.634943426288    -2.806497632865     1.007825032230
         H            5.003377842701     1.258043426288    -1.947447632865     1.007825032230
         H            3.792377842701    -0.033576573712    -2.301747632865     1.007825032230
         C           -0.003212157299     1.963943426288     1.061502367135    12.000000000000
         C           -1.069212157299     3.048943426288     1.090502367135    12.000000000000
         C           -0.442212157299     0.585943426288     0.652502367135    12.000000000000
         C           -1.206212157299     0.386943426288    -0.494497632865    12.000000000000
         C           -0.100212157299    -0.536056573712     1.424502367135    12.000000000000
         C           -1.579212157299    -0.910056573712    -0.884497632865    12.000000000000
         C           -0.467212157299    -1.821056573712     1.031502367135    12.000000000000
         C           -1.186212157299    -2.013056573712    -0.153497632865    12.000000000000
         O           -1.614212157299    -3.236056573712    -0.588497632865    15.994914619570
         H            0.768787842701     2.284943426288     0.366502367135     1.007825032230
         H            0.463787842701     1.881943426288     2.034502367135     1.007825032230
         H           -1.437212157299     3.232943426288     0.080502367135     1.007825032230
         H           -1.502212157299     1.234943426288    -1.095497632865     1.007825032230
         H            0.474787842701    -0.406056573712     2.332502367135     1.007825032230
         H           -2.177212157299    -1.056056573712    -1.762497632865     1.007825032230
         H           -0.190212157299    -2.679056573712     1.621502367135     1.007825032230
         H           -2.161212157299    -3.175056573712    -1.374497632865     1.007825032230
         H           -0.582865157299     3.953023426288     1.485612367135     1.007825032230
         H           -1.915417157299     2.761663426288     1.731912367135     1.007825032230

  Running in c1 symmetry.

  Rotational constants: A =      0.03362  B =      0.01960  C =      0.01463 [cm^-1]
  Rotational constants: A =   1007.91891  B =    587.57259  C =    438.52435 [MHz]
  Nuclear repulsion =  579.848698884786018

  Charge       = 0
  Multiplicity = 1
  Electrons    = 84
  Nalpha       = 42
  Nbeta        = 42

  ==> Algorithm <==

  SCF Algorithm Type is PK.
  DIIS enabled.
  MOM disabled.
  Fractional occupation disabled.
  Guess Type is SAD.
  Energy threshold   = 1.00e-06
  Density threshold  = 1.00e-10
  Integral threshold = 0.00e+00

  ==> Primary Basis <==

  Basis Set: CC-PVDZ
    Blend: CC-PVDZ
    Number of shells: 114
    Number of basis function: 234
    Number of Cartesian functions: 245
    Spherical Harmonics?: true
    Max angular momentum: 2

  ==> Pre-Iterations <==

   -------------------------------------------------------
    Irrep   Nso     Nmo     Nalpha   Nbeta   Ndocc  Nsocc
   -------------------------------------------------------
     A        234     234       0       0       0       0
   -------------------------------------------------------
    Total     234     234      42      42      42       0
   -------------------------------------------------------

  ==> Integral Setup <==

  Using integral reordering PK algorithm.
  Sizing the integral batches needed.
  Building batch lookup table.
   Calculation information:
      Number of atoms:                  27
      Number of AO shells:             114
      Number of primitives:            322
      Number of atomic orbitals:       245
      Number of basis functions:       234

      Integral cutoff                 1.00e-12
      Number of threads:                 1

	Batch   1 pq = [       0,    9405] index = [             0,44231715] size =     44231715
	Batch   2 pq = [    9405,   13301] index = [      44231715,88464951] size =     44233236
	Batch   3 pq = [   13301,   16290] index = [      88464951,132690195] size =     44225244
	Batch   4 pq = [   16290,   18810] index = [     132690195,176917455] size =     44227260
	Batch   5 pq = [   18810,   21030] index = [     176917455,221140965] size =     44223510
	Batch   6 pq = [   21030,   23037] index = [     221140965,265363203] size =     44222238
	Batch   7 pq = [   23037,   24883] index = [     265363203,309594286] size =     44231083
	Batch   8 pq = [   24883,   26601] index = [     309594286,353819901] size =     44225615
	Batch   9 pq = [   26601,   27495] index = [     353819901,378001260] size =     24181359
  Task number: 35
  Buffer size: 11059200
  Buffer per thread: 2
  We computed 19642891 shell quartets total.
  Whereas there are 21487290 unique shell quartets.

  ==> DiskJK: Disk-Based J/K Matrices <==

    J tasked:                  Yes
    K tasked:                  Yes
    wK tasked:                  No
    Memory [MiB]:              375
    Schwarz Cutoff:          1E-12

    OpenMP threads:              1

  Minimum eigenvalue in the overlap matrix is 3.2980521281E-04.
  Using Symmetric Orthogonalization.

  SCF Guess: Superposition of Atomic Densities via on-the-fly atomic UHF.

  ==> Iterations <==

                        Total Energy        Delta E     RMS |[F,P]|

   @RHF iter SAD:  -461.66753317799572   -4.61668e+02   0.00000e+00
   @RHF iter   1:  -462.60799325430969   -9.40460e-01   2.78387e-03 DIIS
   @RHF iter   2:  -462.84554424135877   -2.37551e-01   1.16849e-03 DIIS
   @RHF iter   3:  -462.88345287215071   -3.79086e-02   2.70091e-04 DIIS
   @RHF iter   4:  -462.88667791227755   -3.22504e-03   1.12969e-04 DIIS
   @RHF iter   5:  -462.88708417085650   -4.06259e-04   1.96190e-05 DIIS
   @RHF iter   6:  -462.88710404977837   -1.98789e-05   5.46517e-06 DIIS
   @RHF iter   7:  -462.88710556318165   -1.51340e-06   1.97345e-06 DIIS
   @RHF iter   8:  -462.88710578390737   -2.20726e-07   6.70011e-07 DIIS
   @RHF iter   9:  -462.88710581928456   -3.53772e-08   2.16782e-07 DIIS
   @RHF iter  10:  -462.88710582408305   -4.79849e-09   8.89745e-08 DIIS
   @RHF iter  11:  -462.88710582537271   -1.28966e-09   4.06100e-08 DIIS
   @RHF iter  12:  -462.88710582568228   -3.09569e-10   1.81783e-08 DIIS
   @RHF iter  13:  -462.88710582573515   -5.28644e-11   7.43404e-09 DIIS
   @RHF iter  14:  -462.88710582574714   -1.19940e-11   1.73022e-09 DIIS
   @RHF iter  15:  -462.88710582574447    2.67164e-12   5.78976e-10 DIIS
   @RHF iter  16:  -462.88710582574606   -1.59162e-12   1.72507e-10 DIIS
   @RHF iter  17:  -462.88710582574737   -1.30740e-12   5.78106e-11 DIIS
  Energy and wave function converged.

  ==> Post-Iterations <==

    Orbital Energies [Eh]
    ---------------------

    Doubly Occupied:

       1A    -20.581384     2A    -11.299192     3A    -11.239980
       4A    -11.239066     5A    -11.233360     6A    -11.231786
       7A    -11.231144     8A    -11.224457     9A    -11.223492
      10A    -11.218423    11A    -11.215032    12A     -1.398148
      13A     -1.150907    14A     -1.060448    15A     -1.015555
      16A     -1.008080    17A     -0.978973    18A     -0.863344
      19A     -0.845035    20A     -0.836740    21A     -0.789019
      22A     -0.731982    23A     -0.674163    24A     -0.643952
      25A     -0.615626    26A     -0.602426    27A     -0.592624
      28A     -0.590763    29A     -0.583324    30A     -0.581499
      31A     -0.577547    32A     -0.538986    33A     -0.522004
      34A     -0.502468    35A     -0.490212    36A     -0.485551
      37A     -0.483350    38A     -0.478677    39A     -0.471946
      40A     -0.460940    41A     -0.337111    42A     -0.302161

    Virtual:

      43A      0.128577    44A      0.153485    45A      0.178396
      46A      0.181281    47A      0.196346    48A      0.207806
      49A      0.216158    50A      0.233635    51A      0.245304
      52A      0.255235    53A      0.258371    54A      0.262275
      55A      0.266679    56A      0.293132    57A      0.298451
      58A      0.303624    59A      0.319871    60A      0.332708
      61A      0.357593    62A      0.386568    63A      0.391069
      64A      0.407517    65A      0.427906    66A      0.471917
      67A      0.490227    68A      0.493674    69A      0.522939
      70A      0.576266    71A      0.592550    72A      0.595956
      73A      0.607785    74A      0.617886    75A      0.644393
      76A      0.659090    77A      0.671548    78A      0.682178
      79A      0.685736    80A      0.700278    81A      0.710972
      82A      0.722931    83A      0.736255    84A      0.738030
      85A      0.749258    86A      0.765304    87A      0.774234
      88A      0.786794    89A      0.813303    90A      0.823737
      91A      0.846489    92A      0.852414    93A      0.866330
      94A      0.870057    95A      0.880844    96A      0.881446
      97A      0.888699    98A      0.890890    99A      0.894712
     100A      0.900629   101A      0.905766   102A      0.915021
     103A      0.926625   104A      0.929386   105A      0.937059
     106A      0.939532   107A      0.949968   108A      0.970783
     109A      0.987186   110A      0.997438   111A      1.021025
     112A      1.026085   113A      1.058138   114A      1.082616
     115A      1.121166   116A      1.126864   117A      1.141784
     118A      1.149096   119A      1.172401   120A      1.187529
     121A      1.196197   122A      1.239616   123A      1.247626
     124A      1.250184   125A      1.280215   126A      1.286319
     127A      1.294285   128A      1.305336   129A      1.315572
     130A      1.347689   131A      1.359840   132A      1.374077
     133A      1.421821   134A      1.467429   135A      1.474984
     136A      1.479623   137A      1.492091   138A      1.523692
     139A      1.538023   140A      1.558212   141A      1.594051
     142A      1.624011   143A      1.627027   144A      1.676552
     145A      1.684300   146A      1.690035   147A      1.695455
     148A      1.718424   149A      1.740747   150A      1.776433
     151A      1.800265   152A      1.802478   153A      1.828684
     154A      1.849726   155A      1.866147   156A      1.875164
     157A      1.883095   158A      1.887857   159A      1.900107
     160A      1.909803   161A      1.911323   162A      1.923990
     163A      1.931162   164A      1.934393   165A      1.942650
     166A      1.946302   167A      1.952659   168A      1.953164
     169A      1.965240   170A      1.983913   171A      1.994535
     172A      1.998576   173A      2.016109   174A      2.024426
     175A      2.034185   176A      2.047982   177A      2.073265
     178A      2.076469   179A      2.090887   180A      2.106946
     181A      2.118691   182A      2.127889   183A      2.139358
     184A      2.146980   185A      2.191146   186A      2.196526
     187A      2.241066   188A      2.267521   189A      2.267784
     190A      2.297926   191A      2.305180   192A      2.311272
     193A      2.324566   194A      2.331884   195A      2.365258
     196A      2.410226   197A      2.445998   198A      2.450727
     199A      2.458571   200A      2.467328   201A      2.470996
     202A      2.525645   203A      2.538262   204A      2.548944
     205A      2.571626   206A      2.592283   207A      2.595688
     208A      2.646403   209A      2.660475   210A      2.745863
     211A      2.763428   212A      2.767729   213A      2.782589
     214A      2.797484   215A      2.820085   216A      2.839651
     217A      2.848317   218A      2.863596   219A      2.877846
     220A      2.928340   221A      2.931685   222A      2.943017
     223A      2.981303   224A      2.988519   225A      3.038030
     226A      3.083223   227A      3.173102   228A      3.251715
     229A      3.291155   230A      3.348071   231A      3.573658
     232A      3.646589   233A      3.998097   234A      4.181701

    Final Occupation by Irrep:
              A
    DOCC [    42 ]

  @RHF Final Energy:  -462.88710582574737

   => Energetics <=

    Nuclear Repulsion Energy =            579.8486988847860175
    One-Electron Energy =               -1777.1698562584388128
    Two-Electron Energy =                 734.4340515479053693
    Total Energy =                       -462.8871058257474260

Computation Completed

Properties will be evaluated at   0.000000,   0.000000,   0.000000 [a0]

Properties computed using the SCF density matrix

  Nuclear Dipole Moment: [e a0]
     X:    12.1783      Y:    14.0929      Z:    -2.5993

  Electronic Dipole Moment: [e a0]
     X:   -12.3949      Y:   -13.6893      Z:     2.2666

  Dipole Moment: [e a0]
     X:    -0.2166      Y:     0.4036      Z:    -0.3326     Total:     0.5661

  Dipole Moment: [D]
     X:    -0.5505      Y:     1.0259      Z:    -0.8455     Total:     1.4389

*** tstop() called on ds3 at Mon Apr 27 13:02:42 2020
Module time:
	user time   =     153.44 seconds =       2.56 minutes
	system time =      69.18 seconds =       1.15 minutes
	total time  =        212 seconds =       3.53 minutes
Total time:
	user time   =     153.44 seconds =       2.56 minutes
	system time =      69.18 seconds =       1.15 minutes
	total time  =        212 seconds =       3.53 minutes
                                     G D M A

                                 by Anthony Stone

                           version 2.2.06, 22 June 2011

               Distributed Multipoles from Gaussian wavefunctions

Starting at 13:2:42 on 27 Apr 2020

Using SCF density matrix from file ./SSI/SSI-074LEU-079TYR-1-dimer.test.4893.fchk

                         Distributed Multipole Analysis

Standard DMA

Positions and radii in angstrom
Multipole moments in atomic units, ea_0^k for rank k

C          x =  3.181788  y =  1.322943  z = -0.689498 angstrom
           Maximum rank =  0   Radius =  0.650 angstrom
                   Q00  =  -0.253663

C          x =  3.931788  y =  1.020943  z = -2.021498 angstrom
           Maximum rank =  0   Radius =  0.650 angstrom
                   Q00  =  -0.235482

H          x =  3.042788  y =  2.393943  z = -0.564498 angstrom
           Maximum rank =  0   Radius =  0.325 angstrom
                   Q00  =   0.075344

H          x =  2.197788  y =  0.854943  z = -0.727498 angstrom
           Maximum rank =  0   Radius =  0.325 angstrom
                   Q00  =   0.090155

H          x =  3.729788  y =  0.907943  z =  0.157502 angstrom
           Maximum rank =  0   Radius =  0.325 angstrom
                   Q00  =   0.082912

H          x =  3.491788  y =  1.634943  z = -2.806498 angstrom
           Maximum rank =  0   Radius =  0.325 angstrom
                   Q00  =   0.077751

H          x =  5.003378  y =  1.258043  z = -1.947448 angstrom
           Maximum rank =  0   Radius =  0.325 angstrom
                   Q00  =   0.080902

H          x =  3.792378  y = -0.033577  z = -2.301748 angstrom
           Maximum rank =  0   Radius =  0.325 angstrom
                   Q00  =   0.083154

C          x = -0.003212  y =  1.963943  z =  1.061502 angstrom
           Maximum rank =  0   Radius =  0.650 angstrom
                   Q00  =  -0.027899

C          x = -1.069212  y =  3.048943  z =  1.090502 angstrom
           Maximum rank =  0   Radius =  0.650 angstrom
                   Q00  =  -0.245166

C          x = -0.442212  y =  0.585943  z =  0.652502 angstrom
           Maximum rank =  0   Radius =  0.650 angstrom
                   Q00  =  -0.142867

C          x = -1.206212  y =  0.386943  z = -0.494498 angstrom
           Maximum rank =  0   Radius =  0.650 angstrom
                   Q00  =  -0.071089

C          x = -0.100212  y = -0.536057  z =  1.424502 angstrom
           Maximum rank =  0   Radius =  0.650 angstrom
                   Q00  =   0.014543

C          x = -1.579212  y = -0.910057  z = -0.884498 angstrom
           Maximum rank =  0   Radius =  0.650 angstrom
                   Q00  =  -0.091773

C          x = -0.467212  y = -1.821057  z =  1.031502 angstrom
           Maximum rank =  0   Radius =  0.650 angstrom
                   Q00  =  -0.118089

C          x = -1.186212  y = -2.013057  z = -0.153498 angstrom
           Maximum rank =  0   Radius =  0.650 angstrom
                   Q00  =   0.259623

O          x = -1.614212  y = -3.236057  z = -0.588498 angstrom
           Maximum rank =  0   Radius =  0.650 angstrom
                   Q00  =  -0.646870

H          x =  0.768788  y =  2.284943  z =  0.366502 angstrom
           Maximum rank =  0   Radius =  0.325 angstrom
                   Q00  =   0.070701

H          x =  0.463788  y =  1.881943  z =  2.034502 angstrom
           Maximum rank =  0   Radius =  0.325 angstrom
                   Q00  =   0.060762

H          x = -1.437212  y =  3.232943  z =  0.080502 angstrom
           Maximum rank =  0   Radius =  0.325 angstrom
                   Q00  =   0.079973

H          x = -1.502212  y =  1.234943  z = -1.095498 angstrom
           Maximum rank =  0   Radius =  0.325 angstrom
                   Q00  =   0.069414

H          x =  0.474788  y = -0.406057  z =  2.332502 angstrom
           Maximum rank =  0   Radius =  0.325 angstrom
                   Q00  =   0.066550

H          x = -2.177212  y = -1.056057  z = -1.762498 angstrom
           Maximum rank =  0   Radius =  0.325 angstrom
                   Q00  =   0.064439

H          x = -0.190212  y = -2.679057  z =  1.621502 angstrom
           Maximum rank =  0   Radius =  0.325 angstrom
                   Q00  =   0.080805

H          x = -2.161212  y = -3.175057  z = -1.374498 angstrom
           Maximum rank =  0   Radius =  0.325 angstrom
                   Q00  =   0.408520

H          x = -0.582865  y =  3.953023  z =  1.485612 angstrom
           Maximum rank =  0   Radius =  0.325 angstrom
                   Q00  =   0.085302

H          x = -1.915417  y =  2.761663  z =  1.731912 angstrom
           Maximum rank =  0   Radius =  0.325 angstrom
                   Q00  =   0.082048

Total multipoles referred to origin at
           x =   0.000000,  y =    0.000000,  z =    0.000000 angstrom
                   Q00  =  -0.000000

Finished at 13:2:42 on 27 Apr 2020

  DMA results are available in the Python driver through the
	  variable('DMA DISTRIBUTED MULTIPOLES')
  and
	  variable('DMA TOTAL MULTIPOLES')
  commands.

    Psi4 stopped on: Monday, 27 April 2020 01:02PM
    Psi4 wall time for execution: 0:03:32.49

*** Psi4 exiting successfully. Buy a developer a beer!
