                               Psi4 1.3.2 release

  ==> Input File <==

--------------------------------------------------------------------------
import numpy as np
set {scf_type pk
basis cc-pvdz
d_convergence 10
gdma_switch   0
gdma_limit    0
gdma_origin   [ 0.0,  0.0,  0.0 ]
}
molecule test {
    units Angstrom
    1 1
    --
    1 1
    C               -2.093496959249558     2.714119892216473     1.436928284649234
    C               -0.529496959249558     1.283119892216472     2.712928284649235
    N               -0.796496959249558     2.399119892216472     2.053928284649235
    N               -1.451496959249558     0.350119892216472     2.847928284649235
    N                0.665503040750442     1.096119892216473     3.236928284649234
    H               -0.069496959249558     3.098119892216473     2.003928284649235
    H               -2.369496959249558     0.508119892216472     2.466928284649234
    H               -1.259496959249558    -0.507880107783528     3.339928284649235
    H                1.358503040750442     1.827119892216472     3.166928284649235
    H                0.769503040750442     0.382119892216472     3.935928284649234
    H               -2.817496959249558     2.937119892216473     2.222928284649235
    H               -2.458496959249559     1.866119892216473     0.852928284649235
    H               -2.023366959249558     3.587447892216473     0.771808284649235
    C                1.101503040750442    -0.065880107783528    -4.066071715350765
    C                0.333503040750442    -0.769880107783528    -0.429071715350765
    C                0.362503040750442    -2.156880107783527    -0.403071715350766
    C                0.573503040750442    -0.093880107783528    -1.618071715350765
    C                0.834503040750442    -0.797880107783528    -2.788071715350765
    C                0.630503040750442    -2.866880107783528    -1.566071715350765
    C                0.873503040750442    -2.186880107783527    -2.754071715350765
    H                0.122503040750442    -0.215880107783528     0.472928284649235
    H                0.169503040750442    -2.685880107783527     0.520928284649234
    H                0.541503040750442     0.985119892216472    -1.632071715350765
    H                0.648503040750442    -3.948880107783527    -1.548071715350765
    H                0.466503040750442     0.821119892216472    -4.124071715350765
    H                0.822503040750442    -0.725880107783528    -4.878071715350766
    H                1.086503040750441    -2.747880107783527    -3.654071715350766
    H                2.156083040750442     0.221798892216472    -4.188951715350766

}
e, wfn = energy('scf', return_wfn=True)
gdma(wfn)
dmavals = variable('DMA DISTRIBUTED MULTIPOLES')
charges = np.array(dmavals)
print(charges)
np.save('SSI-016ARG-047PHE-1-dimer.npy', np.array(charges))--------------------------------------------------------------------------

*** tstart() called on ds3
*** at Mon Apr 27 22:37:59 2020

   => Loading Basis Set <=

    Name: CC-PVDZ
    Role: ORBITAL
    Keyword: BASIS
    atoms 1-2, 14-20  entry C          line   138 file /theoryfs2/ds/metcalf/miniconda2/envs/tf2gpu/share/psi4/basis/cc-pvdz.gbs
    atoms 3-5         entry N          line   168 file /theoryfs2/ds/metcalf/miniconda2/envs/tf2gpu/share/psi4/basis/cc-pvdz.gbs
    atoms 6-13, 21-28 entry H          line    22 file /theoryfs2/ds/metcalf/miniconda2/envs/tf2gpu/share/psi4/basis/cc-pvdz.gbs

         ---------------------------------------------------------
                                   SCF
               by Justin Turney, Rob Parrish, Andy Simmonett
                          and Daniel G. A. Smith
                              RHF Reference
                        1 Threads,    500 MiB Core
         ---------------------------------------------------------

  ==> Geometry <==

    Molecular point group: c1
    Full point group: C1

    Geometry (in Angstrom), charge = 1, multiplicity = 1:

       Center              X                  Y                   Z               Mass
    ------------   -----------------  -----------------  -----------------  -----------------
         C           -2.093496959250     2.714119892216     1.436928284649    12.000000000000
         C           -0.529496959250     1.283119892216     2.712928284649    12.000000000000
         N           -0.796496959250     2.399119892216     2.053928284649    14.003074004430
         N           -1.451496959250     0.350119892216     2.847928284649    14.003074004430
         N            0.665503040750     1.096119892216     3.236928284649    14.003074004430
         H           -0.069496959250     3.098119892216     2.003928284649     1.007825032230
         H           -2.369496959250     0.508119892216     2.466928284649     1.007825032230
         H           -1.259496959250    -0.507880107784     3.339928284649     1.007825032230
         H            1.358503040750     1.827119892216     3.166928284649     1.007825032230
         H            0.769503040750     0.382119892216     3.935928284649     1.007825032230
         H           -2.817496959250     2.937119892216     2.222928284649     1.007825032230
         H           -2.458496959250     1.866119892216     0.852928284649     1.007825032230
         H           -2.023366959250     3.587447892216     0.771808284649     1.007825032230
         C            1.101503040750    -0.065880107784    -4.066071715351    12.000000000000
         C            0.333503040750    -0.769880107784    -0.429071715351    12.000000000000
         C            0.362503040750    -2.156880107784    -0.403071715351    12.000000000000
         C            0.573503040750    -0.093880107784    -1.618071715351    12.000000000000
         C            0.834503040750    -0.797880107784    -2.788071715351    12.000000000000
         C            0.630503040750    -2.866880107784    -1.566071715351    12.000000000000
         C            0.873503040750    -2.186880107784    -2.754071715351    12.000000000000
         H            0.122503040750    -0.215880107784     0.472928284649     1.007825032230
         H            0.169503040750    -2.685880107784     0.520928284649     1.007825032230
         H            0.541503040750     0.985119892216    -1.632071715351     1.007825032230
         H            0.648503040750    -3.948880107784    -1.548071715351     1.007825032230
         H            0.466503040750     0.821119892216    -4.124071715351     1.007825032230
         H            0.822503040750    -0.725880107784    -4.878071715351     1.007825032230
         H            1.086503040750    -2.747880107784    -3.654071715351     1.007825032230
         H            2.156083040750     0.221798892216    -4.188951715351     1.007825032230

  Running in c1 symmetry.

  Rotational constants: A =      0.04886  B =      0.01176  C =      0.01043 [cm^-1]
  Rotational constants: A =   1464.90223  B =    352.67005  C =    312.72789 [MHz]
  Nuclear repulsion =  657.577229834827335

  Charge       = 1
  Multiplicity = 1
  Electrons    = 90
  Nalpha       = 45
  Nbeta        = 45

  ==> Algorithm <==

  SCF Algorithm Type is PK.
  DIIS enabled.
  MOM disabled.
  Fractional occupation disabled.
  Guess Type is SAD.
  Energy threshold   = 1.00e-06
  Density threshold  = 1.00e-10
  Integral threshold = 0.00e+00

  ==> Primary Basis <==

  Basis Set: CC-PVDZ
    Blend: CC-PVDZ
    Number of shells: 120
    Number of basis function: 248
    Number of Cartesian functions: 260
    Spherical Harmonics?: true
    Max angular momentum: 2

  ==> Pre-Iterations <==

   -------------------------------------------------------
    Irrep   Nso     Nmo     Nalpha   Nbeta   Ndocc  Nsocc
   -------------------------------------------------------
     A        248     248       0       0       0       0
   -------------------------------------------------------
    Total     248     248      45      45      45       0
   -------------------------------------------------------

  ==> Integral Setup <==

  Using integral reordering PK algorithm.
  Sizing the integral batches needed.
  Building batch lookup table.
   Calculation information:
      Number of atoms:                  28
      Number of AO shells:             120
      Number of primitives:            344
      Number of atomic orbitals:       260
      Number of basis functions:       248

      Integral cutoff                 1.00e-12
      Number of threads:                 1

	Batch   1 pq = [       0,    9405] index = [             0,44231715] size =     44231715
	Batch   2 pq = [    9405,   13301] index = [      44231715,88464951] size =     44233236
	Batch   3 pq = [   13301,   16290] index = [      88464951,132690195] size =     44225244
	Batch   4 pq = [   16290,   18810] index = [     132690195,176917455] size =     44227260
	Batch   5 pq = [   18810,   21030] index = [     176917455,221140965] size =     44223510
	Batch   6 pq = [   21030,   23037] index = [     221140965,265363203] size =     44222238
	Batch   7 pq = [   23037,   24883] index = [     265363203,309594286] size =     44231083
	Batch   8 pq = [   24883,   26601] index = [     309594286,353819901] size =     44225615
	Batch   9 pq = [   26601,   28214] index = [     353819901,398029005] size =     44209104
	Batch  10 pq = [   28214,   29740] index = [     398029005,442248670] size =     44219665
	Batch  11 pq = [   29740,   30876] index = [     442248670,476679126] size =     34430456
  Task number: 44
  Buffer size: 11059200
  Buffer per thread: 2
  We computed 22073030 shell quartets total.
  Whereas there are 26357430 unique shell quartets.

  ==> DiskJK: Disk-Based J/K Matrices <==

    J tasked:                  Yes
    K tasked:                  Yes
    wK tasked:                  No
    Memory [MiB]:              375
    Schwarz Cutoff:          1E-12

    OpenMP threads:              1

  Minimum eigenvalue in the overlap matrix is 2.9226039429E-04.
  Using Symmetric Orthogonalization.

  SCF Guess: Superposition of Atomic Densities via on-the-fly atomic UHF.

  ==> Iterations <==

                        Total Energy        Delta E     RMS |[F,P]|

   @RHF iter SAD:  -512.69800830840722   -5.12698e+02   0.00000e+00
   @RHF iter   1:  -513.07357197083252   -3.75564e-01   2.60895e-03 DIIS
   @RHF iter   2:  -513.30674771566407   -2.33176e-01   1.02970e-03 DIIS
   @RHF iter   3:  -513.33982434761151   -3.30766e-02   2.55635e-04 DIIS
   @RHF iter   4:  -513.34297770149010   -3.15335e-03   5.66403e-05 DIIS
   @RHF iter   5:  -513.34311061172866   -1.32910e-04   1.97457e-05 DIIS
   @RHF iter   6:  -513.34312806288892   -1.74512e-05   6.27547e-06 DIIS
   @RHF iter   7:  -513.34312993019023   -1.86730e-06   1.73466e-06 DIIS
   @RHF iter   8:  -513.34313014714860   -2.16958e-07   4.44812e-07 DIIS
   @RHF iter   9:  -513.34313016079204   -1.36434e-08   1.47299e-07 DIIS
   @RHF iter  10:  -513.34313016234307   -1.55103e-09   6.24073e-08 DIIS
   @RHF iter  11:  -513.34313016284329   -5.00222e-10   3.07128e-08 DIIS
   @RHF iter  12:  -513.34313016299757   -1.54273e-10   1.55515e-08 DIIS
   @RHF iter  13:  -513.34313016303224   -3.46745e-11   4.90663e-09 DIIS
   @RHF iter  14:  -513.34313016303406   -1.81899e-12   1.42510e-09 DIIS
   @RHF iter  15:  -513.34313016303599   -1.93268e-12   4.92310e-10 DIIS
   @RHF iter  16:  -513.34313016303656   -5.68434e-13   1.66607e-10 DIIS
   @RHF iter  17:  -513.34313016303645    1.13687e-13   5.11624e-11 DIIS
  Energy and wave function converged.

  ==> Post-Iterations <==

    Orbital Energies [Eh]
    ---------------------

    Doubly Occupied:

       1A    -15.789673     2A    -15.788169     3A    -15.786678
       4A    -11.589395     5A    -11.443256     6A    -11.330221
       7A    -11.323628     8A    -11.321558     9A    -11.319872
      10A    -11.319804    11A    -11.313442    12A    -11.302591
      13A     -1.548198    14A     -1.403585    15A     -1.393781
      16A     -1.242829    17A     -1.142036    18A     -1.131648
      19A     -1.101879    20A     -1.040112    21A     -1.013515
      22A     -0.979844    23A     -0.940655    24A     -0.914782
      25A     -0.883293    26A     -0.862540    27A     -0.857722
      28A     -0.827755    29A     -0.794871    30A     -0.780167
      31A     -0.743976    32A     -0.723958    33A     -0.720419
      34A     -0.717919    35A     -0.672661    36A     -0.655365
      37A     -0.647949    38A     -0.619481    39A     -0.614016
      40A     -0.587648    41A     -0.575195    42A     -0.572303
      43A     -0.567527    44A     -0.421841    45A     -0.409104

    Virtual:

      46A     -0.013671    47A      0.019319    48A      0.025748
      49A      0.032864    50A      0.049005    51A      0.054736
      52A      0.061566    53A      0.081374    54A      0.094422
      55A      0.116941    56A      0.118849    57A      0.125913
      58A      0.130833    59A      0.145956    60A      0.163236
      61A      0.171724    62A      0.185634    63A      0.195750
      64A      0.200948    65A      0.220631    66A      0.281061
      67A      0.294390    68A      0.301328    69A      0.326187
      70A      0.330500    71A      0.365083    72A      0.375151
      73A      0.395390    74A      0.406054    75A      0.462985
      76A      0.470453    77A      0.479055    78A      0.499588
      79A      0.517227    80A      0.525456    81A      0.528385
      82A      0.546546    83A      0.557989    84A      0.561125
      85A      0.599122    86A      0.602354    87A      0.605278
      88A      0.620148    89A      0.646228    90A      0.653707
      91A      0.655910    92A      0.660574    93A      0.667599
      94A      0.678367    95A      0.682218    96A      0.692814
      97A      0.695269    98A      0.702613    99A      0.710279
     100A      0.714473   101A      0.739858   102A      0.751205
     103A      0.753282   104A      0.765942   105A      0.782531
     106A      0.790735   107A      0.801859   108A      0.804111
     109A      0.812243   110A      0.815317   111A      0.824328
     112A      0.846603   113A      0.852065   114A      0.857260
     115A      0.867575   116A      0.887706   117A      0.906868
     118A      0.910866   119A      0.914656   120A      0.925585
     121A      0.961380   122A      0.985789   123A      1.024575
     124A      1.035315   125A      1.040903   126A      1.057451
     127A      1.068359   128A      1.080131   129A      1.100016
     130A      1.107508   131A      1.140610   132A      1.148848
     133A      1.160527   134A      1.163162   135A      1.168720
     136A      1.185447   137A      1.195842   138A      1.210570
     139A      1.217377   140A      1.224095   141A      1.236424
     142A      1.243052   143A      1.261722   144A      1.294487
     145A      1.337182   146A      1.395572   147A      1.430978
     148A      1.446997   149A      1.477746   150A      1.489725
     151A      1.501354   152A      1.518349   153A      1.526514
     154A      1.550125   155A      1.569168   156A      1.602116
     157A      1.613929   158A      1.624348   159A      1.642730
     160A      1.656191   161A      1.662466   162A      1.667247
     163A      1.677457   164A      1.705980   165A      1.716766
     166A      1.725911   167A      1.740714   168A      1.751895
     169A      1.764426   170A      1.780310   171A      1.783662
     172A      1.791963   173A      1.803663   174A      1.820448
     175A      1.823101   176A      1.834720   177A      1.837138
     178A      1.851974   179A      1.854312   180A      1.864235
     181A      1.878769   182A      1.888033   183A      1.898137
     184A      1.910387   185A      1.916353   186A      1.960452
     187A      1.980694   188A      1.983555   189A      2.004609
     190A      2.021982   191A      2.027591   192A      2.058701
     193A      2.063124   194A      2.074902   195A      2.082498
     196A      2.096318   197A      2.100852   198A      2.108388
     199A      2.145206   200A      2.173466   201A      2.180284
     202A      2.197625   203A      2.212581   204A      2.216266
     205A      2.224476   206A      2.230225   207A      2.251077
     208A      2.265793   209A      2.296316   210A      2.334338
     211A      2.363328   212A      2.380401   213A      2.392671
     214A      2.396171   215A      2.416407   216A      2.420363
     217A      2.468243   218A      2.488549   219A      2.544318
     220A      2.555481   221A      2.587902   222A      2.600315
     223A      2.628086   224A      2.663142   225A      2.685333
     226A      2.696568   227A      2.701515   228A      2.704483
     229A      2.738740   230A      2.754286   231A      2.774064
     232A      2.799536   233A      2.801762   234A      2.812461
     235A      2.867304   236A      2.894457   237A      2.902483
     238A      2.929835   239A      2.936533   240A      3.069190
     241A      3.072173   242A      3.108411   243A      3.119631
     244A      3.135789   245A      3.222057   246A      3.554061
     247A      3.645899   248A      3.894140

    Final Occupation by Irrep:
              A
    DOCC [    45 ]

  @RHF Final Energy:  -513.34313016303645

   => Energetics <=

    Nuclear Repulsion Energy =            657.5772298348273353
    One-Electron Energy =               -1986.3669987866755946
    Two-Electron Energy =                 815.4466387888116969
    Total Energy =                       -513.3431301630364487

Computation Completed

Properties will be evaluated at   0.000000,   0.000000,   0.000000 [a0]

Properties computed using the SCF density matrix

  Nuclear Dipole Moment: [e a0]
     X:    -2.6730      Y:     5.0530      Z:    -0.2769

  Electronic Dipole Moment: [e a0]
     X:     1.4836      Y:    -2.4956      Z:     4.7943

  Dipole Moment: [e a0]
     X:    -1.1895      Y:     2.5573      Z:     4.5174     Total:     5.3256

  Dipole Moment: [D]
     X:    -3.0234      Y:     6.5001      Z:    11.4822     Total:    13.5363

*** tstop() called on ds3 at Mon Apr 27 22:44:30 2020
Module time:
	user time   =     170.41 seconds =       2.84 minutes
	system time =      70.65 seconds =       1.18 minutes
	total time  =        391 seconds =       6.52 minutes
Total time:
	user time   =     170.41 seconds =       2.84 minutes
	system time =      70.65 seconds =       1.18 minutes
	total time  =        391 seconds =       6.52 minutes
                                     G D M A

                                 by Anthony Stone

                           version 2.2.06, 22 June 2011

               Distributed Multipoles from Gaussian wavefunctions

Starting at 22:44:30 on 27 Apr 2020

Using SCF density matrix from file ./SSI/SSI-016ARG-047PHE-1-dimer.test.31503.fchk

                         Distributed Multipole Analysis

Standard DMA

Positions and radii in angstrom
Multipole moments in atomic units, ea_0^k for rank k

C          x = -2.093497  y =  2.714120  z =  1.436928 angstrom
           Maximum rank =  0   Radius =  0.650 angstrom
                   Q00  =  -0.128524

C          x = -0.529497  y =  1.283120  z =  2.712928 angstrom
           Maximum rank =  0   Radius =  0.650 angstrom
                   Q00  =   1.076783

N          x = -0.796497  y =  2.399120  z =  2.053928 angstrom
           Maximum rank =  0   Radius =  0.650 angstrom
                   Q00  =  -0.489703

N          x = -1.451497  y =  0.350120  z =  2.847928 angstrom
           Maximum rank =  0   Radius =  0.650 angstrom
                   Q00  =  -0.578159

N          x =  0.665503  y =  1.096120  z =  3.236928 angstrom
           Maximum rank =  0   Radius =  0.650 angstrom
                   Q00  =  -0.585470

H          x = -0.069497  y =  3.098120  z =  2.003928 angstrom
           Maximum rank =  0   Radius =  0.325 angstrom
                   Q00  =   0.235982

H          x = -2.369497  y =  0.508120  z =  2.466928 angstrom
           Maximum rank =  0   Radius =  0.325 angstrom
                   Q00  =   0.272048

H          x = -1.259497  y = -0.507880  z =  3.339928 angstrom
           Maximum rank =  0   Radius =  0.325 angstrom
                   Q00  =   0.271774

H          x =  1.358503  y =  1.827120  z =  3.166928 angstrom
           Maximum rank =  0   Radius =  0.325 angstrom
                   Q00  =   0.266514

H          x =  0.769503  y =  0.382120  z =  3.935928 angstrom
           Maximum rank =  0   Radius =  0.325 angstrom
                   Q00  =   0.261637

H          x = -2.817497  y =  2.937120  z =  2.222928 angstrom
           Maximum rank =  0   Radius =  0.325 angstrom
                   Q00  =   0.118684

H          x = -2.458497  y =  1.866120  z =  0.852928 angstrom
           Maximum rank =  0   Radius =  0.325 angstrom
                   Q00  =   0.117607

H          x = -2.023367  y =  3.587448  z =  0.771808 angstrom
           Maximum rank =  0   Radius =  0.325 angstrom
                   Q00  =   0.167649

C          x =  1.101503  y = -0.065880  z = -4.066072 angstrom
           Maximum rank =  0   Radius =  0.650 angstrom
                   Q00  =  -0.192523

C          x =  0.333503  y = -0.769880  z = -0.429072 angstrom
           Maximum rank =  0   Radius =  0.650 angstrom
                   Q00  =  -0.073250

C          x =  0.362503  y = -2.156880  z = -0.403072 angstrom
           Maximum rank =  0   Radius =  0.650 angstrom
                   Q00  =  -0.089153

C          x =  0.573503  y = -0.093880  z = -1.618072 angstrom
           Maximum rank =  0   Radius =  0.650 angstrom
                   Q00  =  -0.019213

C          x =  0.834503  y = -0.797880  z = -2.788072 angstrom
           Maximum rank =  0   Radius =  0.650 angstrom
                   Q00  =  -0.092015

C          x =  0.630503  y = -2.866880  z = -1.566072 angstrom
           Maximum rank =  0   Radius =  0.650 angstrom
                   Q00  =  -0.061924

C          x =  0.873503  y = -2.186880  z = -2.754072 angstrom
           Maximum rank =  0   Radius =  0.650 angstrom
                   Q00  =  -0.043327

H          x =  0.122503  y = -0.215880  z =  0.472928 angstrom
           Maximum rank =  0   Radius =  0.325 angstrom
                   Q00  =  -0.002560

H          x =  0.169503  y = -2.685880  z =  0.520928 angstrom
           Maximum rank =  0   Radius =  0.325 angstrom
                   Q00  =   0.048256

H          x =  0.541503  y =  0.985120  z = -1.632072 angstrom
           Maximum rank =  0   Radius =  0.325 angstrom
                   Q00  =   0.043539

H          x =  0.648503  y = -3.948880  z = -1.548072 angstrom
           Maximum rank =  0   Radius =  0.325 angstrom
                   Q00  =   0.080602

H          x =  0.466503  y =  0.821120  z = -4.124072 angstrom
           Maximum rank =  0   Radius =  0.325 angstrom
                   Q00  =   0.097273

H          x =  0.822503  y = -0.725880  z = -4.878072 angstrom
           Maximum rank =  0   Radius =  0.325 angstrom
                   Q00  =   0.108496

H          x =  1.086503  y = -2.747880  z = -3.654072 angstrom
           Maximum rank =  0   Radius =  0.325 angstrom
                   Q00  =   0.075419

H          x =  2.156083  y =  0.221799  z = -4.188952 angstrom
           Maximum rank =  0   Radius =  0.325 angstrom
                   Q00  =   0.113559

Total multipoles referred to origin at
           x =   0.000000,  y =    0.000000,  z =    0.000000 angstrom
                   Q00  =   1.000000

Finished at 22:44:30 on 27 Apr 2020

  DMA results are available in the Python driver through the
	  variable('DMA DISTRIBUTED MULTIPOLES')
  and
	  variable('DMA TOTAL MULTIPOLES')
  commands.

    Psi4 stopped on: Monday, 27 April 2020 10:44PM
    Psi4 wall time for execution: 0:06:31.34

*** Psi4 exiting successfully. Buy a developer a beer!
