                               Psi4 1.3.2 release

  ==> Input File <==

--------------------------------------------------------------------------
import numpy as np
set {scf_type pk
basis cc-pvdz
d_convergence 10
gdma_switch   0
gdma_limit    0
gdma_origin   [ 0.0,  0.0,  0.0 ]
}
molecule test {
    units Angstrom
    0 1
    --
    0 1
    C                2.162385234330926     1.165125435893090     2.689651335286533
    C                0.538385234330926    -0.264874564106910    -0.442348664713466
    C               -0.240614765669074     0.810125435893090    -0.866348664713466
    C                1.326385234330926    -0.135874564106910     0.700651335286534
    C                1.339385234330926     1.060125435893090     1.428651335286534
    C               -0.241614765669074     2.004125435893089    -0.147348664713466
    C                0.550385234330926     2.128125435893089     0.994651335286534
    O               -1.012614765669074     0.678125435893090    -1.977348664713466
    H                0.533385234330926    -1.182874564106910    -1.009348664713466
    H                1.929385234330926    -0.973874564106910     1.026651335286534
    H               -0.853614765669074     2.833125435893090    -0.470348664713466
    H               -1.549614765669074     1.477125435893089    -2.106348664713467
    H                2.685385234330926     0.226125435893090     2.834651335286533
    H                1.472385234330926     1.273125435893090     3.528651335286534
    H                0.538385234330926     3.055125435893089     1.554651335286533
    H                2.889515234330926     1.989355435893090     2.733551335286533
    C               -1.971614765669074    -2.766874564106910    -1.446348664713466
    C               -1.799614765669074    -3.941874564106910    -0.468348664713466
    H               -1.228614765669074    -2.804874564106910    -2.242348664713466
    H               -2.959614765669074    -2.815874564106910    -1.904348664713466
    H               -1.882614765669074    -1.823874564106910    -0.908348664713466
    H               -1.907614765669075    -4.864874564106911    -1.037348664713466
    H               -0.806864765669074    -3.931224564106910     0.005251335286534
    H               -2.595574765669074    -3.910984564106911     0.290251335286534

}
e, wfn = energy('scf', return_wfn=True)
gdma(wfn)
dmavals = variable('DMA DISTRIBUTED MULTIPOLES')
charges = np.array(dmavals)
print(charges)
np.save('SSI-040TYR-055VAL-1-dimer.npy', np.array(charges))--------------------------------------------------------------------------

*** tstart() called on ds3
*** at Sun Apr 26 17:32:10 2020

   => Loading Basis Set <=

    Name: CC-PVDZ
    Role: ORBITAL
    Keyword: BASIS
    atoms 1-7, 17-18  entry C          line   138 file /theoryfs2/ds/metcalf/miniconda2/envs/tf2gpu/share/psi4/basis/cc-pvdz.gbs
    atoms 8           entry O          line   198 file /theoryfs2/ds/metcalf/miniconda2/envs/tf2gpu/share/psi4/basis/cc-pvdz.gbs
    atoms 9-16, 19-24 entry H          line    22 file /theoryfs2/ds/metcalf/miniconda2/envs/tf2gpu/share/psi4/basis/cc-pvdz.gbs

         ---------------------------------------------------------
                                   SCF
               by Justin Turney, Rob Parrish, Andy Simmonett
                          and Daniel G. A. Smith
                              RHF Reference
                        1 Threads,    500 MiB Core
         ---------------------------------------------------------

  ==> Geometry <==

    Molecular point group: c1
    Full point group: C1

    Geometry (in Angstrom), charge = 0, multiplicity = 1:

       Center              X                  Y                   Z               Mass
    ------------   -----------------  -----------------  -----------------  -----------------
         C            2.162385234331     1.165125435893     2.689651335287    12.000000000000
         C            0.538385234331    -0.264874564107    -0.442348664713    12.000000000000
         C           -0.240614765669     0.810125435893    -0.866348664713    12.000000000000
         C            1.326385234331    -0.135874564107     0.700651335287    12.000000000000
         C            1.339385234331     1.060125435893     1.428651335287    12.000000000000
         C           -0.241614765669     2.004125435893    -0.147348664713    12.000000000000
         C            0.550385234331     2.128125435893     0.994651335287    12.000000000000
         O           -1.012614765669     0.678125435893    -1.977348664713    15.994914619570
         H            0.533385234331    -1.182874564107    -1.009348664713     1.007825032230
         H            1.929385234331    -0.973874564107     1.026651335287     1.007825032230
         H           -0.853614765669     2.833125435893    -0.470348664713     1.007825032230
         H           -1.549614765669     1.477125435893    -2.106348664713     1.007825032230
         H            2.685385234331     0.226125435893     2.834651335287     1.007825032230
         H            1.472385234331     1.273125435893     3.528651335287     1.007825032230
         H            0.538385234331     3.055125435893     1.554651335287     1.007825032230
         H            2.889515234331     1.989355435893     2.733551335287     1.007825032230
         C           -1.971614765669    -2.766874564107    -1.446348664713    12.000000000000
         C           -1.799614765669    -3.941874564107    -0.468348664713    12.000000000000
         H           -1.228614765669    -2.804874564107    -2.242348664713     1.007825032230
         H           -2.959614765669    -2.815874564107    -1.904348664713     1.007825032230
         H           -1.882614765669    -1.823874564107    -0.908348664713     1.007825032230
         H           -1.907614765669    -4.864874564107    -1.037348664713     1.007825032230
         H           -0.806864765669    -3.931224564107     0.005251335287     1.007825032230
         H           -2.595574765669    -3.910984564107     0.290251335287     1.007825032230

  Running in c1 symmetry.

  Rotational constants: A =      0.05868  B =      0.02076  C =      0.01628 [cm^-1]
  Rotational constants: A =   1759.12134  B =    622.35814  C =    488.04156 [MHz]
  Nuclear repulsion =  492.077507414932370

  Charge       = 0
  Multiplicity = 1
  Electrons    = 76
  Nalpha       = 38
  Nbeta        = 38

  ==> Algorithm <==

  SCF Algorithm Type is PK.
  DIIS enabled.
  MOM disabled.
  Fractional occupation disabled.
  Guess Type is SAD.
  Energy threshold   = 1.00e-06
  Density threshold  = 1.00e-10
  Integral threshold = 0.00e+00

  ==> Primary Basis <==

  Basis Set: CC-PVDZ
    Blend: CC-PVDZ
    Number of shells: 102
    Number of basis function: 210
    Number of Cartesian functions: 220
    Spherical Harmonics?: true
    Max angular momentum: 2

  ==> Pre-Iterations <==

   -------------------------------------------------------
    Irrep   Nso     Nmo     Nalpha   Nbeta   Ndocc  Nsocc
   -------------------------------------------------------
     A        210     210       0       0       0       0
   -------------------------------------------------------
    Total     210     210      38      38      38       0
   -------------------------------------------------------

  ==> Integral Setup <==

  Using integral reordering PK algorithm.
  Sizing the integral batches needed.
  Building batch lookup table.
   Calculation information:
      Number of atoms:                  24
      Number of AO shells:             102
      Number of primitives:            290
      Number of atomic orbitals:       220
      Number of basis functions:       210

      Integral cutoff                 1.00e-12
      Number of threads:                 1

	Batch   1 pq = [       0,    9405] index = [             0,44231715] size =     44231715
	Batch   2 pq = [    9405,   13301] index = [      44231715,88464951] size =     44233236
	Batch   3 pq = [   13301,   16290] index = [      88464951,132690195] size =     44225244
	Batch   4 pq = [   16290,   18810] index = [     132690195,176917455] size =     44227260
	Batch   5 pq = [   18810,   21030] index = [     176917455,221140965] size =     44223510
	Batch   6 pq = [   21030,   22155] index = [     221140965,245433090] size =     24292125
  Task number: 23
  Buffer size: 11059200
  Buffer per thread: 2
  We computed 11199861 shell quartets total.
  Whereas there are 13799631 unique shell quartets.

  ==> DiskJK: Disk-Based J/K Matrices <==

    J tasked:                  Yes
    K tasked:                  Yes
    wK tasked:                  No
    Memory [MiB]:              375
    Schwarz Cutoff:          1E-12

    OpenMP threads:              1

  Minimum eigenvalue in the overlap matrix is 3.2499381092E-04.
  Using Symmetric Orthogonalization.

  SCF Guess: Superposition of Atomic Densities via on-the-fly atomic UHF.

  ==> Iterations <==

                        Total Energy        Delta E     RMS |[F,P]|

   @RHF iter SAD:  -422.64740065716359   -4.22647e+02   0.00000e+00
   @RHF iter   1:  -423.60199236919937   -9.54592e-01   2.96846e-03 DIIS
   @RHF iter   2:  -423.81810502247868   -2.16113e-01   1.24969e-03 DIIS
   @RHF iter   3:  -423.85261369703346   -3.45087e-02   2.84228e-04 DIIS
   @RHF iter   4:  -423.85548826451054   -2.87457e-03   1.17625e-04 DIIS
   @RHF iter   5:  -423.85584484982013   -3.56585e-04   2.07909e-05 DIIS
   @RHF iter   6:  -423.85586242581576   -1.75760e-05   6.38890e-06 DIIS
   @RHF iter   7:  -423.85586404079362   -1.61498e-06   2.07491e-06 DIIS
   @RHF iter   8:  -423.85586425268491   -2.11891e-07   7.71248e-07 DIIS
   @RHF iter   9:  -423.85586428429963   -3.16147e-08   2.83016e-07 DIIS
   @RHF iter  10:  -423.85586428939052   -5.09090e-09   1.11272e-07 DIIS
   @RHF iter  11:  -423.85586429076074   -1.37021e-09   5.28375e-08 DIIS
   @RHF iter  12:  -423.85586429108173   -3.20995e-10   2.75884e-08 DIIS
   @RHF iter  13:  -423.85586429116620   -8.44693e-11   8.42669e-09 DIIS
   @RHF iter  14:  -423.85586429117097   -4.77485e-12   2.20463e-09 DIIS
   @RHF iter  15:  -423.85586429117058    3.97904e-13   7.15852e-10 DIIS
   @RHF iter  16:  -423.85586429117313   -2.55795e-12   2.40022e-10 DIIS
   @RHF iter  17:  -423.85586429117279    3.41061e-13   1.00294e-10 DIIS
   @RHF iter  18:  -423.85586429117012    2.67164e-12   5.05761e-11 DIIS
  Energy and wave function converged.

  ==> Post-Iterations <==

    Orbital Energies [Eh]
    ---------------------

    Doubly Occupied:

       1A    -20.585628     2A    -11.299178     3A    -11.240179
       4A    -11.239217     5A    -11.234774     6A    -11.234632
       7A    -11.229642     8A    -11.227364     9A    -11.213913
      10A    -11.207513    11A     -1.401666    12A     -1.148884
      13A     -1.035840    14A     -1.017854    15A     -1.008191
      16A     -0.925158    17A     -0.845299    18A     -0.829551
      19A     -0.800769    20A     -0.730128    21A     -0.668399
      22A     -0.642548    23A     -0.607443    24A     -0.593928
      25A     -0.590918    26A     -0.586330    27A     -0.582432
      28A     -0.569934    29A     -0.566111    30A     -0.527521
      31A     -0.498010    32A     -0.491039    33A     -0.486830
      34A     -0.479904    35A     -0.475025    36A     -0.466119
      37A     -0.338740    38A     -0.300508

    Virtual:

      39A      0.128657    40A      0.155843    41A      0.176924
      42A      0.181030    43A      0.192891    44A      0.218733
      45A      0.223436    46A      0.242527    47A      0.252383
      48A      0.266902    49A      0.270498    50A      0.272383
      51A      0.284379    52A      0.297569    53A      0.303794
      54A      0.333692    55A      0.369769    56A      0.373573
      57A      0.400251    58A      0.431335    59A      0.454054
      60A      0.488586    61A      0.493299    62A      0.509416
      63A      0.601933    64A      0.605813    65A      0.615404
      66A      0.621421    67A      0.627669    68A      0.651321
      69A      0.659765    70A      0.683685    71A      0.685010
      72A      0.699663    73A      0.713180    74A      0.717800
      75A      0.730163    76A      0.740166    77A      0.764244
      78A      0.772175    79A      0.783029    80A      0.789075
      81A      0.791812    82A      0.829344    83A      0.841586
      84A      0.859192    85A      0.872041    86A      0.879996
      87A      0.888197    88A      0.892971    89A      0.896894
      90A      0.899867    91A      0.902885    92A      0.918106
      93A      0.924501    94A      0.933265    95A      0.935484
      96A      0.944949    97A      0.954435    98A      0.985417
      99A      0.992649   100A      1.022605   101A      1.036300
     102A      1.070914   103A      1.117333   104A      1.128978
     105A      1.144433   106A      1.154685   107A      1.165815
     108A      1.175735   109A      1.211158   110A      1.233653
     111A      1.244303   112A      1.257936   113A      1.268132
     114A      1.291600   115A      1.294637   116A      1.307845
     117A      1.312044   118A      1.356050   119A      1.366208
     120A      1.381505   121A      1.480561   122A      1.482795
     123A      1.492781   124A      1.503416   125A      1.515071
     126A      1.549352   127A      1.584433   128A      1.620643
     129A      1.636392   130A      1.681631   131A      1.686729
     132A      1.698428   133A      1.710628   134A      1.734501
     135A      1.751475   136A      1.776733   137A      1.800342
     138A      1.808140   139A      1.865803   140A      1.877190
     141A      1.883474   142A      1.885238   143A      1.899355
     144A      1.903482   145A      1.904680   146A      1.918874
     147A      1.926488   148A      1.946776   149A      1.949840
     150A      1.953047   151A      1.955545   152A      1.959878
     153A      1.969297   154A      1.976054   155A      1.986039
     156A      2.018408   157A      2.032949   158A      2.048991
     159A      2.061713   160A      2.065018   161A      2.077931
     162A      2.097186   163A      2.106333   164A      2.135784
     165A      2.152959   166A      2.189257   167A      2.202855
     168A      2.218451   169A      2.251616   170A      2.279557
     171A      2.300414   172A      2.304147   173A      2.325278
     174A      2.363728   175A      2.377762   176A      2.390848
     177A      2.444814   178A      2.457897   179A      2.469484
     180A      2.483666   181A      2.496493   182A      2.532112
     183A      2.547692   184A      2.566536   185A      2.602063
     186A      2.611739   187A      2.637777   188A      2.734732
     189A      2.767610   190A      2.771111   191A      2.794581
     192A      2.802194   193A      2.812517   194A      2.850803
     195A      2.858320   196A      2.862779   197A      2.894916
     198A      2.953023   199A      2.962407   200A      2.986799
     201A      3.003165   202A      3.084719   203A      3.128287
     204A      3.256129   205A      3.277943   206A      3.338528
     207A      3.586771   208A      3.684959   209A      3.950532
     210A      4.182447

    Final Occupation by Irrep:
              A
    DOCC [    38 ]

  @RHF Final Energy:  -423.85586429117012

   => Energetics <=

    Nuclear Repulsion Energy =            492.0775074149323700
    One-Electron Energy =               -1550.0125060960438077
    Two-Electron Energy =                 634.0791343899412595
    Total Energy =                       -423.8558642911701781

Computation Completed

Properties will be evaluated at   0.000000,   0.000000,   0.000000 [a0]

Properties computed using the SCF density matrix

  Nuclear Dipole Moment: [e a0]
     X:    -3.5070      Y:   -10.7350      Z:     2.1422

  Electronic Dipole Moment: [e a0]
     X:     3.3831      Y:    11.3096      Z:    -1.8961

  Dipole Moment: [e a0]
     X:    -0.1238      Y:     0.5747      Z:     0.2461     Total:     0.6373

  Dipole Moment: [D]
     X:    -0.3147      Y:     1.4607      Z:     0.6254     Total:     1.6198

*** tstop() called on ds3 at Sun Apr 26 17:35:45 2020
Module time:
	user time   =      86.99 seconds =       1.45 minutes
	system time =      39.65 seconds =       0.66 minutes
	total time  =        215 seconds =       3.58 minutes
Total time:
	user time   =      86.99 seconds =       1.45 minutes
	system time =      39.65 seconds =       0.66 minutes
	total time  =        215 seconds =       3.58 minutes
                                     G D M A

                                 by Anthony Stone

                           version 2.2.06, 22 June 2011

               Distributed Multipoles from Gaussian wavefunctions

Starting at 17:35:45 on 26 Apr 2020

Using SCF density matrix from file ./SSI/SSI-040TYR-055VAL-1-dimer.test.18788.fchk

                         Distributed Multipole Analysis

Standard DMA

Positions and radii in angstrom
Multipole moments in atomic units, ea_0^k for rank k

C          x =  2.162385  y =  1.165125  z =  2.689651 angstrom
           Maximum rank =  0   Radius =  0.650 angstrom
                   Q00  =  -0.202021

C          x =  0.538385  y = -0.264875  z = -0.442349 angstrom
           Maximum rank =  0   Radius =  0.650 angstrom
                   Q00  =  -0.119812

C          x = -0.240615  y =  0.810125  z = -0.866349 angstrom
           Maximum rank =  0   Radius =  0.650 angstrom
                   Q00  =   0.363335

C          x =  1.326385  y = -0.135875  z =  0.700651 angstrom
           Maximum rank =  0   Radius =  0.650 angstrom
                   Q00  =   0.028696

C          x =  1.339385  y =  1.060125  z =  1.428651 angstrom
           Maximum rank =  0   Radius =  0.650 angstrom
                   Q00  =  -0.128753

C          x = -0.241615  y =  2.004125  z = -0.147349 angstrom
           Maximum rank =  0   Radius =  0.650 angstrom
                   Q00  =  -0.194703

C          x =  0.550385  y =  2.128125  z =  0.994651 angstrom
           Maximum rank =  0   Radius =  0.650 angstrom
                   Q00  =  -0.062928

O          x = -1.012615  y =  0.678125  z = -1.977349 angstrom
           Maximum rank =  0   Radius =  0.650 angstrom
                   Q00  =  -0.669952

H          x =  0.533385  y = -1.182875  z = -1.009349 angstrom
           Maximum rank =  0   Radius =  0.325 angstrom
                   Q00  =   0.086919

H          x =  1.929385  y = -0.973875  z =  1.026651 angstrom
           Maximum rank =  0   Radius =  0.325 angstrom
                   Q00  =   0.065798

H          x = -0.853615  y =  2.833125  z = -0.470349 angstrom
           Maximum rank =  0   Radius =  0.325 angstrom
                   Q00  =   0.071416

H          x = -1.549615  y =  1.477125  z = -2.106349 angstrom
           Maximum rank =  0   Radius =  0.325 angstrom
                   Q00  =   0.407316

H          x =  2.685385  y =  0.226125  z =  2.834651 angstrom
           Maximum rank =  0   Radius =  0.325 angstrom
                   Q00  =   0.096160

H          x =  1.472385  y =  1.273125  z =  3.528651 angstrom
           Maximum rank =  0   Radius =  0.325 angstrom
                   Q00  =   0.095647

H          x =  0.538385  y =  3.055125  z =  1.554651 angstrom
           Maximum rank =  0   Radius =  0.325 angstrom
                   Q00  =   0.068341

H          x =  2.889515  y =  1.989355  z =  2.733551 angstrom
           Maximum rank =  0   Radius =  0.325 angstrom
                   Q00  =   0.099306

C          x = -1.971615  y = -2.766875  z = -1.446349 angstrom
           Maximum rank =  0   Radius =  0.650 angstrom
                   Q00  =  -0.244691

C          x = -1.799615  y = -3.941875  z = -0.468349 angstrom
           Maximum rank =  0   Radius =  0.650 angstrom
                   Q00  =  -0.232908

H          x = -1.228615  y = -2.804875  z = -2.242349 angstrom
           Maximum rank =  0   Radius =  0.325 angstrom
                   Q00  =   0.077281

H          x = -2.959615  y = -2.815875  z = -1.904349 angstrom
           Maximum rank =  0   Radius =  0.325 angstrom
                   Q00  =   0.076225

H          x = -1.882615  y = -1.823875  z = -0.908349 angstrom
           Maximum rank =  0   Radius =  0.325 angstrom
                   Q00  =   0.088071

H          x = -1.907615  y = -4.864875  z = -1.037349 angstrom
           Maximum rank =  0   Radius =  0.325 angstrom
                   Q00  =   0.074816

H          x = -0.806865  y = -3.931225  z =  0.005251 angstrom
           Maximum rank =  0   Radius =  0.325 angstrom
                   Q00  =   0.077229

H          x = -2.595575  y = -3.910985  z =  0.290251 angstrom
           Maximum rank =  0   Radius =  0.325 angstrom
                   Q00  =   0.079212

Total multipoles referred to origin at
           x =   0.000000,  y =    0.000000,  z =    0.000000 angstrom
                   Q00  =  -0.000000

Finished at 17:35:45 on 26 Apr 2020

  DMA results are available in the Python driver through the
	  variable('DMA DISTRIBUTED MULTIPOLES')
  and
	  variable('DMA TOTAL MULTIPOLES')
  commands.

    Psi4 stopped on: Sunday, 26 April 2020 05:35PM
    Psi4 wall time for execution: 0:03:35.01

*** Psi4 exiting successfully. Buy a developer a beer!
