                               Psi4 1.3.2 release

  ==> Input File <==

--------------------------------------------------------------------------
import numpy as np
set {scf_type pk
basis cc-pvdz
d_convergence 10
gdma_switch   0
gdma_limit    0
gdma_origin   [ 0.0,  0.0,  0.0 ]
}
molecule test {
    units Angstrom
    0 1
    --
    0 1
    C                0.188874562287623     0.757342018711675    -1.434835195854002
    C                1.512874562287623     1.521342018711675    -1.678835195854002
    H               -0.132125437712377     0.236342018711674    -2.336835195854001
    H                0.365874562287623     0.044342018711674    -0.643835195854001
    H               -0.602125437712377     1.436342018711674    -1.109835195854002
    H                1.720874562287623     2.136342018711674    -0.806835195854001
    H                1.440094562287623     2.147842018711675    -2.580055195854001
    H                2.347924562287623     0.818782018711674    -1.817055195854001
    C               -0.729125437712377    -1.636657981288326     0.958164804145999
    C               -0.976125437712377    -0.642657981288325     2.155164804145998
    H               -0.990125437712377    -2.648657981288326     1.272164804145999
    H               -1.353125437712377    -1.360657981288325     0.106164804145999
    H                0.312874562287623    -1.657657981288325     0.643164804145999
    H               -0.950125437712377     0.372342018711674     1.754164804145999
    H               -0.161570437712377    -0.740037981288325     2.887984804145998
    H               -1.956750437712377    -0.777797981288325     2.634864804145999

}
e, wfn = energy('scf', return_wfn=True)
gdma(wfn)
dmavals = variable('DMA DISTRIBUTED MULTIPOLES')
charges = np.array(dmavals)
print(charges)
np.save('SSI-027VAL-088ILE-1-dimer.npy', np.array(charges))--------------------------------------------------------------------------

*** tstart() called on ds3
*** at Tue Apr 28 01:14:39 2020

   => Loading Basis Set <=

    Name: CC-PVDZ
    Role: ORBITAL
    Keyword: BASIS
    atoms 1-2, 9-10  entry C          line   138 file /theoryfs2/ds/metcalf/miniconda2/envs/tf2gpu/share/psi4/basis/cc-pvdz.gbs
    atoms 3-8, 11-16 entry H          line    22 file /theoryfs2/ds/metcalf/miniconda2/envs/tf2gpu/share/psi4/basis/cc-pvdz.gbs

         ---------------------------------------------------------
                                   SCF
               by Justin Turney, Rob Parrish, Andy Simmonett
                          and Daniel G. A. Smith
                              RHF Reference
                        1 Threads,    500 MiB Core
         ---------------------------------------------------------

  ==> Geometry <==

    Molecular point group: c1
    Full point group: C1

    Geometry (in Angstrom), charge = 0, multiplicity = 1:

       Center              X                  Y                   Z               Mass
    ------------   -----------------  -----------------  -----------------  -----------------
         C            0.188874562288     0.757342018712    -1.434835195854    12.000000000000
         C            1.512874562288     1.521342018712    -1.678835195854    12.000000000000
         H           -0.132125437712     0.236342018712    -2.336835195854     1.007825032230
         H            0.365874562288     0.044342018712    -0.643835195854     1.007825032230
         H           -0.602125437712     1.436342018712    -1.109835195854     1.007825032230
         H            1.720874562288     2.136342018712    -0.806835195854     1.007825032230
         H            1.440094562288     2.147842018712    -2.580055195854     1.007825032230
         H            2.347924562288     0.818782018712    -1.817055195854     1.007825032230
         C           -0.729125437712    -1.636657981288     0.958164804146    12.000000000000
         C           -0.976125437712    -0.642657981288     2.155164804146    12.000000000000
         H           -0.990125437712    -2.648657981288     1.272164804146     1.007825032230
         H           -1.353125437712    -1.360657981288     0.106164804146     1.007825032230
         H            0.312874562288    -1.657657981288     0.643164804146     1.007825032230
         H           -0.950125437712     0.372342018712     1.754164804146     1.007825032230
         H           -0.161570437712    -0.740037981288     2.887984804146     1.007825032230
         H           -1.956750437712    -0.777797981288     2.634864804146     1.007825032230

  Running in c1 symmetry.

  Rotational constants: A =      0.42317  B =      0.05654  C =      0.05399 [cm^-1]
  Rotational constants: A =  12686.26301  B =   1695.07031  C =   1618.61151 [MHz]
  Nuclear repulsion =  124.230893719381186

  Charge       = 0
  Multiplicity = 1
  Electrons    = 36
  Nalpha       = 18
  Nbeta        = 18

  ==> Algorithm <==

  SCF Algorithm Type is PK.
  DIIS enabled.
  MOM disabled.
  Fractional occupation disabled.
  Guess Type is SAD.
  Energy threshold   = 1.00e-06
  Density threshold  = 1.00e-10
  Integral threshold = 0.00e+00

  ==> Primary Basis <==

  Basis Set: CC-PVDZ
    Blend: CC-PVDZ
    Number of shells: 60
    Number of basis function: 116
    Number of Cartesian functions: 120
    Spherical Harmonics?: true
    Max angular momentum: 2

  ==> Pre-Iterations <==

   -------------------------------------------------------
    Irrep   Nso     Nmo     Nalpha   Nbeta   Ndocc  Nsocc
   -------------------------------------------------------
     A        116     116       0       0       0       0
   -------------------------------------------------------
    Total     116     116      18      18      18       0
   -------------------------------------------------------

  ==> Integral Setup <==

  Using integral reordering PK algorithm.
  Sizing the integral batches needed.
  Building batch lookup table.
   Calculation information:
      Number of atoms:                  16
      Number of AO shells:              60
      Number of primitives:            148
      Number of atomic orbitals:       120
      Number of basis functions:       116

      Integral cutoff                 1.00e-12
      Number of threads:                 1

	Batch   1 pq = [       0,    6786] index = [             0,23028291] size =     23028291
  Task number: 3
  Buffer size: 11059200
  Buffer per thread: 2
  We computed 1521596 shell quartets total.
  Whereas there are 1675365 unique shell quartets.

  ==> DiskJK: Disk-Based J/K Matrices <==

    J tasked:                  Yes
    K tasked:                  Yes
    wK tasked:                  No
    Memory [MiB]:              375
    Schwarz Cutoff:          1E-12

    OpenMP threads:              1

  Minimum eigenvalue in the overlap matrix is 7.1364584845E-03.
  Using Symmetric Orthogonalization.

  SCF Guess: Superposition of Atomic Densities via on-the-fly atomic UHF.

  ==> Iterations <==

                        Total Energy        Delta E     RMS |[F,P]|

   @RHF iter SAD:  -157.27897209338212   -1.57279e+02   0.00000e+00
   @RHF iter   1:  -158.30930725726338   -1.03034e+00   4.10081e-03 DIIS
   @RHF iter   2:  -158.43831657967306   -1.29009e-01   1.71205e-03 DIIS
   @RHF iter   3:  -158.45982432226822   -2.15077e-02   3.45656e-04 DIIS
   @RHF iter   4:  -158.46162137650884   -1.79705e-03   3.90961e-05 DIIS
   @RHF iter   5:  -158.46164543531421   -2.40588e-05   6.92436e-06 DIIS
   @RHF iter   6:  -158.46164613050448   -6.95190e-07   1.37481e-06 DIIS
   @RHF iter   7:  -158.46164614998904   -1.94846e-08   3.71092e-07 DIIS
   @RHF iter   8:  -158.46164615154396   -1.55492e-09   6.11780e-08 DIIS
   @RHF iter   9:  -158.46164615161774   -7.37828e-11   1.29541e-08 DIIS
   @RHF iter  10:  -158.46164615162058   -2.84217e-12   3.22360e-09 DIIS
   @RHF iter  11:  -158.46164615162090   -3.12639e-13   8.68180e-10 DIIS
   @RHF iter  12:  -158.46164615162056    3.41061e-13   2.07674e-10 DIIS
   @RHF iter  13:  -158.46164615162110   -5.40012e-13   3.80357e-11 DIIS
  Energy and wave function converged.

  ==> Post-Iterations <==

    Orbital Energies [Eh]
    ---------------------

    Doubly Occupied:

       1A    -11.223934     2A    -11.220913     3A    -11.219482
       4A    -11.215118     5A     -1.014153     6A     -1.006509
       7A     -0.844707     8A     -0.836715     9A     -0.604632
      10A     -0.595269    11A     -0.593659    12A     -0.583886
      13A     -0.503080    14A     -0.496580    15A     -0.490620
      16A     -0.489001    17A     -0.485168    18A     -0.475635

    Virtual:

      19A      0.172142    20A      0.201691    21A      0.222625
      22A      0.226799    23A      0.249906    24A      0.256170
      25A      0.269846    26A      0.278870    27A      0.287153
      28A      0.291944    29A      0.305663    30A      0.351937
      31A      0.384262    32A      0.410883    33A      0.581714
      34A      0.588209    35A      0.595657    36A      0.597715
      37A      0.617696    38A      0.631157    39A      0.677203
      40A      0.704807    41A      0.725719    42A      0.813809
      43A      0.820850    44A      0.859557    45A      0.880835
      46A      0.883640    47A      0.889049    48A      0.895485
      49A      0.898463    50A      0.901831    51A      0.920154
      52A      0.932997    53A      0.956379    54A      0.957340
      55A      0.983451    56A      1.028414    57A      1.115201
      58A      1.123002    59A      1.134105    60A      1.151269
      61A      1.228545    62A      1.283236    63A      1.447263
      64A      1.461924    65A      1.470980    66A      1.488827
      67A      1.574598    68A      1.610238    69A      1.683690
      70A      1.686519    71A      1.694436    72A      1.706861
      73A      1.840094    74A      1.862440    75A      1.871277
      76A      1.879840    77A      1.895013    78A      1.902449
      79A      1.911256    80A      1.925634    81A      1.927969
      82A      1.933996    83A      1.944871    84A      1.950129
      85A      1.960231    86A      1.971978    87A      1.989731
      88A      2.039972    89A      2.090379    90A      2.114258
      91A      2.147230    92A      2.167745    93A      2.289209
      94A      2.298635    95A      2.312266    96A      2.320499
      97A      2.422003    98A      2.445125    99A      2.457906
     100A      2.460262   101A      2.552922   102A      2.561502
     103A      2.591100   104A      2.602765   105A      2.759262
     106A      2.765340   107A      2.779637   108A      2.801190
     109A      2.836154   110A      2.841518   111A      2.859926
     112A      2.865798   113A      2.926271   114A      2.950115
     115A      2.974541   116A      2.992121

    Final Occupation by Irrep:
              A
    DOCC [    18 ]

  @RHF Final Energy:  -158.46164615162110

   => Energetics <=

    Nuclear Repulsion Energy =            124.2308937193811857
    One-Electron Energy =                -457.5869599210244587
    Two-Electron Energy =                 174.8944200500221768
    Total Energy =                       -158.4616461516210961

Computation Completed

Properties will be evaluated at   0.000000,   0.000000,   0.000000 [a0]

Properties computed using the SCF density matrix

  Nuclear Dipole Moment: [e a0]
     X:     0.0391      Y:     0.0071      Z:     0.0038

  Electronic Dipole Moment: [e a0]
     X:    -0.0488      Y:    -0.0343      Z:     0.0166

  Dipole Moment: [e a0]
     X:    -0.0097      Y:    -0.0273      Z:     0.0204     Total:     0.0354

  Dipole Moment: [D]
     X:    -0.0247      Y:    -0.0693      Z:     0.0518     Total:     0.0899

*** tstop() called on ds3 at Tue Apr 28 01:14:49 2020
Module time:
	user time   =       7.50 seconds =       0.12 minutes
	system time =       2.88 seconds =       0.05 minutes
	total time  =         10 seconds =       0.17 minutes
Total time:
	user time   =       7.50 seconds =       0.12 minutes
	system time =       2.88 seconds =       0.05 minutes
	total time  =         10 seconds =       0.17 minutes
                                     G D M A

                                 by Anthony Stone

                           version 2.2.06, 22 June 2011

               Distributed Multipoles from Gaussian wavefunctions

Starting at 1:14:49 on 28 Apr 2020

Using SCF density matrix from file ./SSI/SSI-027VAL-088ILE-1-dimer.test.6931.fchk

                         Distributed Multipole Analysis

Standard DMA

Positions and radii in angstrom
Multipole moments in atomic units, ea_0^k for rank k

C          x =  0.188875  y =  0.757342  z = -1.434835 angstrom
           Maximum rank =  0   Radius =  0.650 angstrom
                   Q00  =  -0.243992

C          x =  1.512875  y =  1.521342  z = -1.678835 angstrom
           Maximum rank =  0   Radius =  0.650 angstrom
                   Q00  =  -0.244479

H          x = -0.132125  y =  0.236342  z = -2.336835 angstrom
           Maximum rank =  0   Radius =  0.325 angstrom
                   Q00  =   0.080650

H          x =  0.365875  y =  0.044342  z = -0.643835 angstrom
           Maximum rank =  0   Radius =  0.325 angstrom
                   Q00  =   0.086084

H          x = -0.602125  y =  1.436342  z = -1.109835 angstrom
           Maximum rank =  0   Radius =  0.325 angstrom
                   Q00  =   0.079096

H          x =  1.720875  y =  2.136342  z = -0.806835 angstrom
           Maximum rank =  0   Radius =  0.325 angstrom
                   Q00  =   0.081098

H          x =  1.440095  y =  2.147842  z = -2.580055 angstrom
           Maximum rank =  0   Radius =  0.325 angstrom
                   Q00  =   0.079806

H          x =  2.347925  y =  0.818782  z = -1.817055 angstrom
           Maximum rank =  0   Radius =  0.325 angstrom
                   Q00  =   0.078480

C          x = -0.729125  y = -1.636658  z =  0.958165 angstrom
           Maximum rank =  0   Radius =  0.650 angstrom
                   Q00  =  -0.249570

C          x = -0.976125  y = -0.642658  z =  2.155165 angstrom
           Maximum rank =  0   Radius =  0.650 angstrom
                   Q00  =  -0.247000

H          x = -0.990125  y = -2.648658  z =  1.272165 angstrom
           Maximum rank =  0   Radius =  0.325 angstrom
                   Q00  =   0.081212

H          x = -1.353125  y = -1.360658  z =  0.106165 angstrom
           Maximum rank =  0   Radius =  0.325 angstrom
                   Q00  =   0.084387

H          x =  0.312875  y = -1.657658  z =  0.643165 angstrom
           Maximum rank =  0   Radius =  0.325 angstrom
                   Q00  =   0.083470

H          x = -0.950125  y =  0.372342  z =  1.754165 angstrom
           Maximum rank =  0   Radius =  0.325 angstrom
                   Q00  =   0.079752

H          x = -0.161570  y = -0.740038  z =  2.887985 angstrom
           Maximum rank =  0   Radius =  0.325 angstrom
                   Q00  =   0.083139

H          x = -1.956750  y = -0.777798  z =  2.634865 angstrom
           Maximum rank =  0   Radius =  0.325 angstrom
                   Q00  =   0.087867

Total multipoles referred to origin at
           x =   0.000000,  y =    0.000000,  z =    0.000000 angstrom
                   Q00  =  -0.000000

Finished at 1:14:49 on 28 Apr 2020

  DMA results are available in the Python driver through the
	  variable('DMA DISTRIBUTED MULTIPOLES')
  and
	  variable('DMA TOTAL MULTIPOLES')
  commands.

    Psi4 stopped on: Tuesday, 28 April 2020 01:14AM
    Psi4 wall time for execution: 0:00:10.27

*** Psi4 exiting successfully. Buy a developer a beer!
