                               Psi4 1.3.2 release

  ==> Input File <==

--------------------------------------------------------------------------
import numpy as np
set {scf_type pk
basis cc-pvdz
d_convergence 10
gdma_switch   0
gdma_limit    0
gdma_origin   [ 0.0,  0.0,  0.0 ]
}
molecule test {
    units Angstrom
    0 1
    --
    0 1
    C                1.458588517611121    -0.358984413199501    -2.411148017417170
    C                2.793588517611122    -0.501984413199501    -3.121148017417171
    H                0.961588517611121     0.556015586800499    -2.732148017417171
    H                0.820588517611121    -1.211984413199501    -2.640148017417171
    H                1.620588517611121    -0.329984413199501    -1.334148017417171
    H                3.249588517611122    -1.424984413199501    -2.764148017417170
    H                3.445388517611121     0.347443586800499    -2.868907017417170
    H                2.653578517611122    -0.581780413199501    -4.209280017417171
    C               -1.361411482388879    -2.354984413199501     2.141851982582830
    C               -1.153411482388879     0.410015586800499    -0.445148017417171
    C               -1.498411482388879    -0.764984413199501     0.211851982582829
    C               -0.232411482388879     1.284015586800499     0.126851982582829
    C               -0.921411482388879    -1.102984413199501     1.430851982582829
    C                0.298588517611121     0.983015586800499     1.371851982582829
    C               -0.028411482388879    -0.207984413199501     2.021851982582829
    O                0.132588517611121     2.442015586800498    -0.505148017417171
    H               -1.598411482388879     0.642015586800499    -1.402148017417171
    H               -2.215411482388879    -1.431984413199501    -0.243148017417171
    H               -0.307411482388879     2.532015586800498    -1.359148017417171
    H                0.936588517611121     1.705015586800499     1.834851982582829
    H               -0.717411482388879    -2.544984413199501     3.002851982582830
    H               -1.269411482388879    -3.196984413199501     1.454851982582829
    H                0.396588517611121    -0.427984413199501     2.992851982582829
    H               -2.404344482388879    -2.253707413199502     2.476567282582829

}
e, wfn = energy('scf', return_wfn=True)
gdma(wfn)
dmavals = variable('DMA DISTRIBUTED MULTIPOLES')
charges = np.array(dmavals)
print(charges)
np.save('SSI-008LEU-088TYR-1-dimer.npy', np.array(charges))--------------------------------------------------------------------------

*** tstart() called on ds3
*** at Mon Apr 27 16:35:01 2020

   => Loading Basis Set <=

    Name: CC-PVDZ
    Role: ORBITAL
    Keyword: BASIS
    atoms 1-2, 9-15  entry C          line   138 file /theoryfs2/ds/metcalf/miniconda2/envs/tf2gpu/share/psi4/basis/cc-pvdz.gbs
    atoms 3-8, 17-24 entry H          line    22 file /theoryfs2/ds/metcalf/miniconda2/envs/tf2gpu/share/psi4/basis/cc-pvdz.gbs
    atoms 16         entry O          line   198 file /theoryfs2/ds/metcalf/miniconda2/envs/tf2gpu/share/psi4/basis/cc-pvdz.gbs

         ---------------------------------------------------------
                                   SCF
               by Justin Turney, Rob Parrish, Andy Simmonett
                          and Daniel G. A. Smith
                              RHF Reference
                        1 Threads,    500 MiB Core
         ---------------------------------------------------------

  ==> Geometry <==

    Molecular point group: c1
    Full point group: C1

    Geometry (in Angstrom), charge = 0, multiplicity = 1:

       Center              X                  Y                   Z               Mass
    ------------   -----------------  -----------------  -----------------  -----------------
         C            1.458588517611    -0.358984413200    -2.411148017417    12.000000000000
         C            2.793588517611    -0.501984413200    -3.121148017417    12.000000000000
         H            0.961588517611     0.556015586800    -2.732148017417     1.007825032230
         H            0.820588517611    -1.211984413200    -2.640148017417     1.007825032230
         H            1.620588517611    -0.329984413200    -1.334148017417     1.007825032230
         H            3.249588517611    -1.424984413200    -2.764148017417     1.007825032230
         H            3.445388517611     0.347443586800    -2.868907017417     1.007825032230
         H            2.653578517611    -0.581780413200    -4.209280017417     1.007825032230
         C           -1.361411482389    -2.354984413200     2.141851982583    12.000000000000
         C           -1.153411482389     0.410015586800    -0.445148017417    12.000000000000
         C           -1.498411482389    -0.764984413200     0.211851982583    12.000000000000
         C           -0.232411482389     1.284015586800     0.126851982583    12.000000000000
         C           -0.921411482389    -1.102984413200     1.430851982583    12.000000000000
         C            0.298588517611     0.983015586800     1.371851982583    12.000000000000
         C           -0.028411482389    -0.207984413200     2.021851982583    12.000000000000
         O            0.132588517611     2.442015586800    -0.505148017417    15.994914619570
         H           -1.598411482389     0.642015586800    -1.402148017417     1.007825032230
         H           -2.215411482389    -1.431984413200    -0.243148017417     1.007825032230
         H           -0.307411482389     2.532015586800    -1.359148017417     1.007825032230
         H            0.936588517611     1.705015586800     1.834851982583     1.007825032230
         H           -0.717411482389    -2.544984413200     3.002851982583     1.007825032230
         H           -1.269411482389    -3.196984413200     1.454851982583     1.007825032230
         H            0.396588517611    -0.427984413200     2.992851982583     1.007825032230
         H           -2.404344482389    -2.253707413200     2.476567282583     1.007825032230

  Running in c1 symmetry.

  Rotational constants: A =      0.05179  B =      0.02414  C =      0.01985 [cm^-1]
  Rotational constants: A =   1552.74988  B =    723.56642  C =    595.07065 [MHz]
  Nuclear repulsion =  503.061645026264443

  Charge       = 0
  Multiplicity = 1
  Electrons    = 76
  Nalpha       = 38
  Nbeta        = 38

  ==> Algorithm <==

  SCF Algorithm Type is PK.
  DIIS enabled.
  MOM disabled.
  Fractional occupation disabled.
  Guess Type is SAD.
  Energy threshold   = 1.00e-06
  Density threshold  = 1.00e-10
  Integral threshold = 0.00e+00

  ==> Primary Basis <==

  Basis Set: CC-PVDZ
    Blend: CC-PVDZ
    Number of shells: 102
    Number of basis function: 210
    Number of Cartesian functions: 220
    Spherical Harmonics?: true
    Max angular momentum: 2

  ==> Pre-Iterations <==

   -------------------------------------------------------
    Irrep   Nso     Nmo     Nalpha   Nbeta   Ndocc  Nsocc
   -------------------------------------------------------
     A        210     210       0       0       0       0
   -------------------------------------------------------
    Total     210     210      38      38      38       0
   -------------------------------------------------------

  ==> Integral Setup <==

  Using integral reordering PK algorithm.
  Sizing the integral batches needed.
  Building batch lookup table.
   Calculation information:
      Number of atoms:                  24
      Number of AO shells:             102
      Number of primitives:            290
      Number of atomic orbitals:       220
      Number of basis functions:       210

      Integral cutoff                 1.00e-12
      Number of threads:                 1

	Batch   1 pq = [       0,    9405] index = [             0,44231715] size =     44231715
	Batch   2 pq = [    9405,   13301] index = [      44231715,88464951] size =     44233236
	Batch   3 pq = [   13301,   16290] index = [      88464951,132690195] size =     44225244
	Batch   4 pq = [   16290,   18810] index = [     132690195,176917455] size =     44227260
	Batch   5 pq = [   18810,   21030] index = [     176917455,221140965] size =     44223510
	Batch   6 pq = [   21030,   22155] index = [     221140965,245433090] size =     24292125
  Task number: 23
  Buffer size: 11059200
  Buffer per thread: 2
  We computed 12196115 shell quartets total.
  Whereas there are 13799631 unique shell quartets.

  ==> DiskJK: Disk-Based J/K Matrices <==

    J tasked:                  Yes
    K tasked:                  Yes
    wK tasked:                  No
    Memory [MiB]:              375
    Schwarz Cutoff:          1E-12

    OpenMP threads:              1

  Minimum eigenvalue in the overlap matrix is 3.2562600162E-04.
  Using Symmetric Orthogonalization.

  SCF Guess: Superposition of Atomic Densities via on-the-fly atomic UHF.

  ==> Iterations <==

                        Total Energy        Delta E     RMS |[F,P]|

   @RHF iter SAD:  -422.72425073075789   -4.22724e+02   0.00000e+00
   @RHF iter   1:  -423.59783082193940   -8.73580e-01   2.99442e-03 DIIS
   @RHF iter   2:  -423.81619655134438   -2.18366e-01   1.26577e-03 DIIS
   @RHF iter   3:  -423.85150899912162   -3.53124e-02   2.85628e-04 DIIS
   @RHF iter   4:  -423.85438014594138   -2.87115e-03   1.19474e-04 DIIS
   @RHF iter   5:  -423.85474465127311   -3.64505e-04   2.06469e-05 DIIS
   @RHF iter   6:  -423.85476188057493   -1.72293e-05   6.34686e-06 DIIS
   @RHF iter   7:  -423.85476342933299   -1.54876e-06   1.98321e-06 DIIS
   @RHF iter   8:  -423.85476362060007   -1.91267e-07   7.32242e-07 DIIS
   @RHF iter   9:  -423.85476364539034   -2.47903e-08   2.34496e-07 DIIS
   @RHF iter  10:  -423.85476364845402   -3.06369e-09   7.61242e-08 DIIS
   @RHF iter  11:  -423.85476364897937   -5.25347e-10   3.22885e-08 DIIS
   @RHF iter  12:  -423.85476364909579   -1.16415e-10   1.90643e-08 DIIS
   @RHF iter  13:  -423.85476364914228   -4.64979e-11   6.91345e-09 DIIS
   @RHF iter  14:  -423.85476364914814   -5.85487e-12   2.12537e-09 DIIS
   @RHF iter  15:  -423.85476364914837   -2.27374e-13   6.78661e-10 DIIS
   @RHF iter  16:  -423.85476364914973   -1.36424e-12   2.34084e-10 DIIS
   @RHF iter  17:  -423.85476364914911    6.25278e-13   1.02760e-10 DIIS
   @RHF iter  18:  -423.85476364914967   -5.68434e-13   5.18923e-11 DIIS
  Energy and wave function converged.

  ==> Post-Iterations <==

    Orbital Energies [Eh]
    ---------------------

    Doubly Occupied:

       1A    -20.584012     2A    -11.296809     3A    -11.238106
       4A    -11.236330     5A    -11.232713     6A    -11.232406
       7A    -11.228245     8A    -11.227614     9A    -11.213621
      10A    -11.209633    11A     -1.396806    12A     -1.151234
      13A     -1.038551    14A     -1.017619    15A     -1.015266
      16A     -0.926324    17A     -0.844570    18A     -0.829665
      19A     -0.800141    20A     -0.730816    21A     -0.667341
      22A     -0.640330    23A     -0.607196    24A     -0.597277
      25A     -0.595161    26A     -0.586172    27A     -0.583740
      28A     -0.571601    29A     -0.568270    30A     -0.527448
      31A     -0.498405    32A     -0.495342    33A     -0.483610
      34A     -0.480442    35A     -0.480032    36A     -0.464754
      37A     -0.337359    38A     -0.301416

    Virtual:

      39A      0.130485    40A      0.156100    41A      0.168567
      42A      0.185847    43A      0.199662    44A      0.216984
      45A      0.218610    46A      0.253441    47A      0.257409
      48A      0.263155    49A      0.271110    50A      0.275206
      51A      0.277147    52A      0.290589    53A      0.294867
      54A      0.304127    55A      0.368826    56A      0.375173
      57A      0.402127    58A      0.431671    59A      0.453561
      60A      0.485318    61A      0.496463    62A      0.506658
      63A      0.580566    64A      0.600292    65A      0.603612
      66A      0.611847    67A      0.629394    68A      0.640185
      69A      0.656330    70A      0.673141    71A      0.678395
      72A      0.697805    73A      0.713739    74A      0.731403
      75A      0.739844    76A      0.745887    77A      0.771571
      78A      0.776997    79A      0.781778    80A      0.791031
      81A      0.825097    82A      0.833744    83A      0.846609
      84A      0.870605    85A      0.878783    86A      0.885192
      87A      0.894073    88A      0.895723    89A      0.898370
      90A      0.901124    91A      0.905918    92A      0.919441
      93A      0.923281    94A      0.936774    95A      0.943121
      96A      0.946895    97A      0.961703    98A      0.977942
      99A      1.002528   100A      1.023649   101A      1.041489
     102A      1.065456   103A      1.125722   104A      1.130340
     105A      1.135886   106A      1.147812   107A      1.167408
     108A      1.179949   109A      1.215471   110A      1.226686
     111A      1.245682   112A      1.259456   113A      1.269622
     114A      1.301946   115A      1.303539   116A      1.314278
     117A      1.346762   118A      1.365133   119A      1.368309
     120A      1.385644   121A      1.472383   122A      1.483383
     123A      1.492568   124A      1.523357   125A      1.529374
     126A      1.567510   127A      1.585467   128A      1.622720
     129A      1.629744   130A      1.672334   131A      1.682173
     132A      1.688643   133A      1.702734   134A      1.737224
     135A      1.747002   136A      1.786680   137A      1.812147
     138A      1.820020   139A      1.863337   140A      1.871523
     141A      1.872911   142A      1.886622   143A      1.903232
     144A      1.907990   145A      1.921721   146A      1.929435
     147A      1.935643   148A      1.943522   149A      1.952325
     150A      1.955813   151A      1.960811   152A      1.968406
     153A      1.975567   154A      1.986331   155A      2.004704
     156A      2.030648   157A      2.048695   158A      2.052879
     159A      2.062104   160A      2.071734   161A      2.103080
     162A      2.109231   163A      2.123208   164A      2.127871
     165A      2.152422   166A      2.190470   167A      2.202223
     168A      2.220962   169A      2.258569   170A      2.276255
     171A      2.294682   172A      2.310407   173A      2.351803
     174A      2.368525   175A      2.393920   176A      2.402703
     177A      2.461279   178A      2.465702   179A      2.475066
     180A      2.483241   181A      2.507019   182A      2.525468
     183A      2.568840   184A      2.571380   185A      2.593960
     186A      2.616771   187A      2.648915   188A      2.750268
     189A      2.770927   190A      2.772132   191A      2.798734
     192A      2.803023   193A      2.815566   194A      2.833981
     195A      2.853389   196A      2.861129   197A      2.896743
     198A      2.958578   199A      2.968888   200A      2.985715
     201A      3.019006   202A      3.088091   203A      3.115783
     204A      3.249881   205A      3.300241   206A      3.346611
     207A      3.579570   208A      3.676534   209A      3.969781
     210A      4.193720

    Final Occupation by Irrep:
              A
    DOCC [    38 ]

  @RHF Final Energy:  -423.85476364914967

   => Energetics <=

    Nuclear Repulsion Energy =            503.0616450262644435
    One-Electron Energy =               -1571.9600646658443566
    Two-Electron Energy =                 645.0436559904303522
    Total Energy =                       -423.8547636491496178

Computation Completed

Properties will be evaluated at   0.000000,   0.000000,   0.000000 [a0]

Properties computed using the SCF density matrix

  Nuclear Dipole Moment: [e a0]
     X:     5.2243      Y:    -7.1335      Z:    -7.3065

  Electronic Dipole Moment: [e a0]
     X:    -5.6462      Y:     6.8350      Z:     7.0530

  Dipole Moment: [e a0]
     X:    -0.4219      Y:    -0.2985      Z:    -0.2535     Total:     0.5757

  Dipole Moment: [D]
     X:    -1.0724      Y:    -0.7588      Z:    -0.6444     Total:     1.4632

*** tstop() called on ds3 at Mon Apr 27 16:37:28 2020
Module time:
	user time   =     106.47 seconds =       1.77 minutes
	system time =      46.86 seconds =       0.78 minutes
	total time  =        147 seconds =       2.45 minutes
Total time:
	user time   =     106.47 seconds =       1.77 minutes
	system time =      46.86 seconds =       0.78 minutes
	total time  =        147 seconds =       2.45 minutes
                                     G D M A

                                 by Anthony Stone

                           version 2.2.06, 22 June 2011

               Distributed Multipoles from Gaussian wavefunctions

Starting at 16:37:28 on 27 Apr 2020

Using SCF density matrix from file ./SSI/SSI-008LEU-088TYR-1-dimer.test.27319.fchk

                         Distributed Multipole Analysis

Standard DMA

Positions and radii in angstrom
Multipole moments in atomic units, ea_0^k for rank k

C          x =  1.458589  y = -0.358984  z = -2.411148 angstrom
           Maximum rank =  0   Radius =  0.650 angstrom
                   Q00  =  -0.228092

C          x =  2.793589  y = -0.501984  z = -3.121148 angstrom
           Maximum rank =  0   Radius =  0.650 angstrom
                   Q00  =  -0.228421

H          x =  0.961589  y =  0.556016  z = -2.732148 angstrom
           Maximum rank =  0   Radius =  0.325 angstrom
                   Q00  =   0.055424

H          x =  0.820589  y = -1.211984  z = -2.640148 angstrom
           Maximum rank =  0   Radius =  0.325 angstrom
                   Q00  =   0.073508

H          x =  1.620589  y = -0.329984  z = -1.334148 angstrom
           Maximum rank =  0   Radius =  0.325 angstrom
                   Q00  =   0.090333

H          x =  3.249589  y = -1.424984  z = -2.764148 angstrom
           Maximum rank =  0   Radius =  0.325 angstrom
                   Q00  =   0.076535

H          x =  3.445389  y =  0.347444  z = -2.868907 angstrom
           Maximum rank =  0   Radius =  0.325 angstrom
                   Q00  =   0.079706

H          x =  2.653579  y = -0.581780  z = -4.209280 angstrom
           Maximum rank =  0   Radius =  0.325 angstrom
                   Q00  =   0.074168

C          x = -1.361411  y = -2.354984  z =  2.141852 angstrom
           Maximum rank =  0   Radius =  0.650 angstrom
                   Q00  =  -0.195504

C          x = -1.153411  y =  0.410016  z = -0.445148 angstrom
           Maximum rank =  0   Radius =  0.650 angstrom
                   Q00  =  -0.182256

C          x = -1.498411  y = -0.764984  z =  0.211852 angstrom
           Maximum rank =  0   Radius =  0.650 angstrom
                   Q00  =   0.050076

C          x = -0.232411  y =  1.284016  z =  0.126852 angstrom
           Maximum rank =  0   Radius =  0.650 angstrom
                   Q00  =   0.302145

C          x = -0.921411  y = -1.102984  z =  1.430852 angstrom
           Maximum rank =  0   Radius =  0.650 angstrom
                   Q00  =  -0.138462

C          x =  0.298589  y =  0.983016  z =  1.371852 angstrom
           Maximum rank =  0   Radius =  0.650 angstrom
                   Q00  =  -0.075384

C          x = -0.028411  y = -0.207984  z =  2.021852 angstrom
           Maximum rank =  0   Radius =  0.650 angstrom
                   Q00  =  -0.051004

O          x =  0.132589  y =  2.442016  z = -0.505148 angstrom
           Maximum rank =  0   Radius =  0.650 angstrom
                   Q00  =  -0.683333

H          x = -1.598411  y =  0.642016  z = -1.402148 angstrom
           Maximum rank =  0   Radius =  0.325 angstrom
                   Q00  =   0.071935

H          x = -2.215411  y = -1.431984  z = -0.243148 angstrom
           Maximum rank =  0   Radius =  0.325 angstrom
                   Q00  =   0.064708

H          x = -0.307411  y =  2.532016  z = -1.359148 angstrom
           Maximum rank =  0   Radius =  0.325 angstrom
                   Q00  =   0.408169

H          x =  0.936589  y =  1.705016  z =  1.834852 angstrom
           Maximum rank =  0   Radius =  0.325 angstrom
                   Q00  =   0.079444

H          x = -0.717411  y = -2.544984  z =  3.002852 angstrom
           Maximum rank =  0   Radius =  0.325 angstrom
                   Q00  =   0.096999

H          x = -1.269411  y = -3.196984  z =  1.454852 angstrom
           Maximum rank =  0   Radius =  0.325 angstrom
                   Q00  =   0.096154

H          x =  0.396589  y = -0.427984  z =  2.992852 angstrom
           Maximum rank =  0   Radius =  0.325 angstrom
                   Q00  =   0.065002

H          x = -2.404344  y = -2.253707  z =  2.476567 angstrom
           Maximum rank =  0   Radius =  0.325 angstrom
                   Q00  =   0.098150

Total multipoles referred to origin at
           x =   0.000000,  y =    0.000000,  z =    0.000000 angstrom
                   Q00  =  -0.000000

Finished at 16:37:28 on 27 Apr 2020

  DMA results are available in the Python driver through the
	  variable('DMA DISTRIBUTED MULTIPOLES')
  and
	  variable('DMA TOTAL MULTIPOLES')
  commands.

    Psi4 stopped on: Monday, 27 April 2020 04:37PM
    Psi4 wall time for execution: 0:02:27.48

*** Psi4 exiting successfully. Buy a developer a beer!
