                               Psi4 1.3.2 release

  ==> Input File <==

--------------------------------------------------------------------------
import numpy as np
set {scf_type pk
basis cc-pvdz
d_convergence 10
gdma_switch   0
gdma_limit    0
gdma_origin   [ 0.0,  0.0,  0.0 ]
}
molecule test {
    units Angstrom
    1 1
    --
    1 1
    C                0.453272947989551     1.450826165864509    -1.916720967383261
    O                0.771272947989551     1.106826165864508    -0.573720967383261
    H                0.821272947989551     1.938826165864509    -0.041720967383261
    H                0.418272947989551     2.535826165864508    -2.001720967383262
    H                1.236352947989551     1.052724165864509    -2.578764967383261
    H               -0.534927052010449     1.039076165864508    -2.169549967383261
    C               -0.629727052010449    -2.093173834135492     1.182279032616739
    N               -0.600727052010449    -0.600173834135491     1.245279032616739
    H               -0.204727052010449    -0.183173834135491     0.403279032616739
    H               -1.534727052010449    -0.229173834135491     1.383279032616739
    H               -0.035727052010449    -0.285173834135491     2.027279032616739
    H               -1.350727052010449    -2.430173834135492     0.428279032616739
    H               -0.961727052010449    -2.490173834135491     2.148279032616739
    H                0.353722947989551    -2.527368834135491     0.949261032616739

}
e, wfn = energy('scf', return_wfn=True)
gdma(wfn)
dmavals = variable('DMA DISTRIBUTED MULTIPOLES')
charges = np.array(dmavals)
print(charges)
np.save('SSI-025THR-103LYS-1-dimer.npy', np.array(charges))--------------------------------------------------------------------------

*** tstart() called on ds3
*** at Tue Apr 28 11:53:57 2020

   => Loading Basis Set <=

    Name: CC-PVDZ
    Role: ORBITAL
    Keyword: BASIS
    atoms 1, 7      entry C          line   138 file /theoryfs2/ds/metcalf/miniconda2/envs/tf2gpu/share/psi4/basis/cc-pvdz.gbs
    atoms 2         entry O          line   198 file /theoryfs2/ds/metcalf/miniconda2/envs/tf2gpu/share/psi4/basis/cc-pvdz.gbs
    atoms 3-6, 9-14 entry H          line    22 file /theoryfs2/ds/metcalf/miniconda2/envs/tf2gpu/share/psi4/basis/cc-pvdz.gbs
    atoms 8         entry N          line   168 file /theoryfs2/ds/metcalf/miniconda2/envs/tf2gpu/share/psi4/basis/cc-pvdz.gbs

         ---------------------------------------------------------
                                   SCF
               by Justin Turney, Rob Parrish, Andy Simmonett
                          and Daniel G. A. Smith
                              RHF Reference
                        1 Threads,    500 MiB Core
         ---------------------------------------------------------

  ==> Geometry <==

    Molecular point group: c1
    Full point group: C1

    Geometry (in Angstrom), charge = 1, multiplicity = 1:

       Center              X                  Y                   Z               Mass
    ------------   -----------------  -----------------  -----------------  -----------------
         C            0.453272947990     1.450826165865    -1.916720967383    12.000000000000
         O            0.771272947990     1.106826165865    -0.573720967383    15.994914619570
         H            0.821272947990     1.938826165865    -0.041720967383     1.007825032230
         H            0.418272947990     2.535826165865    -2.001720967383     1.007825032230
         H            1.236352947990     1.052724165865    -2.578764967383     1.007825032230
         H           -0.534927052010     1.039076165865    -2.169549967383     1.007825032230
         C           -0.629727052010    -2.093173834135     1.182279032617    12.000000000000
         N           -0.600727052010    -0.600173834135     1.245279032617    14.003074004430
         H           -0.204727052010    -0.183173834135     0.403279032617     1.007825032230
         H           -1.534727052010    -0.229173834135     1.383279032617     1.007825032230
         H           -0.035727052010    -0.285173834135     2.027279032617     1.007825032230
         H           -1.350727052010    -2.430173834135     0.428279032617     1.007825032230
         H           -0.961727052010    -2.490173834135     2.148279032617     1.007825032230
         H            0.353722947990    -2.527368834135     0.949261032617     1.007825032230

  Running in c1 symmetry.

  Rotational constants: A =      0.57469  B =      0.06528  C =      0.06241 [cm^-1]
  Rotational constants: A =  17228.78040  B =   1956.99196  C =   1870.90269 [MHz]
  Nuclear repulsion =  136.059098321348898

  Charge       = 1
  Multiplicity = 1
  Electrons    = 36
  Nalpha       = 18
  Nbeta        = 18

  ==> Algorithm <==

  SCF Algorithm Type is PK.
  DIIS enabled.
  MOM disabled.
  Fractional occupation disabled.
  Guess Type is SAD.
  Energy threshold   = 1.00e-06
  Density threshold  = 1.00e-10
  Integral threshold = 0.00e+00

  ==> Primary Basis <==

  Basis Set: CC-PVDZ
    Blend: CC-PVDZ
    Number of shells: 54
    Number of basis function: 106
    Number of Cartesian functions: 110
    Spherical Harmonics?: true
    Max angular momentum: 2

  ==> Pre-Iterations <==

   -------------------------------------------------------
    Irrep   Nso     Nmo     Nalpha   Nbeta   Ndocc  Nsocc
   -------------------------------------------------------
     A        106     106       0       0       0       0
   -------------------------------------------------------
    Total     106     106      18      18      18       0
   -------------------------------------------------------

  ==> Integral Setup <==

  Using in-core PK algorithm.
   Calculation information:
      Number of atoms:                  14
      Number of AO shells:              54
      Number of primitives:            138
      Number of atomic orbitals:       110
      Number of basis functions:       106

      Integral cutoff                 1.00e-12
      Number of threads:                 1

  Performing in-core PK
  Using 32165912 doubles for integral storage.
  We computed 936095 shell quartets total.
  Whereas there are 1103355 unique shell quartets.

  ==> DiskJK: Disk-Based J/K Matrices <==

    J tasked:                  Yes
    K tasked:                  Yes
    wK tasked:                  No
    Memory [MiB]:              375
    Schwarz Cutoff:          1E-12

    OpenMP threads:              1

  Minimum eigenvalue in the overlap matrix is 1.1353825232E-02.
  Using Symmetric Orthogonalization.

  SCF Guess: Superposition of Atomic Densities via on-the-fly atomic UHF.

  ==> Iterations <==

                        Total Energy        Delta E     RMS |[F,P]|

   @RHF iter SAD:  -209.90814385068904   -2.09908e+02   0.00000e+00
   @RHF iter   1:  -210.54833761441185   -6.40194e-01   3.99677e-03 DIIS
   @RHF iter   2:  -210.64358206738251   -9.52445e-02   1.68171e-03 DIIS
   @RHF iter   3:  -210.65667451574046   -1.30924e-02   5.16622e-04 DIIS
   @RHF iter   4:  -210.65845346266497   -1.77895e-03   1.02934e-04 DIIS
   @RHF iter   5:  -210.65853121756015   -7.77549e-05   2.78258e-05 DIIS
   @RHF iter   6:  -210.65853774451361   -6.52695e-06   5.76896e-06 DIIS
   @RHF iter   7:  -210.65853817536856   -4.30855e-07   1.55110e-06 DIIS
   @RHF iter   8:  -210.65853820777434   -3.24058e-08   5.64105e-07 DIIS
   @RHF iter   9:  -210.65853821062564   -2.85129e-09   1.12393e-07 DIIS
   @RHF iter  10:  -210.65853821077934   -1.53705e-10   2.20306e-08 DIIS
   @RHF iter  11:  -210.65853821078611   -6.76437e-12   6.33758e-09 DIIS
   @RHF iter  12:  -210.65853821078628   -1.70530e-13   1.43871e-09 DIIS
   @RHF iter  13:  -210.65853821078699   -7.10543e-13   3.42542e-10 DIIS
   @RHF iter  14:  -210.65853821078653    4.54747e-13   1.24935e-10 DIIS
   @RHF iter  15:  -210.65853821078659   -5.68434e-14   4.67470e-11 DIIS
  Energy and wave function converged.

  ==> Post-Iterations <==

    Orbital Energies [Eh]
    ---------------------

    Doubly Occupied:

       1A    -20.724329     2A    -15.883006     3A    -11.476599
       4A    -11.416674     5A     -1.517060     6A     -1.499889
       7A     -1.150117     8A     -1.063846     9A     -0.961054
      10A     -0.957872    11A     -0.848270    12A     -0.839399
      13A     -0.769064    14A     -0.753441    15A     -0.750258
      16A     -0.737780    17A     -0.648231    18A     -0.602724

    Virtual:

      19A     -0.036526    20A      0.027072    21A      0.034231
      22A      0.042668    23A      0.084964    24A      0.087816
      25A      0.096920    26A      0.119742    27A      0.148097
      28A      0.151752    29A      0.190415    30A      0.242857
      31A      0.376947    32A      0.382588    33A      0.440218
      34A      0.483235    35A      0.495594    36A      0.529898
      37A      0.556250    38A      0.591321    39A      0.641615
      40A      0.667421    41A      0.667992    42A      0.694195
      43A      0.709888    44A      0.724514    45A      0.743464
      46A      0.761341    47A      0.774280    48A      0.800469
      49A      0.847424    50A      0.922216    51A      0.927513
      52A      0.987991    53A      1.015246    54A      1.030635
      55A      1.100104    56A      1.149361    57A      1.186680
      58A      1.271870    59A      1.310682    60A      1.331226
      61A      1.476391    62A      1.480203    63A      1.498144
      64A      1.530581    65A      1.562291    66A      1.621432
      67A      1.666750    68A      1.694940    69A      1.700624
      70A      1.716146    71A      1.731742    72A      1.747737
      73A      1.774710    74A      1.787883    75A      1.823696
      76A      1.881496    77A      1.923452    78A      1.945981
      79A      1.952669    80A      1.967382    81A      1.976225
      82A      2.081156    83A      2.136207    84A      2.173097
      85A      2.246788    86A      2.257571    87A      2.265194
      88A      2.278590    89A      2.292835    90A      2.391071
      91A      2.485347    92A      2.504764    93A      2.544069
      94A      2.590611    95A      2.631483    96A      2.652387
      97A      2.729381    98A      2.749263    99A      2.811862
     100A      3.078745   101A      3.093942   102A      3.165232
     103A      3.212361   104A      3.276194   105A      3.419469
     106A      3.894434

    Final Occupation by Irrep:
              A
    DOCC [    18 ]

  @RHF Final Energy:  -210.65853821078659

   => Energetics <=

    Nuclear Repulsion Energy =            136.0590983213488983
    One-Electron Energy =                -548.2360441316176320
    Two-Electron Energy =                 201.5184075994821740
    Total Energy =                       -210.6585382107865883

Computation Completed

Properties will be evaluated at   0.000000,   0.000000,   0.000000 [a0]

Properties computed using the SCF density matrix

  Nuclear Dipole Moment: [e a0]
     X:    -1.6754      Y:    -1.4730      Z:     0.5073

  Electronic Dipole Moment: [e a0]
     X:     0.6223      Y:     0.9670      Z:     1.1609

  Dipole Moment: [e a0]
     X:    -1.0531      Y:    -0.5060      Z:     1.6682     Total:     2.0366

  Dipole Moment: [D]
     X:    -2.6766      Y:    -1.2862      Z:     4.2401     Total:     5.1766

*** tstop() called on ds3 at Tue Apr 28 11:54:04 2020
Module time:
	user time   =       6.32 seconds =       0.11 minutes
	system time =       0.29 seconds =       0.00 minutes
	total time  =          7 seconds =       0.12 minutes
Total time:
	user time   =       6.32 seconds =       0.11 minutes
	system time =       0.29 seconds =       0.00 minutes
	total time  =          7 seconds =       0.12 minutes
                                     G D M A

                                 by Anthony Stone

                           version 2.2.06, 22 June 2011

               Distributed Multipoles from Gaussian wavefunctions

Starting at 11:54:4 on 28 Apr 2020

Using SCF density matrix from file ./SSI/SSI-025THR-103LYS-1-dimer.test.18863.fchk

                         Distributed Multipole Analysis

Standard DMA

Positions and radii in angstrom
Multipole moments in atomic units, ea_0^k for rank k

C          x =  0.453273  y =  1.450826  z = -1.916721 angstrom
           Maximum rank =  0   Radius =  0.650 angstrom
                   Q00  =  -0.071230

O          x =  0.771273  y =  1.106826  z = -0.573721 angstrom
           Maximum rank =  0   Radius =  0.650 angstrom
                   Q00  =  -0.651496

H          x =  0.821273  y =  1.938826  z = -0.041721 angstrom
           Maximum rank =  0   Radius =  0.325 angstrom
                   Q00  =   0.428747

H          x =  0.418273  y =  2.535826  z = -2.001721 angstrom
           Maximum rank =  0   Radius =  0.325 angstrom
                   Q00  =   0.112076

H          x =  1.236353  y =  1.052724  z = -2.578765 angstrom
           Maximum rank =  0   Radius =  0.325 angstrom
                   Q00  =   0.131816

H          x = -0.534927  y =  1.039076  z = -2.169550 angstrom
           Maximum rank =  0   Radius =  0.325 angstrom
                   Q00  =   0.091142

C          x = -0.629727  y = -2.093174  z =  1.182279 angstrom
           Maximum rank =  0   Radius =  0.650 angstrom
                   Q00  =  -0.152161

N          x = -0.600727  y = -0.600174  z =  1.245279 angstrom
           Maximum rank =  0   Radius =  0.650 angstrom
                   Q00  =  -0.151067

H          x = -0.204727  y = -0.183174  z =  0.403279 angstrom
           Maximum rank =  0   Radius =  0.325 angstrom
                   Q00  =   0.287254

H          x = -1.534727  y = -0.229174  z =  1.383279 angstrom
           Maximum rank =  0   Radius =  0.325 angstrom
                   Q00  =   0.246835

H          x = -0.035727  y = -0.285174  z =  2.027279 angstrom
           Maximum rank =  0   Radius =  0.325 angstrom
                   Q00  =   0.249950

H          x = -1.350727  y = -2.430174  z =  0.428279 angstrom
           Maximum rank =  0   Radius =  0.325 angstrom
                   Q00  =   0.158137

H          x = -0.961727  y = -2.490174  z =  2.148279 angstrom
           Maximum rank =  0   Radius =  0.325 angstrom
                   Q00  =   0.153804

H          x =  0.353723  y = -2.527369  z =  0.949261 angstrom
           Maximum rank =  0   Radius =  0.325 angstrom
                   Q00  =   0.166192

Total multipoles referred to origin at
           x =   0.000000,  y =    0.000000,  z =    0.000000 angstrom
                   Q00  =   1.000000

Finished at 11:54:4 on 28 Apr 2020

  DMA results are available in the Python driver through the
	  variable('DMA DISTRIBUTED MULTIPOLES')
  and
	  variable('DMA TOTAL MULTIPOLES')
  commands.

    Psi4 stopped on: Tuesday, 28 April 2020 11:54AM
    Psi4 wall time for execution: 0:00:06.83

*** Psi4 exiting successfully. Buy a developer a beer!
