                               Psi4 1.3.2 release

  ==> Input File <==

--------------------------------------------------------------------------
import numpy as np
set {scf_type pk
basis cc-pvdz
d_convergence 10
gdma_switch   0
gdma_limit    0
gdma_origin   [ 0.0,  0.0,  0.0 ]
}
molecule test {
    units Angstrom
    0 1
    --
    0 1
    C                1.302348481376521    -0.809692812251954    -1.913351717488549
    C                0.860348481376521     0.719307187748046     0.089648282511451
    C                0.458348481376521    -0.168692812251954    -0.866351717488549
    C               -1.311651518623479     0.392307187748047     0.476648282511451
    C               -0.932651518623479    -0.399692812251954    -0.636351717488549
    C               -2.603651518623479     0.406307187748046     0.970648282511451
    C               -1.898651518623479    -1.198692812251954    -1.255351717488549
    C               -3.540651518623479    -0.389692812251954     0.338648282511451
    C               -3.192651518623479    -1.182692812251954    -0.762351717488549
    N               -0.194651518623479     1.061307187748046     0.892648282511451
    H                1.862348481376521     1.117307187748046     0.182648282511451
    H               -0.148651518623479     1.736307187748046     1.647648282511451
    H                1.021348481376521    -1.855692812251954    -1.999351717488550
    H                2.333348481376521    -0.790692812251954    -1.556351717488550
    H               -2.870651518623479     1.035307187748046     1.809648282511451
    H               -1.643651518623479    -1.807692812251954    -2.101351717488549
    H               -4.566651518623479    -0.387692812251954     0.688648282511451
    H               -3.932651518623478    -1.785692812251954    -1.252351717488549
    H                1.278638481376521    -0.346242812251954    -2.910671717488549
    C                4.128348481376521     0.118307187748046     1.317648282511451
    C                5.171348481376520     1.206307187748046     1.068648282511451
    H                3.340348481376521     0.467307187748046     1.984648282511451
    H                3.689348481376521    -0.180692812251954     0.367648282511451
    H                4.606348481376521    -0.772692812251954     1.713648282511451
    H                5.988348481376521     0.751307187748046     0.507648282511451
    H                5.565848481376520     1.615097187748046     2.010588282511451
    H                4.745618481376520     2.015997187748047     0.457778282511451

}
e, wfn = energy('scf', return_wfn=True)
gdma(wfn)
dmavals = variable('DMA DISTRIBUTED MULTIPOLES')
charges = np.array(dmavals)
print(charges)
np.save('SSI-035TRP-157VAL-1-dimer.npy', np.array(charges))--------------------------------------------------------------------------

*** tstart() called on ds3
*** at Tue Apr 28 08:51:03 2020

   => Loading Basis Set <=

    Name: CC-PVDZ
    Role: ORBITAL
    Keyword: BASIS
    atoms 1-9, 20-21   entry C          line   138 file /theoryfs2/ds/metcalf/miniconda2/envs/tf2gpu/share/psi4/basis/cc-pvdz.gbs
    atoms 10           entry N          line   168 file /theoryfs2/ds/metcalf/miniconda2/envs/tf2gpu/share/psi4/basis/cc-pvdz.gbs
    atoms 11-19, 22-27 entry H          line    22 file /theoryfs2/ds/metcalf/miniconda2/envs/tf2gpu/share/psi4/basis/cc-pvdz.gbs

         ---------------------------------------------------------
                                   SCF
               by Justin Turney, Rob Parrish, Andy Simmonett
                          and Daniel G. A. Smith
                              RHF Reference
                        1 Threads,    500 MiB Core
         ---------------------------------------------------------

  ==> Geometry <==

    Molecular point group: c1
    Full point group: C1

    Geometry (in Angstrom), charge = 0, multiplicity = 1:

       Center              X                  Y                   Z               Mass
    ------------   -----------------  -----------------  -----------------  -----------------
         C            1.302348481377    -0.809692812252    -1.913351717489    12.000000000000
         C            0.860348481377     0.719307187748     0.089648282511    12.000000000000
         C            0.458348481377    -0.168692812252    -0.866351717489    12.000000000000
         C           -1.311651518623     0.392307187748     0.476648282511    12.000000000000
         C           -0.932651518623    -0.399692812252    -0.636351717489    12.000000000000
         C           -2.603651518623     0.406307187748     0.970648282511    12.000000000000
         C           -1.898651518623    -1.198692812252    -1.255351717489    12.000000000000
         C           -3.540651518623    -0.389692812252     0.338648282511    12.000000000000
         C           -3.192651518623    -1.182692812252    -0.762351717489    12.000000000000
         N           -0.194651518623     1.061307187748     0.892648282511    14.003074004430
         H            1.862348481377     1.117307187748     0.182648282511     1.007825032230
         H           -0.148651518623     1.736307187748     1.647648282511     1.007825032230
         H            1.021348481377    -1.855692812252    -1.999351717489     1.007825032230
         H            2.333348481377    -0.790692812252    -1.556351717489     1.007825032230
         H           -2.870651518623     1.035307187748     1.809648282511     1.007825032230
         H           -1.643651518623    -1.807692812252    -2.101351717489     1.007825032230
         H           -4.566651518623    -0.387692812252     0.688648282511     1.007825032230
         H           -3.932651518623    -1.785692812252    -1.252351717489     1.007825032230
         H            1.278638481377    -0.346242812252    -2.910671717489     1.007825032230
         C            4.128348481377     0.118307187748     1.317648282511    12.000000000000
         C            5.171348481377     1.206307187748     1.068648282511    12.000000000000
         H            3.340348481377     0.467307187748     1.984648282511     1.007825032230
         H            3.689348481377    -0.180692812252     0.367648282511     1.007825032230
         H            4.606348481377    -0.772692812252     1.713648282511     1.007825032230
         H            5.988348481377     0.751307187748     0.507648282511     1.007825032230
         H            5.565848481377     1.615097187748     2.010588282511     1.007825032230
         H            4.745618481377     2.015997187748     0.457778282511     1.007825032230

  Running in c1 symmetry.

  Rotational constants: A =      0.06752  B =      0.01338  C =      0.01162 [cm^-1]
  Rotational constants: A =   2024.26117  B =    401.21840  C =    348.45588 [MHz]
  Nuclear repulsion =  645.194288638830017

  Charge       = 0
  Multiplicity = 1
  Electrons    = 88
  Nalpha       = 44
  Nbeta        = 44

  ==> Algorithm <==

  SCF Algorithm Type is PK.
  DIIS enabled.
  MOM disabled.
  Fractional occupation disabled.
  Guess Type is SAD.
  Energy threshold   = 1.00e-06
  Density threshold  = 1.00e-10
  Integral threshold = 0.00e+00

  ==> Primary Basis <==

  Basis Set: CC-PVDZ
    Blend: CC-PVDZ
    Number of shells: 117
    Number of basis function: 243
    Number of Cartesian functions: 255
    Spherical Harmonics?: true
    Max angular momentum: 2

  ==> Pre-Iterations <==

   -------------------------------------------------------
    Irrep   Nso     Nmo     Nalpha   Nbeta   Ndocc  Nsocc
   -------------------------------------------------------
     A        243     243       0       0       0       0
   -------------------------------------------------------
    Total     243     243      44      44      44       0
   -------------------------------------------------------

  ==> Integral Setup <==

  Using integral reordering PK algorithm.
  Sizing the integral batches needed.
  Building batch lookup table.
   Calculation information:
      Number of atoms:                  27
      Number of AO shells:             117
      Number of primitives:            339
      Number of atomic orbitals:       255
      Number of basis functions:       243

      Integral cutoff                 1.00e-12
      Number of threads:                 1

	Batch   1 pq = [       0,    9405] index = [             0,44231715] size =     44231715
	Batch   2 pq = [    9405,   13301] index = [      44231715,88464951] size =     44233236
	Batch   3 pq = [   13301,   16290] index = [      88464951,132690195] size =     44225244
	Batch   4 pq = [   16290,   18810] index = [     132690195,176917455] size =     44227260
	Batch   5 pq = [   18810,   21030] index = [     176917455,221140965] size =     44223510
	Batch   6 pq = [   21030,   23037] index = [     221140965,265363203] size =     44222238
	Batch   7 pq = [   23037,   24883] index = [     265363203,309594286] size =     44231083
	Batch   8 pq = [   24883,   26601] index = [     309594286,353819901] size =     44225615
	Batch   9 pq = [   26601,   28214] index = [     353819901,398029005] size =     44209104
	Batch  10 pq = [   28214,   29646] index = [     398029005,439457481] size =     41428476
  Task number: 40
  Buffer size: 11059200
  Buffer per thread: 2
  We computed 20030066 shell quartets total.
  Whereas there are 23829156 unique shell quartets.

  ==> DiskJK: Disk-Based J/K Matrices <==

    J tasked:                  Yes
    K tasked:                  Yes
    wK tasked:                  No
    Memory [MiB]:              375
    Schwarz Cutoff:          1E-12

    OpenMP threads:              1

  Minimum eigenvalue in the overlap matrix is 2.3377172030E-04.
  Using Symmetric Orthogonalization.

  SCF Guess: Superposition of Atomic Densities via on-the-fly atomic UHF.

  ==> Iterations <==

                        Total Energy        Delta E     RMS |[F,P]|

   @RHF iter SAD:  -479.15081001887944   -4.79151e+02   0.00000e+00
   @RHF iter   1:  -479.48424667651796   -3.33437e-01   2.62012e-03 DIIS
   @RHF iter   2:  -479.71853078932725   -2.34284e-01   1.17185e-03 DIIS
   @RHF iter   3:  -479.76122646754254   -4.26957e-02   3.10501e-04 DIIS
   @RHF iter   4:  -479.76514811289724   -3.92165e-03   1.41826e-04 DIIS
   @RHF iter   5:  -479.76582265218377   -6.74539e-04   1.98930e-05 DIIS
   @RHF iter   6:  -479.76585076240315   -2.81102e-05   9.12893e-06 DIIS
   @RHF iter   7:  -479.76585634620551   -5.58380e-06   3.64293e-06 DIIS
   @RHF iter   8:  -479.76585784435031   -1.49814e-06   1.41954e-06 DIIS
   @RHF iter   9:  -479.76585812989151   -2.85541e-07   6.24993e-07 DIIS
   @RHF iter  10:  -479.76585818610749   -5.62160e-08   2.83690e-07 DIIS
   @RHF iter  11:  -479.76585820039566   -1.42882e-08   1.10347e-07 DIIS
   @RHF iter  12:  -479.76585820255525   -2.15960e-09   3.67092e-08 DIIS
   @RHF iter  13:  -479.76585820271248   -1.57229e-10   9.61497e-09 DIIS
   @RHF iter  14:  -479.76585820272589   -1.34150e-11   3.96992e-09 DIIS
   @RHF iter  15:  -479.76585820273050   -4.60432e-12   2.06377e-09 DIIS
   @RHF iter  16:  -479.76585820272953    9.66338e-13   9.10633e-10 DIIS
   @RHF iter  17:  -479.76585820273056   -1.02318e-12   3.90250e-10 DIIS
   @RHF iter  18:  -479.76585820272663    3.92220e-12   1.54100e-10 DIIS
   @RHF iter  19:  -479.76585820273345   -6.82121e-12   4.95762e-11 DIIS
  Energy and wave function converged.

  ==> Post-Iterations <==

    Orbital Energies [Eh]
    ---------------------

    Doubly Occupied:

       1A    -15.600909     2A    -11.261662     3A    -11.260468
       4A    -11.228463     5A    -11.226891     6A    -11.226388
       7A    -11.225457     8A    -11.224574     9A    -11.221877
      10A    -11.217716    11A    -11.217103    12A    -11.214380
      13A     -1.297213    14A     -1.129237    15A     -1.073941
      16A     -1.025446    17A     -0.998553    18A     -0.986381
      19A     -0.931177    20A     -0.844974    21A     -0.837952
      22A     -0.804113    23A     -0.753798    24A     -0.720738
      25A     -0.662733    26A     -0.641944    27A     -0.607658
      28A     -0.604826    29A     -0.600504    30A     -0.592796
      31A     -0.590362    32A     -0.565213    33A     -0.552101
      34A     -0.539905    35A     -0.525434    36A     -0.507277
      37A     -0.494877    38A     -0.493511    39A     -0.487445
      40A     -0.469186    41A     -0.461525    42A     -0.372381
      43A     -0.294801    44A     -0.272533

    Virtual:

      45A      0.126917    46A      0.166399    47A      0.172264
      48A      0.180351    49A      0.195328    50A      0.210451
      51A      0.217923    52A      0.227880    53A      0.234133
      54A      0.244066    55A      0.251123    56A      0.257964
      57A      0.267665    58A      0.279022    59A      0.283911
      60A      0.299378    61A      0.330904    62A      0.365244
      63A      0.385076    64A      0.388706    65A      0.404165
      66A      0.413763    67A      0.434084    68A      0.450478
      69A      0.480673    70A      0.491773    71A      0.507558
      72A      0.514498    73A      0.583767    74A      0.592767
      75A      0.600123    76A      0.612004    77A      0.622381
      78A      0.634255    79A      0.653668    80A      0.670428
      81A      0.685759    82A      0.692276    83A      0.703423
      84A      0.716021    85A      0.726233    86A      0.738480
      87A      0.743773    88A      0.745147    89A      0.746438
      90A      0.758806    91A      0.762193    92A      0.771710
      93A      0.795595    94A      0.797283    95A      0.820791
      96A      0.842304    97A      0.846238    98A      0.871494
      99A      0.879078   100A      0.879887   101A      0.885738
     102A      0.888340   103A      0.893572   104A      0.902667
     105A      0.903810   106A      0.906966   107A      0.926242
     108A      0.932517   109A      0.946294   110A      0.955886
     111A      0.971154   112A      0.981884   113A      0.986068
     114A      0.994614   115A      1.021021   116A      1.051205
     117A      1.063913   118A      1.071220   119A      1.096466
     120A      1.111542   121A      1.121873   122A      1.138214
     123A      1.139128   124A      1.156514   125A      1.168147
     126A      1.178982   127A      1.214453   128A      1.226948
     129A      1.236552   130A      1.250038   131A      1.259281
     132A      1.273435   133A      1.287863   134A      1.294515
     135A      1.306453   136A      1.334256   137A      1.342874
     138A      1.361904   139A      1.380971   140A      1.423189
     141A      1.450827   142A      1.464187   143A      1.483248
     144A      1.523214   145A      1.554630   146A      1.567293
     147A      1.581728   148A      1.600666   149A      1.630146
     150A      1.649496   151A      1.670807   152A      1.676309
     153A      1.687847   154A      1.692771   155A      1.721833
     156A      1.746667   157A      1.763196   158A      1.785715
     159A      1.795069   160A      1.819968   161A      1.833494
     162A      1.837376   163A      1.855406   164A      1.877385
     165A      1.882980   166A      1.888130   167A      1.892256
     168A      1.909200   169A      1.918254   170A      1.931948
     171A      1.934373   172A      1.936169   173A      1.944973
     174A      1.947224   175A      1.948515   176A      1.954820
     177A      1.963115   178A      1.979126   179A      1.985020
     180A      2.002231   181A      2.016782   182A      2.042894
     183A      2.067621   184A      2.077016   185A      2.084476
     186A      2.091747   187A      2.104552   188A      2.110097
     189A      2.116637   190A      2.125795   191A      2.145966
     192A      2.159331   193A      2.168489   194A      2.171755
     195A      2.187363   196A      2.233264   197A      2.271261
     198A      2.285878   199A      2.306385   200A      2.312131
     201A      2.319530   202A      2.321158   203A      2.340967
     204A      2.352670   205A      2.405907   206A      2.417872
     207A      2.450500   208A      2.457683   209A      2.462283
     210A      2.470678   211A      2.547129   212A      2.557693
     213A      2.577923   214A      2.599151   215A      2.614740
     216A      2.645950   217A      2.670928   218A      2.690621
     219A      2.709137   220A      2.758682   221A      2.778051
     222A      2.784166   223A      2.791123   224A      2.798091
     225A      2.811911   226A      2.836375   227A      2.854656
     228A      2.859407   229A      2.880268   230A      2.896049
     231A      2.923487   232A      2.956659   233A      2.974722
     234A      2.987164   235A      3.035042   236A      3.066222
     237A      3.086524   238A      3.128815   239A      3.219228
     240A      3.322555   241A      3.389366   242A      3.756761
     243A      3.971932

    Final Occupation by Irrep:
              A
    DOCC [    44 ]

  @RHF Final Energy:  -479.76585820273345

   => Energetics <=

    Nuclear Repulsion Energy =            645.1942886388300167
    One-Electron Energy =               -1928.1874521413360526
    Two-Electron Energy =                 803.2273052997724108
    Total Energy =                       -479.7658582027335115

Computation Completed

Properties will be evaluated at   0.000000,   0.000000,   0.000000 [a0]

Properties computed using the SCF density matrix

  Nuclear Dipole Moment: [e a0]
     X:    19.9399      Y:     0.7577      Z:     1.4509

  Electronic Dipole Moment: [e a0]
     X:   -19.4436      Y:    -0.2728      Z:    -1.0103

  Dipole Moment: [e a0]
     X:     0.4963      Y:     0.4849      Z:     0.4407     Total:     0.8220

  Dipole Moment: [D]
     X:     1.2614      Y:     1.2326      Z:     1.1200     Total:     2.0892

*** tstop() called on ds3 at Tue Apr 28 08:55:00 2020
Module time:
	user time   =     166.55 seconds =       2.78 minutes
	system time =      79.13 seconds =       1.32 minutes
	total time  =        237 seconds =       3.95 minutes
Total time:
	user time   =     166.55 seconds =       2.78 minutes
	system time =      79.13 seconds =       1.32 minutes
	total time  =        237 seconds =       3.95 minutes
                                     G D M A

                                 by Anthony Stone

                           version 2.2.06, 22 June 2011

               Distributed Multipoles from Gaussian wavefunctions

Starting at 8:55:0 on 28 Apr 2020

Using SCF density matrix from file ./SSI/SSI-035TRP-157VAL-1-dimer.test.16094.fchk

                         Distributed Multipole Analysis

Standard DMA

Positions and radii in angstrom
Multipole moments in atomic units, ea_0^k for rank k

C          x =  1.302348  y = -0.809693  z = -1.913352 angstrom
           Maximum rank =  0   Radius =  0.650 angstrom
                   Q00  =  -0.213009

C          x =  0.860348  y =  0.719307  z =  0.089648 angstrom
           Maximum rank =  0   Radius =  0.650 angstrom
                   Q00  =   0.074542

C          x =  0.458348  y = -0.168693  z = -0.866352 angstrom
           Maximum rank =  0   Radius =  0.650 angstrom
                   Q00  =  -0.129156

C          x = -1.311652  y =  0.392307  z =  0.476648 angstrom
           Maximum rank =  0   Radius =  0.650 angstrom
                   Q00  =   0.293237

C          x = -0.932652  y = -0.399693  z = -0.636352 angstrom
           Maximum rank =  0   Radius =  0.650 angstrom
                   Q00  =  -0.045248

C          x = -2.603652  y =  0.406307  z =  0.970648 angstrom
           Maximum rank =  0   Radius =  0.650 angstrom
                   Q00  =  -0.118732

C          x = -1.898652  y = -1.198693  z = -1.255352 angstrom
           Maximum rank =  0   Radius =  0.650 angstrom
                   Q00  =  -0.100132

C          x = -3.540652  y = -0.389693  z =  0.338648 angstrom
           Maximum rank =  0   Radius =  0.650 angstrom
                   Q00  =  -0.080671

C          x = -3.192652  y = -1.182693  z = -0.762352 angstrom
           Maximum rank =  0   Radius =  0.650 angstrom
                   Q00  =  -0.075639

N          x = -0.194652  y =  1.061307  z =  0.892648 angstrom
           Maximum rank =  0   Radius =  0.650 angstrom
                   Q00  =  -0.488401

H          x =  1.862348  y =  1.117307  z =  0.182648 angstrom
           Maximum rank =  0   Radius =  0.325 angstrom
                   Q00  =   0.100528

H          x = -0.148652  y =  1.736307  z =  1.647648 angstrom
           Maximum rank =  0   Radius =  0.325 angstrom
                   Q00  =   0.217731

H          x =  1.021348  y = -1.855693  z = -1.999352 angstrom
           Maximum rank =  0   Radius =  0.325 angstrom
                   Q00  =   0.103925

H          x =  2.333348  y = -0.790693  z = -1.556352 angstrom
           Maximum rank =  0   Radius =  0.325 angstrom
                   Q00  =   0.098486

H          x = -2.870652  y =  1.035307  z =  1.809648 angstrom
           Maximum rank =  0   Radius =  0.325 angstrom
                   Q00  =   0.072828

H          x = -1.643652  y = -1.807693  z = -2.101352 angstrom
           Maximum rank =  0   Radius =  0.325 angstrom
                   Q00  =   0.068944

H          x = -4.566652  y = -0.387693  z =  0.688648 angstrom
           Maximum rank =  0   Radius =  0.325 angstrom
                   Q00  =   0.063132

H          x = -3.932652  y = -1.785693  z = -1.252352 angstrom
           Maximum rank =  0   Radius =  0.325 angstrom
                   Q00  =   0.058708

H          x =  1.278638  y = -0.346243  z = -2.910672 angstrom
           Maximum rank =  0   Radius =  0.325 angstrom
                   Q00  =   0.097906

C          x =  4.128348  y =  0.118307  z =  1.317648 angstrom
           Maximum rank =  0   Radius =  0.650 angstrom
                   Q00  =  -0.228827

C          x =  5.171348  y =  1.206307  z =  1.068648 angstrom
           Maximum rank =  0   Radius =  0.650 angstrom
                   Q00  =  -0.242617

H          x =  3.340348  y =  0.467307  z =  1.984648 angstrom
           Maximum rank =  0   Radius =  0.325 angstrom
                   Q00  =   0.074416

H          x =  3.689348  y = -0.180693  z =  0.367648 angstrom
           Maximum rank =  0   Radius =  0.325 angstrom
                   Q00  =   0.074861

H          x =  4.606348  y = -0.772693  z =  1.713648 angstrom
           Maximum rank =  0   Radius =  0.325 angstrom
                   Q00  =   0.085785

H          x =  5.988348  y =  0.751307  z =  0.507648 angstrom
           Maximum rank =  0   Radius =  0.325 angstrom
                   Q00  =   0.080773

H          x =  5.565848  y =  1.615097  z =  2.010588 angstrom
           Maximum rank =  0   Radius =  0.325 angstrom
                   Q00  =   0.082743

H          x =  4.745618  y =  2.015997  z =  0.457778 angstrom
           Maximum rank =  0   Radius =  0.325 angstrom
                   Q00  =   0.073889

Total multipoles referred to origin at
           x =   0.000000,  y =    0.000000,  z =    0.000000 angstrom
                   Q00  =  -0.000000

Finished at 8:55:0 on 28 Apr 2020

  DMA results are available in the Python driver through the
	  variable('DMA DISTRIBUTED MULTIPOLES')
  and
	  variable('DMA TOTAL MULTIPOLES')
  commands.

    Psi4 stopped on: Tuesday, 28 April 2020 08:55AM
    Psi4 wall time for execution: 0:03:56.77

*** Psi4 exiting successfully. Buy a developer a beer!
