                               Psi4 1.3.2 release

  ==> Input File <==

--------------------------------------------------------------------------
import numpy as np
set {scf_type pk
basis cc-pvdz
d_convergence 10
gdma_switch   0
gdma_limit    0
gdma_origin   [ 0.0,  0.0,  0.0 ]
}
molecule test {
    units Angstrom
    0 1
    --
    0 1
    C               -0.878789407822859     2.160200658915065     0.582435063417337
    C                0.343210592177141     1.373200658915065     0.163435063417337
    O                1.260210592177141     1.147200658915065     0.954435063417337
    N                0.361210592177141     0.933200658915065    -1.087564936582663
    H               -1.012789407822859     2.997200658915065    -0.104564936582663
    H               -0.705789407822858     2.571200658915065     1.573435063417337
    H                1.173210592177141     0.416200658915065    -1.390564936582663
    H               -0.382789407822859     1.163200658915065    -1.729564936582663
    H               -1.784829407822859     1.536620658915065     0.567226063417337
    C               -0.144789407822859    -2.329799341084935     0.244435063417337
    C               -0.920789407822859    -3.164799341084935    -0.772564936582663
    H               -0.166789407822859    -1.287799341084935    -0.039564936582663
    H               -0.611789407822859    -2.430799341084935     1.222435063417337
    H                0.885210592177141    -2.673799341084935     0.326435063417337
    H               -0.870789407822859    -4.214799341084936    -0.484564936582663
    H               -0.496249407822859    -3.025919341084935    -1.777790736582663
    H               -1.981139407822859    -2.872789341084935    -0.792080636582663

}
e, wfn = energy('scf', return_wfn=True)
gdma(wfn)
dmavals = variable('DMA DISTRIBUTED MULTIPOLES')
charges = np.array(dmavals)
print(charges)
np.save('SSI-016GLN-098LEU-1-dimer.npy', np.array(charges))--------------------------------------------------------------------------

*** tstart() called on ds3
*** at Tue Apr 28 09:15:19 2020

   => Loading Basis Set <=

    Name: CC-PVDZ
    Role: ORBITAL
    Keyword: BASIS
    atoms 1-2, 10-11 entry C          line   138 file /theoryfs2/ds/metcalf/miniconda2/envs/tf2gpu/share/psi4/basis/cc-pvdz.gbs
    atoms 3          entry O          line   198 file /theoryfs2/ds/metcalf/miniconda2/envs/tf2gpu/share/psi4/basis/cc-pvdz.gbs
    atoms 4          entry N          line   168 file /theoryfs2/ds/metcalf/miniconda2/envs/tf2gpu/share/psi4/basis/cc-pvdz.gbs
    atoms 5-9, 12-17 entry H          line    22 file /theoryfs2/ds/metcalf/miniconda2/envs/tf2gpu/share/psi4/basis/cc-pvdz.gbs

         ---------------------------------------------------------
                                   SCF
               by Justin Turney, Rob Parrish, Andy Simmonett
                          and Daniel G. A. Smith
                              RHF Reference
                        1 Threads,    500 MiB Core
         ---------------------------------------------------------

  ==> Geometry <==

    Molecular point group: c1
    Full point group: C1

    Geometry (in Angstrom), charge = 0, multiplicity = 1:

       Center              X                  Y                   Z               Mass
    ------------   -----------------  -----------------  -----------------  -----------------
         C           -0.878789407823     2.160200658915     0.582435063417    12.000000000000
         C            0.343210592177     1.373200658915     0.163435063417    12.000000000000
         O            1.260210592177     1.147200658915     0.954435063417    15.994914619570
         N            0.361210592177     0.933200658915    -1.087564936583    14.003074004430
         H           -1.012789407823     2.997200658915    -0.104564936583     1.007825032230
         H           -0.705789407823     2.571200658915     1.573435063417     1.007825032230
         H            1.173210592177     0.416200658915    -1.390564936583     1.007825032230
         H           -0.382789407823     1.163200658915    -1.729564936583     1.007825032230
         H           -1.784829407823     1.536620658915     0.567226063417     1.007825032230
         C           -0.144789407823    -2.329799341085     0.244435063417    12.000000000000
         C           -0.920789407823    -3.164799341085    -0.772564936583    12.000000000000
         H           -0.166789407823    -1.287799341085    -0.039564936583     1.007825032230
         H           -0.611789407823    -2.430799341085     1.222435063417     1.007825032230
         H            0.885210592177    -2.673799341085     0.326435063417     1.007825032230
         H           -0.870789407823    -4.214799341085    -0.484564936583     1.007825032230
         H           -0.496249407823    -3.025919341085    -1.777790736583     1.007825032230
         H           -1.981139407823    -2.872789341085    -0.792080636583     1.007825032230

  Running in c1 symmetry.

  Rotational constants: A =      0.16824  B =      0.03945  C =      0.03814 [cm^-1]
  Rotational constants: A =   5043.71849  B =   1182.58148  C =   1143.47690 [MHz]
  Nuclear repulsion =  234.533210536547699

  Charge       = 0
  Multiplicity = 1
  Electrons    = 50
  Nalpha       = 25
  Nbeta        = 25

  ==> Algorithm <==

  SCF Algorithm Type is PK.
  DIIS enabled.
  MOM disabled.
  Fractional occupation disabled.
  Guess Type is SAD.
  Energy threshold   = 1.00e-06
  Density threshold  = 1.00e-10
  Integral threshold = 0.00e+00

  ==> Primary Basis <==

  Basis Set: CC-PVDZ
    Blend: CC-PVDZ
    Number of shells: 69
    Number of basis function: 139
    Number of Cartesian functions: 145
    Spherical Harmonics?: true
    Max angular momentum: 2

  ==> Pre-Iterations <==

   -------------------------------------------------------
    Irrep   Nso     Nmo     Nalpha   Nbeta   Ndocc  Nsocc
   -------------------------------------------------------
     A        139     139       0       0       0       0
   -------------------------------------------------------
    Total     139     139      25      25      25       0
   -------------------------------------------------------

  ==> Integral Setup <==

  Using integral reordering PK algorithm.
  Sizing the integral batches needed.
  Building batch lookup table.
   Calculation information:
      Number of atoms:                  17
      Number of AO shells:              69
      Number of primitives:            187
      Number of atomic orbitals:       145
      Number of basis functions:       139

      Integral cutoff                 1.00e-12
      Number of threads:                 1

	Batch   1 pq = [       0,    9730] index = [             0,47341315] size =     47341315
  Task number: 5
  Buffer size: 11059200
  Buffer per thread: 2
  We computed 2515019 shell quartets total.
  Whereas there are 2917320 unique shell quartets.

  ==> DiskJK: Disk-Based J/K Matrices <==

    J tasked:                  Yes
    K tasked:                  Yes
    wK tasked:                  No
    Memory [MiB]:              375
    Schwarz Cutoff:          1E-12

    OpenMP threads:              1

  Minimum eigenvalue in the overlap matrix is 4.3400630653E-03.
  Using Symmetric Orthogonalization.

  SCF Guess: Superposition of Atomic Densities via on-the-fly atomic UHF.

  ==> Iterations <==

                        Total Energy        Delta E     RMS |[F,P]|

   @RHF iter SAD:  -285.95033260571654   -2.85950e+02   0.00000e+00
   @RHF iter   1:  -286.99587476789611   -1.04554e+00   4.63160e-03 DIIS
   @RHF iter   2:  -287.17103855289753   -1.75164e-01   2.61009e-03 DIIS
   @RHF iter   3:  -287.22137086524128   -5.03323e-02   5.50914e-04 DIIS
   @RHF iter   4:  -287.22483252997245   -3.46166e-03   2.20444e-04 DIIS
   @RHF iter   5:  -287.22544905194684   -6.16522e-04   3.47596e-05 DIIS
   @RHF iter   6:  -287.22548039479790   -3.13429e-05   1.58071e-05 DIIS
   @RHF iter   7:  -287.22548540634523   -5.01155e-06   6.37477e-06 DIIS
   @RHF iter   8:  -287.22548652808354   -1.12174e-06   2.21029e-06 DIIS
   @RHF iter   9:  -287.22548667109902   -1.43015e-07   5.48748e-07 DIIS
   @RHF iter  10:  -287.22548667758008   -6.48106e-09   1.75630e-07 DIIS
   @RHF iter  11:  -287.22548667828676   -7.06677e-10   3.91448e-08 DIIS
   @RHF iter  12:  -287.22548667832422   -3.74598e-11   8.80680e-09 DIIS
   @RHF iter  13:  -287.22548667832592   -1.70530e-12   1.87126e-09 DIIS
   @RHF iter  14:  -287.22548667832632   -3.97904e-13   8.43242e-10 DIIS
   @RHF iter  15:  -287.22548667832655   -2.27374e-13   3.45721e-10 DIIS
   @RHF iter  16:  -287.22548667832700   -4.54747e-13   1.33262e-10 DIIS
   @RHF iter  17:  -287.22548667832757   -5.68434e-13   5.71806e-11 DIIS
  Energy and wave function converged.

  ==> Post-Iterations <==

    Orbital Energies [Eh]
    ---------------------

    Doubly Occupied:

       1A    -20.506089     2A    -15.590240     3A    -11.348284
       4A    -11.242094     5A    -11.218114     6A    -11.208347
       7A     -1.367359     8A     -1.218975     9A     -1.015521
      10A     -1.001667    11A     -0.834243    12A     -0.800693
      13A     -0.730491    14A     -0.655123    15A     -0.617964
      16A     -0.595990    17A     -0.592719    18A     -0.569878
      19A     -0.557848    20A     -0.525628    21A     -0.496817
      22A     -0.481786    23A     -0.480658    24A     -0.411503
      25A     -0.404848

    Virtual:

      26A      0.155467    27A      0.190442    28A      0.199231
      29A      0.212063    30A      0.229590    31A      0.247554
      32A      0.257292    33A      0.261105    34A      0.272395
      35A      0.282436    36A      0.292280    37A      0.335939
      38A      0.380949    39A      0.398452    40A      0.464494
      41A      0.565630    42A      0.589966    43A      0.596917
      44A      0.609570    45A      0.637411    46A      0.651799
      47A      0.678027    48A      0.688468    49A      0.703133
      50A      0.723374    51A      0.747817    52A      0.835442
      53A      0.846028    54A      0.857660    55A      0.873154
      56A      0.889985    57A      0.891882    58A      0.896846
      59A      0.904361    60A      0.907245    61A      0.926009
      62A      0.935737    63A      0.960334    64A      0.989914
      65A      1.017283    66A      1.057553    67A      1.083083
      68A      1.118201    69A      1.128190    70A      1.138499
      71A      1.168878    72A      1.289989    73A      1.329214
      74A      1.366823    75A      1.386765    76A      1.399348
      77A      1.422883    78A      1.458696    79A      1.480724
      80A      1.494256    81A      1.516515    82A      1.614444
      83A      1.643806    84A      1.659481    85A      1.682219
      86A      1.693788    87A      1.737544    88A      1.792602
      89A      1.844342    90A      1.856529    91A      1.880103
      92A      1.892838    93A      1.901135    94A      1.904864
      95A      1.917437    96A      1.943318    97A      1.948086
      98A      1.953098    99A      1.963934   100A      1.972433
     101A      2.001498   102A      2.005636   103A      2.039447
     104A      2.106433   105A      2.111713   106A      2.116502
     107A      2.155582   108A      2.224726   109A      2.259311
     110A      2.304507   111A      2.321576   112A      2.426841
     113A      2.446012   114A      2.462573   115A      2.474877
     116A      2.497026   117A      2.553973   118A      2.568765
     119A      2.582427   120A      2.598649   121A      2.607219
     122A      2.709662   123A      2.746117   124A      2.763221
     125A      2.785224   126A      2.820900   127A      2.853434
     128A      2.860584   129A      2.882981   130A      2.954765
     131A      2.984181   132A      3.015160   133A      3.093809
     134A      3.140844   135A      3.290041   136A      3.506744
     137A      3.529123   138A      3.858655   139A      3.897155

    Final Occupation by Irrep:
              A
    DOCC [    25 ]

  @RHF Final Energy:  -287.22548667832757

   => Energetics <=

    Nuclear Repulsion Energy =            234.5332105365476991
    One-Electron Energy =                -854.5716346624391235
    Two-Electron Energy =                 332.8129374475638542
    Total Energy =                       -287.2254866783275702

Computation Completed

Properties will be evaluated at   0.000000,   0.000000,   0.000000 [a0]

Properties computed using the SCF density matrix

  Nuclear Dipole Moment: [e a0]
     X:    -5.5772      Y:    -7.3296      Z:    -2.4570

  Electronic Dipole Moment: [e a0]
     X:     4.5521      Y:     7.5860      Z:     1.1965

  Dipole Moment: [e a0]
     X:    -1.0251      Y:     0.2564      Z:    -1.2605     Total:     1.6448

  Dipole Moment: [D]
     X:    -2.6056      Y:     0.6517      Z:    -3.2039     Total:     4.1808

*** tstop() called on ds3 at Tue Apr 28 09:15:47 2020
Module time:
	user time   =      19.09 seconds =       0.32 minutes
	system time =       9.44 seconds =       0.16 minutes
	total time  =         28 seconds =       0.47 minutes
Total time:
	user time   =      19.09 seconds =       0.32 minutes
	system time =       9.44 seconds =       0.16 minutes
	total time  =         28 seconds =       0.47 minutes
                                     G D M A

                                 by Anthony Stone

                           version 2.2.06, 22 June 2011

               Distributed Multipoles from Gaussian wavefunctions

Starting at 9:15:47 on 28 Apr 2020

Using SCF density matrix from file ./SSI/SSI-016GLN-098LEU-1-dimer.test.9846.fchk

                         Distributed Multipole Analysis

Standard DMA

Positions and radii in angstrom
Multipole moments in atomic units, ea_0^k for rank k

C          x = -0.878789  y =  2.160201  z =  0.582435 angstrom
           Maximum rank =  0   Radius =  0.650 angstrom
                   Q00  =  -0.265857

C          x =  0.343211  y =  1.373201  z =  0.163435 angstrom
           Maximum rank =  0   Radius =  0.650 angstrom
                   Q00  =   0.822560

O          x =  1.260211  y =  1.147201  z =  0.954435 angstrom
           Maximum rank =  0   Radius =  0.650 angstrom
                   Q00  =  -0.793349

N          x =  0.361211  y =  0.933201  z = -1.087565 angstrom
           Maximum rank =  0   Radius =  0.650 angstrom
                   Q00  =  -0.525886

H          x = -1.012789  y =  2.997201  z = -0.104565 angstrom
           Maximum rank =  0   Radius =  0.325 angstrom
                   Q00  =   0.099460

H          x = -0.705789  y =  2.571201  z =  1.573435 angstrom
           Maximum rank =  0   Radius =  0.325 angstrom
                   Q00  =   0.129727

H          x =  1.173211  y =  0.416201  z = -1.390565 angstrom
           Maximum rank =  0   Radius =  0.325 angstrom
                   Q00  =   0.223457

H          x = -0.382789  y =  1.163201  z = -1.729565 angstrom
           Maximum rank =  0   Radius =  0.325 angstrom
                   Q00  =   0.207921

H          x = -1.784829  y =  1.536621  z =  0.567226 angstrom
           Maximum rank =  0   Radius =  0.325 angstrom
                   Q00  =   0.112918

C          x = -0.144789  y = -2.329799  z =  0.244435 angstrom
           Maximum rank =  0   Radius =  0.650 angstrom
                   Q00  =  -0.223100

C          x = -0.920789  y = -3.164799  z = -0.772565 angstrom
           Maximum rank =  0   Radius =  0.650 angstrom
                   Q00  =  -0.249522

H          x = -0.166789  y = -1.287799  z = -0.039565 angstrom
           Maximum rank =  0   Radius =  0.325 angstrom
                   Q00  =   0.079132

H          x = -0.611789  y = -2.430799  z =  1.222435 angstrom
           Maximum rank =  0   Radius =  0.325 angstrom
                   Q00  =   0.077108

H          x =  0.885211  y = -2.673799  z =  0.326435 angstrom
           Maximum rank =  0   Radius =  0.325 angstrom
                   Q00  =   0.081392

H          x = -0.870789  y = -4.214799  z = -0.484565 angstrom
           Maximum rank =  0   Radius =  0.325 angstrom
                   Q00  =   0.081260

H          x = -0.496249  y = -3.025919  z = -1.777791 angstrom
           Maximum rank =  0   Radius =  0.325 angstrom
                   Q00  =   0.070030

H          x = -1.981139  y = -2.872789  z = -0.792081 angstrom
           Maximum rank =  0   Radius =  0.325 angstrom
                   Q00  =   0.072748

Total multipoles referred to origin at
           x =   0.000000,  y =    0.000000,  z =    0.000000 angstrom
                   Q00  =  -0.000000

Finished at 9:15:47 on 28 Apr 2020

  DMA results are available in the Python driver through the
	  variable('DMA DISTRIBUTED MULTIPOLES')
  and
	  variable('DMA TOTAL MULTIPOLES')
  commands.

    Psi4 stopped on: Tuesday, 28 April 2020 09:15AM
    Psi4 wall time for execution: 0:00:27.74

*** Psi4 exiting successfully. Buy a developer a beer!
