                               Psi4 1.3.2 release

  ==> Input File <==

--------------------------------------------------------------------------
import numpy as np
set {scf_type pk
basis cc-pvdz
d_convergence 10
gdma_switch   0
gdma_limit    0
gdma_origin   [ 0.0,  0.0,  0.0 ]
}
molecule test {
    units Angstrom
    0 1
    --
    0 1
    C               -2.101556068980233    -1.829068305458244     2.224990283524096
    C               -2.384556068980233    -0.361068305458244     2.503990283524096
    C               -1.375556068980234    -2.334068305458244     3.470990283524096
    H               -1.497556068980233    -1.949068305458244     1.335990283524095
    H               -3.035556068980234    -2.375068305458244     2.083990283524096
    H               -2.435556068980234     0.217931694541756     1.581990283524096
    H               -3.321556068980234    -0.284068305458244     3.038990283524096
    H               -2.080556068980233    -2.848068305458244     4.123990283524095
    H               -1.548366068980233    -0.034467305458244     3.139696283524096
    H               -1.011456068980233    -1.422675305458244     3.967771283524096
    H               -0.527186068980233    -2.984433305458244     3.211566283524096
    C                2.796443931019767    -0.885068305458244     0.393990283524095
    C                0.416443931019767    -0.416068305458244    -0.257009716475905
    C                1.765443931019767    -0.108068305458244    -0.376009716475905
    C               -0.542556068980233     0.278931694541756    -0.975009716475905
    C                2.149443931019767     0.913931694541756    -1.235009716475905
    C               -0.149556068980233     1.297931694541756    -1.828009716475905
    C                1.198443931019767     1.617931694541756    -1.964009716475904
    O               -1.094556068980233     1.984931694541756    -2.527009716475904
    H                0.134443931019767    -1.214068305458244     0.402990283524095
    H               -1.590556068980233     0.033931694541756    -0.878009716475905
    H                2.441443931019766    -1.064068305458244     1.407990283524095
    H                3.686443931019766    -0.259068305458244     0.477990283524095
    H                3.191443931019766     1.173931694541756    -1.312009716475905
    H                1.502443931019767     2.412931694541756    -2.628009716475904
    H               -0.700556068980233     2.660931694541756    -3.091009716475905
    H                3.059948931019767    -1.840722305458244    -0.082759716475905

}
e, wfn = energy('scf', return_wfn=True)
gdma(wfn)
dmavals = variable('DMA DISTRIBUTED MULTIPOLES')
charges = np.array(dmavals)
print(charges)
np.save('SSI-049PRO-052TYR-1-dimer.npy', np.array(charges))--------------------------------------------------------------------------

*** tstart() called on ds3
*** at Mon Apr 27 13:05:11 2020

   => Loading Basis Set <=

    Name: CC-PVDZ
    Role: ORBITAL
    Keyword: BASIS
    atoms 1-3, 12-18  entry C          line   138 file /theoryfs2/ds/metcalf/miniconda2/envs/tf2gpu/share/psi4/basis/cc-pvdz.gbs
    atoms 4-11, 20-27 entry H          line    22 file /theoryfs2/ds/metcalf/miniconda2/envs/tf2gpu/share/psi4/basis/cc-pvdz.gbs
    atoms 19          entry O          line   198 file /theoryfs2/ds/metcalf/miniconda2/envs/tf2gpu/share/psi4/basis/cc-pvdz.gbs

         ---------------------------------------------------------
                                   SCF
               by Justin Turney, Rob Parrish, Andy Simmonett
                          and Daniel G. A. Smith
                              RHF Reference
                        1 Threads,    500 MiB Core
         ---------------------------------------------------------

  ==> Geometry <==

    Molecular point group: c1
    Full point group: C1

    Geometry (in Angstrom), charge = 0, multiplicity = 1:

       Center              X                  Y                   Z               Mass
    ------------   -----------------  -----------------  -----------------  -----------------
         C           -2.101556068980    -1.829068305458     2.224990283524    12.000000000000
         C           -2.384556068980    -0.361068305458     2.503990283524    12.000000000000
         C           -1.375556068980    -2.334068305458     3.470990283524    12.000000000000
         H           -1.497556068980    -1.949068305458     1.335990283524     1.007825032230
         H           -3.035556068980    -2.375068305458     2.083990283524     1.007825032230
         H           -2.435556068980     0.217931694542     1.581990283524     1.007825032230
         H           -3.321556068980    -0.284068305458     3.038990283524     1.007825032230
         H           -2.080556068980    -2.848068305458     4.123990283524     1.007825032230
         H           -1.548366068980    -0.034467305458     3.139696283524     1.007825032230
         H           -1.011456068980    -1.422675305458     3.967771283524     1.007825032230
         H           -0.527186068980    -2.984433305458     3.211566283524     1.007825032230
         C            2.796443931020    -0.885068305458     0.393990283524    12.000000000000
         C            0.416443931020    -0.416068305458    -0.257009716476    12.000000000000
         C            1.765443931020    -0.108068305458    -0.376009716476    12.000000000000
         C           -0.542556068980     0.278931694542    -0.975009716476    12.000000000000
         C            2.149443931020     0.913931694542    -1.235009716476    12.000000000000
         C           -0.149556068980     1.297931694542    -1.828009716476    12.000000000000
         C            1.198443931020     1.617931694542    -1.964009716476    12.000000000000
         O           -1.094556068980     1.984931694542    -2.527009716476    15.994914619570
         H            0.134443931020    -1.214068305458     0.402990283524     1.007825032230
         H           -1.590556068980     0.033931694542    -0.878009716476     1.007825032230
         H            2.441443931020    -1.064068305458     1.407990283524     1.007825032230
         H            3.686443931020    -0.259068305458     0.477990283524     1.007825032230
         H            3.191443931020     1.173931694542    -1.312009716476     1.007825032230
         H            1.502443931020     2.412931694542    -2.628009716476     1.007825032230
         H           -0.700556068980     2.660931694542    -3.091009716476     1.007825032230
         H            3.059948931020    -1.840722305458    -0.082759716476     1.007825032230

  Running in c1 symmetry.

  Rotational constants: A =      0.04418  B =      0.01702  C =      0.01283 [cm^-1]
  Rotational constants: A =   1324.61220  B =    510.35986  C =    384.73383 [MHz]
  Nuclear repulsion =  576.356829978228802

  Charge       = 0
  Multiplicity = 1
  Electrons    = 84
  Nalpha       = 42
  Nbeta        = 42

  ==> Algorithm <==

  SCF Algorithm Type is PK.
  DIIS enabled.
  MOM disabled.
  Fractional occupation disabled.
  Guess Type is SAD.
  Energy threshold   = 1.00e-06
  Density threshold  = 1.00e-10
  Integral threshold = 0.00e+00

  ==> Primary Basis <==

  Basis Set: CC-PVDZ
    Blend: CC-PVDZ
    Number of shells: 114
    Number of basis function: 234
    Number of Cartesian functions: 245
    Spherical Harmonics?: true
    Max angular momentum: 2

  ==> Pre-Iterations <==

   -------------------------------------------------------
    Irrep   Nso     Nmo     Nalpha   Nbeta   Ndocc  Nsocc
   -------------------------------------------------------
     A        234     234       0       0       0       0
   -------------------------------------------------------
    Total     234     234      42      42      42       0
   -------------------------------------------------------

  ==> Integral Setup <==

  Using integral reordering PK algorithm.
  Sizing the integral batches needed.
  Building batch lookup table.
   Calculation information:
      Number of atoms:                  27
      Number of AO shells:             114
      Number of primitives:            322
      Number of atomic orbitals:       245
      Number of basis functions:       234

      Integral cutoff                 1.00e-12
      Number of threads:                 1

	Batch   1 pq = [       0,    9405] index = [             0,44231715] size =     44231715
	Batch   2 pq = [    9405,   13301] index = [      44231715,88464951] size =     44233236
	Batch   3 pq = [   13301,   16290] index = [      88464951,132690195] size =     44225244
	Batch   4 pq = [   16290,   18810] index = [     132690195,176917455] size =     44227260
	Batch   5 pq = [   18810,   21030] index = [     176917455,221140965] size =     44223510
	Batch   6 pq = [   21030,   23037] index = [     221140965,265363203] size =     44222238
	Batch   7 pq = [   23037,   24883] index = [     265363203,309594286] size =     44231083
	Batch   8 pq = [   24883,   26601] index = [     309594286,353819901] size =     44225615
	Batch   9 pq = [   26601,   27495] index = [     353819901,378001260] size =     24181359
  Task number: 35
  Buffer size: 11059200
  Buffer per thread: 2
  We computed 18976223 shell quartets total.
  Whereas there are 21487290 unique shell quartets.

  ==> DiskJK: Disk-Based J/K Matrices <==

    J tasked:                  Yes
    K tasked:                  Yes
    wK tasked:                  No
    Memory [MiB]:              375
    Schwarz Cutoff:          1E-12

    OpenMP threads:              1

  Minimum eigenvalue in the overlap matrix is 3.0247529917E-04.
  Using Symmetric Orthogonalization.

  SCF Guess: Superposition of Atomic Densities via on-the-fly atomic UHF.

  ==> Iterations <==

                        Total Energy        Delta E     RMS |[F,P]|

   @RHF iter SAD:  -461.89758360176967   -4.61898e+02   0.00000e+00
   @RHF iter   1:  -462.58310068647688   -6.85517e-01   2.85307e-03 DIIS
   @RHF iter   2:  -462.82894336763951   -2.45843e-01   1.22412e-03 DIIS
   @RHF iter   3:  -462.87028523559133   -4.13419e-02   2.73733e-04 DIIS
   @RHF iter   4:  -462.87357748327480   -3.29225e-03   1.08038e-04 DIIS
   @RHF iter   5:  -462.87395079612492   -3.73313e-04   2.02809e-05 DIIS
   @RHF iter   6:  -462.87397043308886   -1.96370e-05   6.38479e-06 DIIS
   @RHF iter   7:  -462.87397251386977   -2.08078e-06   1.92080e-06 DIIS
   @RHF iter   8:  -462.87397278662064   -2.72751e-07   7.41195e-07 DIIS
   @RHF iter   9:  -462.87397283471955   -4.80989e-08   3.36696e-07 DIIS
   @RHF iter  10:  -462.87397284527447   -1.05549e-08   1.43603e-07 DIIS
   @RHF iter  11:  -462.87397284876431   -3.48984e-09   5.98298e-08 DIIS
   @RHF iter  12:  -462.87397284932695   -5.62636e-10   2.56167e-08 DIIS
   @RHF iter  13:  -462.87397284939442   -6.74731e-11   8.33036e-09 DIIS
   @RHF iter  14:  -462.87397284939664   -2.21689e-12   1.98845e-09 DIIS
   @RHF iter  15:  -462.87397284939698   -3.41061e-13   7.68795e-10 DIIS
   @RHF iter  16:  -462.87397284939527    1.70530e-12   3.09755e-10 DIIS
   @RHF iter  17:  -462.87397284939675   -1.47793e-12   1.47995e-10 DIIS
   @RHF iter  18:  -462.87397284939732   -5.68434e-13   7.23253e-11 DIIS
  Energy and wave function converged.

  ==> Post-Iterations <==

    Orbital Energies [Eh]
    ---------------------

    Doubly Occupied:

       1A    -20.582770     2A    -11.298279     3A    -11.237042
       4A    -11.234271     5A    -11.232424     6A    -11.229819
       7A    -11.228679     8A    -11.227177     9A    -11.214919
      10A    -11.214163    11A    -11.210245    12A     -1.399819
      13A     -1.153514    14A     -1.063024    15A     -1.038704
      16A     -1.019844    17A     -0.926253    18A     -0.914398
      19A     -0.846499    20A     -0.802924    21A     -0.800494
      22A     -0.732953    23A     -0.669794    24A     -0.641841
      25A     -0.633309    26A     -0.613709    27A     -0.606691
      28A     -0.587894    29A     -0.586536    30A     -0.572073
      31A     -0.568270    32A     -0.540923    33A     -0.525043
      34A     -0.515040    35A     -0.498818    36A     -0.486787
      37A     -0.480677    38A     -0.468394    39A     -0.465685
      40A     -0.457694    41A     -0.339745    42A     -0.301565

    Virtual:

      43A      0.130316    44A      0.155058    45A      0.171598
      46A      0.180141    47A      0.197759    48A      0.207846
      49A      0.217414    50A      0.229501    51A      0.232941
      52A      0.259447    53A      0.267386    54A      0.269451
      55A      0.278531    56A      0.294720    57A      0.298921
      58A      0.320311    59A      0.337765    60A      0.344219
      61A      0.377671    62A      0.387553    63A      0.418171
      64A      0.430299    65A      0.436289    66A      0.459535
      67A      0.490745    68A      0.512641    69A      0.515237
      70A      0.594018    71A      0.598495    72A      0.614501
      73A      0.626398    74A      0.631175    75A      0.652214
      76A      0.660640    77A      0.674429    78A      0.677855
      79A      0.691567    80A      0.696863    81A      0.703876
      82A      0.730031    83A      0.738088    84A      0.762951
      85A      0.769489    86A      0.776064    87A      0.785240
      88A      0.792782    89A      0.798113    90A      0.811734
      91A      0.827860    92A      0.849954    93A      0.852897
      94A      0.859092    95A      0.862091    96A      0.876831
      97A      0.880434    98A      0.885458    99A      0.890735
     100A      0.899705   101A      0.907733   102A      0.915015
     103A      0.919545   104A      0.928995   105A      0.933945
     106A      0.944477   107A      0.954034   108A      0.973093
     109A      0.987558   110A      1.000318   111A      1.014821
     112A      1.017198   113A      1.055020   114A      1.064639
     115A      1.075804   116A      1.096693   117A      1.136875
     118A      1.147201   119A      1.148264   120A      1.181147
     121A      1.207094   122A      1.220532   123A      1.246884
     124A      1.255167   125A      1.283901   126A      1.289260
     127A      1.307518   128A      1.313476   129A      1.345106
     130A      1.363554   131A      1.368314   132A      1.388974
     133A      1.403726   134A      1.482612   135A      1.484169
     136A      1.501638   137A      1.505429   138A      1.540185
     139A      1.566655   140A      1.603735   141A      1.617356
     142A      1.618103   143A      1.624789   144A      1.650261
     145A      1.686330   146A      1.705128   147A      1.722965
     148A      1.729034   149A      1.737503   150A      1.754099
     151A      1.785575   152A      1.804822   153A      1.811034
     154A      1.818579   155A      1.865221   156A      1.872861
     157A      1.877109   158A      1.891479   159A      1.902400
     160A      1.906655   161A      1.911643   162A      1.918152
     163A      1.926794   164A      1.937827   165A      1.943816
     166A      1.956261   167A      1.967177   168A      1.976193
     169A      1.981120   170A      1.987664   171A      2.001704
     172A      2.006725   173A      2.018998   174A      2.037892
     175A      2.045890   176A      2.054582   177A      2.057530
     178A      2.069092   179A      2.078299   180A      2.087879
     181A      2.139157   182A      2.148720   183A      2.163232
     184A      2.188413   185A      2.212457   186A      2.229625
     187A      2.245793   188A      2.274468   189A      2.278503
     190A      2.286153   191A      2.318900   192A      2.327976
     193A      2.335079   194A      2.355928   195A      2.380520
     196A      2.410014   197A      2.427160   198A      2.433062
     199A      2.455707   200A      2.491909   201A      2.499004
     202A      2.509656   203A      2.532495   204A      2.546302
     205A      2.566030   206A      2.612090   207A      2.646516
     208A      2.664408   209A      2.719983   210A      2.759497
     211A      2.765876   212A      2.780827   213A      2.785091
     214A      2.802295   215A      2.806315   216A      2.826856
     217A      2.842443   218A      2.845417   219A      2.856894
     220A      2.909237   221A      2.911752   222A      2.940072
     223A      2.968417   224A      3.017364   225A      3.073249
     226A      3.103528   227A      3.119365   228A      3.251500
     229A      3.302778   230A      3.347222   231A      3.578864
     232A      3.688359   233A      3.978838   234A      4.197833

    Final Occupation by Irrep:
              A
    DOCC [    42 ]

  @RHF Final Energy:  -462.87397284939732

   => Energetics <=

    Nuclear Repulsion Energy =            576.3568299782288022
    One-Electron Energy =               -1770.1242043066117731
    Two-Electron Energy =                 730.8934014789857656
    Total Energy =                       -462.8739728493973189

Computation Completed

Properties will be evaluated at   0.000000,   0.000000,   0.000000 [a0]

Properties computed using the SCF density matrix

  Nuclear Dipole Moment: [e a0]
     X:    -3.5046      Y:    -9.1553      Z:    15.7197

  Electronic Dipole Moment: [e a0]
     X:     3.9855      Y:     9.3672      Z:   -15.8813

  Dipole Moment: [e a0]
     X:     0.4810      Y:     0.2119      Z:    -0.1616     Total:     0.5498

  Dipole Moment: [D]
     X:     1.2225      Y:     0.5385      Z:    -0.4107     Total:     1.3976

*** tstop() called on ds3 at Mon Apr 27 13:08:49 2020
Module time:
	user time   =     144.19 seconds =       2.40 minutes
	system time =      63.06 seconds =       1.05 minutes
	total time  =        218 seconds =       3.63 minutes
Total time:
	user time   =     144.19 seconds =       2.40 minutes
	system time =      63.06 seconds =       1.05 minutes
	total time  =        218 seconds =       3.63 minutes
                                     G D M A

                                 by Anthony Stone

                           version 2.2.06, 22 June 2011

               Distributed Multipoles from Gaussian wavefunctions

Starting at 13:8:49 on 27 Apr 2020

Using SCF density matrix from file ./SSI/SSI-049PRO-052TYR-1-dimer.test.5278.fchk

                         Distributed Multipole Analysis

Standard DMA

Positions and radii in angstrom
Multipole moments in atomic units, ea_0^k for rank k

C          x = -2.101556  y = -1.829068  z =  2.224990 angstrom
           Maximum rank =  0   Radius =  0.650 angstrom
                   Q00  =  -0.129052

C          x = -2.384556  y = -0.361068  z =  2.503990 angstrom
           Maximum rank =  0   Radius =  0.650 angstrom
                   Q00  =  -0.207714

C          x = -1.375556  y = -2.334068  z =  3.470990 angstrom
           Maximum rank =  0   Radius =  0.650 angstrom
                   Q00  =  -0.235841

H          x = -1.497556  y = -1.949068  z =  1.335990 angstrom
           Maximum rank =  0   Radius =  0.325 angstrom
                   Q00  =   0.049046

H          x = -3.035556  y = -2.375068  z =  2.083990 angstrom
           Maximum rank =  0   Radius =  0.325 angstrom
                   Q00  =   0.063010

H          x = -2.435556  y =  0.217932  z =  1.581990 angstrom
           Maximum rank =  0   Radius =  0.325 angstrom
                   Q00  =   0.085523

H          x = -3.321556  y = -0.284068  z =  3.038990 angstrom
           Maximum rank =  0   Radius =  0.325 angstrom
                   Q00  =   0.085399

H          x = -2.080556  y = -2.848068  z =  4.123990 angstrom
           Maximum rank =  0   Radius =  0.325 angstrom
                   Q00  =   0.088816

H          x = -1.548366  y = -0.034467  z =  3.139696 angstrom
           Maximum rank =  0   Radius =  0.325 angstrom
                   Q00  =   0.053441

H          x = -1.011456  y = -1.422675  z =  3.967771 angstrom
           Maximum rank =  0   Radius =  0.325 angstrom
                   Q00  =   0.061548

H          x = -0.527186  y = -2.984433  z =  3.211566 angstrom
           Maximum rank =  0   Radius =  0.325 angstrom
                   Q00  =   0.084936

C          x =  2.796444  y = -0.885068  z =  0.393990 angstrom
           Maximum rank =  0   Radius =  0.650 angstrom
                   Q00  =  -0.195142

C          x =  0.416444  y = -0.416068  z = -0.257010 angstrom
           Maximum rank =  0   Radius =  0.650 angstrom
                   Q00  =   0.030057

C          x =  1.765444  y = -0.108068  z = -0.376010 angstrom
           Maximum rank =  0   Radius =  0.650 angstrom
                   Q00  =  -0.132574

C          x = -0.542556  y =  0.278932  z = -0.975010 angstrom
           Maximum rank =  0   Radius =  0.650 angstrom
                   Q00  =  -0.114286

C          x =  2.149444  y =  0.913932  z = -1.235010 angstrom
           Maximum rank =  0   Radius =  0.650 angstrom
                   Q00  =  -0.018787

C          x = -0.149556  y =  1.297932  z = -1.828010 angstrom
           Maximum rank =  0   Radius =  0.650 angstrom
                   Q00  =   0.332881

C          x =  1.198444  y =  1.617932  z = -1.964010 angstrom
           Maximum rank =  0   Radius =  0.650 angstrom
                   Q00  =  -0.200004

O          x = -1.094556  y =  1.984932  z = -2.527010 angstrom
           Maximum rank =  0   Radius =  0.650 angstrom
                   Q00  =  -0.677059

H          x =  0.134444  y = -1.214068  z =  0.402990 angstrom
           Maximum rank =  0   Radius =  0.325 angstrom
                   Q00  =   0.059917

H          x = -1.590556  y =  0.033932  z = -0.878010 angstrom
           Maximum rank =  0   Radius =  0.325 angstrom
                   Q00  =   0.078279

H          x =  2.441444  y = -1.064068  z =  1.407990 angstrom
           Maximum rank =  0   Radius =  0.325 angstrom
                   Q00  =   0.096860

H          x =  3.686444  y = -0.259068  z =  0.477990 angstrom
           Maximum rank =  0   Radius =  0.325 angstrom
                   Q00  =   0.093397

H          x =  3.191444  y =  1.173932  z = -1.312010 angstrom
           Maximum rank =  0   Radius =  0.325 angstrom
                   Q00  =   0.068690

H          x =  1.502444  y =  2.412932  z = -2.628010 angstrom
           Maximum rank =  0   Radius =  0.325 angstrom
                   Q00  =   0.071844

H          x = -0.700556  y =  2.660932  z = -3.091010 angstrom
           Maximum rank =  0   Radius =  0.325 angstrom
                   Q00  =   0.405998

H          x =  3.059949  y = -1.840722  z = -0.082760 angstrom
           Maximum rank =  0   Radius =  0.325 angstrom
                   Q00  =   0.100814

Total multipoles referred to origin at
           x =   0.000000,  y =    0.000000,  z =    0.000000 angstrom
                   Q00  =  -0.000000

Finished at 13:8:49 on 27 Apr 2020

  DMA results are available in the Python driver through the
	  variable('DMA DISTRIBUTED MULTIPOLES')
  and
	  variable('DMA TOTAL MULTIPOLES')
  commands.

    Psi4 stopped on: Monday, 27 April 2020 01:08PM
    Psi4 wall time for execution: 0:03:38.36

*** Psi4 exiting successfully. Buy a developer a beer!
