                               Psi4 1.3.2 release

  ==> Input File <==

--------------------------------------------------------------------------
import numpy as np
set {scf_type pk
basis cc-pvdz
d_convergence 10
gdma_switch   0
gdma_limit    0
gdma_origin   [ 0.0,  0.0,  0.0 ]
}
molecule test {
    units Angstrom
    0 1
    --
    0 1
    C               -0.625252274215443    -0.048890336962197     2.928463630746295
    N               -0.911252274215443    -1.025890336962197     1.819463630746295
    H               -0.459252274215443    -0.722890336962197     0.954463630746295
    H               -0.564252274215443    -1.949890336962197     2.043463630746295
    H               -1.902252274215443    -1.102890336962197     1.632463630746295
    H                0.439747725784557    -0.093890336962197     3.175463630746295
    H               -1.175252274215443    -0.351890336962197     3.826463630746295
    H               -0.868523274215443     1.003149663037803     2.718624630746295
    C                0.799747725784557     1.002109663037803    -2.490536369253705
    C                0.409747725784557     0.270109663037803    -1.193536369253705
    O               -0.730252274215443    -0.253890336962197    -1.154536369253705
    O                1.207747725784557     0.217109663037803    -0.241536369253705
    H               -0.039252274215443     1.608109663037803    -2.838536369253704
    H                1.002747725784557     0.246109663037803    -3.251536369253705
    H                1.692864725784557     1.635929663037803    -2.387539369253705

}
e, wfn = energy('scf', return_wfn=True)
gdma(wfn)
dmavals = variable('DMA DISTRIBUTED MULTIPOLES')
charges = np.array(dmavals)
print(charges)
np.save('SSI-152LYS-156ASP-2-dimer.npy', np.array(charges))--------------------------------------------------------------------------

*** tstart() called on ds3
*** at Tue Apr 28 14:44:42 2020

   => Loading Basis Set <=

    Name: CC-PVDZ
    Role: ORBITAL
    Keyword: BASIS
    atoms 1, 9-10    entry C          line   138 file /theoryfs2/ds/metcalf/miniconda2/envs/tf2gpu/share/psi4/basis/cc-pvdz.gbs
    atoms 2          entry N          line   168 file /theoryfs2/ds/metcalf/miniconda2/envs/tf2gpu/share/psi4/basis/cc-pvdz.gbs
    atoms 3-8, 13-15 entry H          line    22 file /theoryfs2/ds/metcalf/miniconda2/envs/tf2gpu/share/psi4/basis/cc-pvdz.gbs
    atoms 11-12      entry O          line   198 file /theoryfs2/ds/metcalf/miniconda2/envs/tf2gpu/share/psi4/basis/cc-pvdz.gbs

         ---------------------------------------------------------
                                   SCF
               by Justin Turney, Rob Parrish, Andy Simmonett
                          and Daniel G. A. Smith
                              RHF Reference
                        1 Threads,    500 MiB Core
         ---------------------------------------------------------

  ==> Geometry <==

    Molecular point group: c1
    Full point group: C1

    Geometry (in Angstrom), charge = 0, multiplicity = 1:

       Center              X                  Y                   Z               Mass
    ------------   -----------------  -----------------  -----------------  -----------------
         C           -0.625252274215    -0.048890336962     2.928463630746    12.000000000000
         N           -0.911252274215    -1.025890336962     1.819463630746    14.003074004430
         H           -0.459252274215    -0.722890336962     0.954463630746     1.007825032230
         H           -0.564252274215    -1.949890336962     2.043463630746     1.007825032230
         H           -1.902252274215    -1.102890336962     1.632463630746     1.007825032230
         H            0.439747725785    -0.093890336962     3.175463630746     1.007825032230
         H           -1.175252274215    -0.351890336962     3.826463630746     1.007825032230
         H           -0.868523274215     1.003149663038     2.718624630746     1.007825032230
         C            0.799747725785     1.002109663038    -2.490536369254    12.000000000000
         C            0.409747725785     0.270109663038    -1.193536369254    12.000000000000
         O           -0.730252274215    -0.253890336962    -1.154536369254    15.994914619570
         O            1.207747725785     0.217109663038    -0.241536369254    15.994914619570
         H           -0.039252274215     1.608109663038    -2.838536369254     1.007825032230
         H            1.002747725785     0.246109663038    -3.251536369254     1.007825032230
         H            1.692864725785     1.635929663038    -2.387539369254     1.007825032230

  Running in c1 symmetry.

  Rotational constants: A =      0.25654  B =      0.04365  C =      0.03982 [cm^-1]
  Rotational constants: A =   7690.95475  B =   1308.60816  C =   1193.78960 [MHz]
  Nuclear repulsion =  238.967113207199276

  Charge       = 0
  Multiplicity = 1
  Electrons    = 50
  Nalpha       = 25
  Nbeta        = 25

  ==> Algorithm <==

  SCF Algorithm Type is PK.
  DIIS enabled.
  MOM disabled.
  Fractional occupation disabled.
  Guess Type is SAD.
  Energy threshold   = 1.00e-06
  Density threshold  = 1.00e-10
  Integral threshold = 0.00e+00

  ==> Primary Basis <==

  Basis Set: CC-PVDZ
    Blend: CC-PVDZ
    Number of shells: 63
    Number of basis function: 129
    Number of Cartesian functions: 135
    Spherical Harmonics?: true
    Max angular momentum: 2

  ==> Pre-Iterations <==

   -------------------------------------------------------
    Irrep   Nso     Nmo     Nalpha   Nbeta   Ndocc  Nsocc
   -------------------------------------------------------
     A        129     129       0       0       0       0
   -------------------------------------------------------
    Total     129     129      25      25      25       0
   -------------------------------------------------------

  ==> Integral Setup <==

  Using integral reordering PK algorithm.
  Sizing the integral batches needed.
  Building batch lookup table.
   Calculation information:
      Number of atoms:                  15
      Number of AO shells:              63
      Number of primitives:            177
      Number of atomic orbitals:       135
      Number of basis functions:       129

      Integral cutoff                 1.00e-12
      Number of threads:                 1

	Batch   1 pq = [       0,    8385] index = [             0,35158305] size =     35158305
  Task number: 4
  Buffer size: 11059200
  Buffer per thread: 2
  We computed 1691945 shell quartets total.
  Whereas there are 2033136 unique shell quartets.

  ==> DiskJK: Disk-Based J/K Matrices <==

    J tasked:                  Yes
    K tasked:                  Yes
    wK tasked:                  No
    Memory [MiB]:              375
    Schwarz Cutoff:          1E-12

    OpenMP threads:              1

  Minimum eigenvalue in the overlap matrix is 5.0915482945E-03.
  Using Symmetric Orthogonalization.

  SCF Guess: Superposition of Atomic Densities via on-the-fly atomic UHF.

  ==> Iterations <==

                        Total Energy        Delta E     RMS |[F,P]|

   @RHF iter SAD:  -321.64866266330364   -3.21649e+02   0.00000e+00
   @RHF iter   1:  -322.79066032753576   -1.14200e+00   5.22505e-03 DIIS
   @RHF iter   2:  -322.95981481401628   -1.69154e-01   2.88586e-03 DIIS
   @RHF iter   3:  -323.00874775358159   -4.89329e-02   4.65173e-04 DIIS
   @RHF iter   4:  -323.01117300004040   -2.42525e-03   1.46347e-04 DIIS
   @RHF iter   5:  -323.01142396108872   -2.50961e-04   2.50624e-05 DIIS
   @RHF iter   6:  -323.01143376674452   -9.80566e-06   4.21475e-06 DIIS
   @RHF iter   7:  -323.01143406575392   -2.99009e-07   1.59315e-06 DIIS
   @RHF iter   8:  -323.01143409451885   -2.87649e-08   7.82306e-07 DIIS
   @RHF iter   9:  -323.01143410066265   -6.14381e-09   1.74135e-07 DIIS
   @RHF iter  10:  -323.01143410135393   -6.91273e-10   7.39248e-08 DIIS
   @RHF iter  11:  -323.01143410147017   -1.16245e-10   2.47866e-08 DIIS
   @RHF iter  12:  -323.01143410148836   -1.81899e-11   8.10049e-09 DIIS
   @RHF iter  13:  -323.01143410149007   -1.70530e-12   2.79294e-09 DIIS
   @RHF iter  14:  -323.01143410149007    0.00000e+00   8.96017e-10 DIIS
   @RHF iter  15:  -323.01143410149012   -5.68434e-14   2.46018e-10 DIIS
   @RHF iter  16:  -323.01143410149092   -7.95808e-13   1.16107e-10 DIIS
   @RHF iter  17:  -323.01143410149126   -3.41061e-13   2.71182e-11 DIIS
  Energy and wave function converged.

  ==> Post-Iterations <==

    Orbital Energies [Eh]
    ---------------------

    Doubly Occupied:

       1A    -20.420493     2A    -20.416246     3A    -15.733216
       4A    -11.346892     5A    -11.265728     6A    -11.169631
       7A     -1.350139     8A     -1.308490     9A     -1.192726
      10A     -1.014489    11A     -0.914743    12A     -0.812766
      13A     -0.800820    14A     -0.705547    15A     -0.641157
      16A     -0.617737    17A     -0.616905    18A     -0.551274
      19A     -0.542528    20A     -0.534699    21A     -0.478533
      22A     -0.449442    23A     -0.336764    24A     -0.327905
      25A     -0.321402

    Virtual:

      26A      0.103681    27A      0.158321    28A      0.169828
      29A      0.204127    30A      0.222884    31A      0.250107
      32A      0.274864    33A      0.284031    34A      0.312657
      35A      0.352721    36A      0.354891    37A      0.450706
      38A      0.509004    39A      0.520788    40A      0.560502
      41A      0.587235    42A      0.597228    43A      0.669212
      44A      0.701328    45A      0.704653    46A      0.763086
      47A      0.788835    48A      0.798450    49A      0.808639
      50A      0.815598    51A      0.838478    52A      0.846688
      53A      0.916590    54A      0.922103    55A      0.925257
      56A      0.940893    57A      0.950737    58A      0.991608
      59A      1.004275    60A      1.016598    61A      1.071505
      62A      1.089695    63A      1.100415    64A      1.192074
      65A      1.216008    66A      1.225015    67A      1.292551
      68A      1.366321    69A      1.387974    70A      1.399417
      71A      1.434958    72A      1.466128    73A      1.494760
      74A      1.522012    75A      1.554122    76A      1.597522
      77A      1.610923    78A      1.686138    79A      1.718157
      80A      1.732720    81A      1.754316    82A      1.823367
      83A      1.847846    84A      1.860557    85A      1.877957
      86A      1.888337    87A      1.917508    88A      1.957754
      89A      1.972591    90A      2.006433    91A      2.074480
      92A      2.084318    93A      2.090177    94A      2.118072
      95A      2.119729    96A      2.127356    97A      2.158117
      98A      2.209461    99A      2.281796   100A      2.291945
     101A      2.311507   102A      2.400363   103A      2.407950
     104A      2.446015   105A      2.530025   106A      2.541435
     107A      2.581885   108A      2.612687   109A      2.629919
     110A      2.635311   111A      2.667978   112A      2.799572
     113A      2.848702   114A      2.866131   115A      2.874030
     116A      2.897176   117A      2.933941   118A      3.081874
     119A      3.123265   120A      3.135157   121A      3.212105
     122A      3.231741   123A      3.290314   124A      3.479746
     125A      3.630931   126A      3.673302   127A      3.917064
     128A      3.925138   129A      4.064944

    Final Occupation by Irrep:
              A
    DOCC [    25 ]

  @RHF Final Energy:  -323.01143410149126

   => Energetics <=

    Nuclear Repulsion Energy =            238.9671132071992758
    One-Electron Energy =                -916.2165526815617795
    Two-Electron Energy =                 354.2380053728712141
    Total Energy =                       -323.0114341014912611

Computation Completed

Properties will be evaluated at   0.000000,   0.000000,   0.000000 [a0]

Properties computed using the SCF density matrix

  Nuclear Dipole Moment: [e a0]
     X:    -1.7513      Y:     0.2577      Z:     5.4941

  Electronic Dipole Moment: [e a0]
     X:     0.1637      Y:    -1.4100      Z:    -1.6571

  Dipole Moment: [e a0]
     X:    -1.5876      Y:    -1.1523      Z:     3.8370     Total:     4.3094

  Dipole Moment: [D]
     X:    -4.0353      Y:    -2.9289      Z:     9.7526     Total:    10.9533

*** tstop() called on ds3 at Tue Apr 28 14:45:09 2020
Module time:
	user time   =      13.16 seconds =       0.22 minutes
	system time =       5.26 seconds =       0.09 minutes
	total time  =         27 seconds =       0.45 minutes
Total time:
	user time   =      13.16 seconds =       0.22 minutes
	system time =       5.26 seconds =       0.09 minutes
	total time  =         27 seconds =       0.45 minutes
                                     G D M A

                                 by Anthony Stone

                           version 2.2.06, 22 June 2011

               Distributed Multipoles from Gaussian wavefunctions

Starting at 14:45:9 on 28 Apr 2020

Using SCF density matrix from file ./SSI/SSI-152LYS-156ASP-2-dimer.test.8510.fchk

                         Distributed Multipole Analysis

Standard DMA

Positions and radii in angstrom
Multipole moments in atomic units, ea_0^k for rank k

C          x = -0.625252  y = -0.048890  z =  2.928464 angstrom
           Maximum rank =  0   Radius =  0.650 angstrom
                   Q00  =  -0.142995

N          x = -0.911252  y = -1.025890  z =  1.819464 angstrom
           Maximum rank =  0   Radius =  0.650 angstrom
                   Q00  =  -0.077031

H          x = -0.459252  y = -0.722890  z =  0.954464 angstrom
           Maximum rank =  0   Radius =  0.325 angstrom
                   Q00  =   0.255109

H          x = -0.564252  y = -1.949890  z =  2.043464 angstrom
           Maximum rank =  0   Radius =  0.325 angstrom
                   Q00  =   0.230754

H          x = -1.902252  y = -1.102890  z =  1.632464 angstrom
           Maximum rank =  0   Radius =  0.325 angstrom
                   Q00  =   0.239651

H          x =  0.439748  y = -0.093890  z =  3.175464 angstrom
           Maximum rank =  0   Radius =  0.325 angstrom
                   Q00  =   0.155373

H          x = -1.175252  y = -0.351890  z =  3.826464 angstrom
           Maximum rank =  0   Radius =  0.325 angstrom
                   Q00  =   0.115345

H          x = -0.868523  y =  1.003150  z =  2.718625 angstrom
           Maximum rank =  0   Radius =  0.325 angstrom
                   Q00  =   0.166044

C          x =  0.799748  y =  1.002110  z = -2.490536 angstrom
           Maximum rank =  0   Radius =  0.650 angstrom
                   Q00  =  -0.246540

C          x =  0.409748  y =  0.270110  z = -1.193536 angstrom
           Maximum rank =  0   Radius =  0.650 angstrom
                   Q00  =   0.838968

O          x = -0.730252  y = -0.253890  z = -1.154536 angstrom
           Maximum rank =  0   Radius =  0.650 angstrom
                   Q00  =  -0.910503

O          x =  1.207748  y =  0.217110  z = -0.241536 angstrom
           Maximum rank =  0   Radius =  0.650 angstrom
                   Q00  =  -0.887898

H          x = -0.039252  y =  1.608110  z = -2.838536 angstrom
           Maximum rank =  0   Radius =  0.325 angstrom
                   Q00  =   0.086744

H          x =  1.002748  y =  0.246110  z = -3.251536 angstrom
           Maximum rank =  0   Radius =  0.325 angstrom
                   Q00  =   0.101730

H          x =  1.692865  y =  1.635930  z = -2.387539 angstrom
           Maximum rank =  0   Radius =  0.325 angstrom
                   Q00  =   0.075250

Total multipoles referred to origin at
           x =   0.000000,  y =    0.000000,  z =    0.000000 angstrom
                   Q00  =  -0.000000

Finished at 14:45:9 on 28 Apr 2020

  DMA results are available in the Python driver through the
	  variable('DMA DISTRIBUTED MULTIPOLES')
  and
	  variable('DMA TOTAL MULTIPOLES')
  commands.

    Psi4 stopped on: Tuesday, 28 April 2020 02:45PM
    Psi4 wall time for execution: 0:00:27.09

*** Psi4 exiting successfully. Buy a developer a beer!
