                               Psi4 1.3.2 release

  ==> Input File <==

--------------------------------------------------------------------------
import numpy as np
set {scf_type pk
basis cc-pvdz
d_convergence 10
gdma_switch   0
gdma_limit    0
gdma_origin   [ 0.0,  0.0,  0.0 ]
}
molecule test {
    units Angstrom
    0 1
    --
    0 1
    C               -1.571313577776530    -0.428010755853074    -0.355098632635970
    C               -2.745313577776531    -1.167010755853074    -0.967098632635970
    H               -1.676313577776531     0.646989244146926    -0.498098632635970
    H               -1.539313577776530    -0.628010755853074     0.716901367364030
    H               -0.645313577776531    -0.777010755853074    -0.809098632635970
    H               -3.666313577776530    -0.713010755853074    -0.609098632635970
    H               -2.706313577776531    -2.194010755853074    -0.601098632635970
    H               -2.748173577776530    -1.177745755853074    -2.067038632635970
    C                1.430686422223469     0.634989244146926     0.538901367364030
    C                2.891686422223469     0.957989244146926     0.775901367364030
    H                1.228686422223470    -0.415010755853074     0.755901367364030
    H                0.822686422223470     1.276989244146926     1.165901367364030
    H                1.120686422223469     0.867989244146926    -0.475098632635970
    H                3.025686422223470     2.038989244146926     0.734901367364030
    H                3.513206422223470     0.485549244146926     0.000978367364030
    H                3.202376422223469     0.612619244146926     1.772993367364030

}
e, wfn = energy('scf', return_wfn=True)
gdma(wfn)
dmavals = variable('DMA DISTRIBUTED MULTIPOLES')
charges = np.array(dmavals)
print(charges)
np.save('SSI-053ILE-066LEU-1-dimer.npy', np.array(charges))--------------------------------------------------------------------------

*** tstart() called on ds3
*** at Tue Apr 28 10:36:08 2020

   => Loading Basis Set <=

    Name: CC-PVDZ
    Role: ORBITAL
    Keyword: BASIS
    atoms 1-2, 9-10  entry C          line   138 file /theoryfs2/ds/metcalf/miniconda2/envs/tf2gpu/share/psi4/basis/cc-pvdz.gbs
    atoms 3-8, 11-16 entry H          line    22 file /theoryfs2/ds/metcalf/miniconda2/envs/tf2gpu/share/psi4/basis/cc-pvdz.gbs

         ---------------------------------------------------------
                                   SCF
               by Justin Turney, Rob Parrish, Andy Simmonett
                          and Daniel G. A. Smith
                              RHF Reference
                        1 Threads,    500 MiB Core
         ---------------------------------------------------------

  ==> Geometry <==

    Molecular point group: c1
    Full point group: C1

    Geometry (in Angstrom), charge = 0, multiplicity = 1:

       Center              X                  Y                   Z               Mass
    ------------   -----------------  -----------------  -----------------  -----------------
         C           -1.571313577777    -0.428010755853    -0.355098632636    12.000000000000
         C           -2.745313577777    -1.167010755853    -0.967098632636    12.000000000000
         H           -1.676313577777     0.646989244147    -0.498098632636     1.007825032230
         H           -1.539313577777    -0.628010755853     0.716901367364     1.007825032230
         H           -0.645313577777    -0.777010755853    -0.809098632636     1.007825032230
         H           -3.666313577777    -0.713010755853    -0.609098632636     1.007825032230
         H           -2.706313577777    -2.194010755853    -0.601098632636     1.007825032230
         H           -2.748173577777    -1.177745755853    -2.067038632636     1.007825032230
         C            1.430686422223     0.634989244147     0.538901367364    12.000000000000
         C            2.891686422223     0.957989244147     0.775901367364    12.000000000000
         H            1.228686422223    -0.415010755853     0.755901367364     1.007825032230
         H            0.822686422223     1.276989244147     1.165901367364     1.007825032230
         H            1.120686422223     0.867989244147    -0.475098632636     1.007825032230
         H            3.025686422223     2.038989244147     0.734901367364     1.007825032230
         H            3.513206422223     0.485549244147     0.000978367364     1.007825032230
         H            3.202376422223     0.612619244147     1.772993367364     1.007825032230

  Running in c1 symmetry.

  Rotational constants: A =      1.17588  B =      0.04296  C =      0.04278 [cm^-1]
  Rotational constants: A =  35251.97153  B =   1287.90471  C =   1282.54638 [MHz]
  Nuclear repulsion =  122.680290872995670

  Charge       = 0
  Multiplicity = 1
  Electrons    = 36
  Nalpha       = 18
  Nbeta        = 18

  ==> Algorithm <==

  SCF Algorithm Type is PK.
  DIIS enabled.
  MOM disabled.
  Fractional occupation disabled.
  Guess Type is SAD.
  Energy threshold   = 1.00e-06
  Density threshold  = 1.00e-10
  Integral threshold = 0.00e+00

  ==> Primary Basis <==

  Basis Set: CC-PVDZ
    Blend: CC-PVDZ
    Number of shells: 60
    Number of basis function: 116
    Number of Cartesian functions: 120
    Spherical Harmonics?: true
    Max angular momentum: 2

  ==> Pre-Iterations <==

   -------------------------------------------------------
    Irrep   Nso     Nmo     Nalpha   Nbeta   Ndocc  Nsocc
   -------------------------------------------------------
     A        116     116       0       0       0       0
   -------------------------------------------------------
    Total     116     116      18      18      18       0
   -------------------------------------------------------

  ==> Integral Setup <==

  Using integral reordering PK algorithm.
  Sizing the integral batches needed.
  Building batch lookup table.
   Calculation information:
      Number of atoms:                  16
      Number of AO shells:              60
      Number of primitives:            148
      Number of atomic orbitals:       120
      Number of basis functions:       116

      Integral cutoff                 1.00e-12
      Number of threads:                 1

	Batch   1 pq = [       0,    6786] index = [             0,23028291] size =     23028291
  Task number: 3
  Buffer size: 11059200
  Buffer per thread: 2
  We computed 1402184 shell quartets total.
  Whereas there are 1675365 unique shell quartets.

  ==> DiskJK: Disk-Based J/K Matrices <==

    J tasked:                  Yes
    K tasked:                  Yes
    wK tasked:                  No
    Memory [MiB]:              375
    Schwarz Cutoff:          1E-12

    OpenMP threads:              1

  Minimum eigenvalue in the overlap matrix is 4.8184298372E-03.
  Using Symmetric Orthogonalization.

  SCF Guess: Superposition of Atomic Densities via on-the-fly atomic UHF.

  ==> Iterations <==

                        Total Energy        Delta E     RMS |[F,P]|

   @RHF iter SAD:  -157.42529006985299   -1.57425e+02   0.00000e+00
   @RHF iter   1:  -158.30090013376278   -8.75610e-01   4.26444e-03 DIIS
   @RHF iter   2:  -158.43749239641460   -1.36592e-01   1.81180e-03 DIIS
   @RHF iter   3:  -158.46127558543455   -2.37832e-02   3.54049e-04 DIIS
   @RHF iter   4:  -158.46314876452468   -1.87318e-03   3.97971e-05 DIIS
   @RHF iter   5:  -158.46317322563516   -2.44611e-05   7.29407e-06 DIIS
   @RHF iter   6:  -158.46317396039095   -7.34756e-07   1.41848e-06 DIIS
   @RHF iter   7:  -158.46317397840232   -1.80114e-08   3.21496e-07 DIIS
   @RHF iter   8:  -158.46317397944694   -1.04461e-09   3.98879e-08 DIIS
   @RHF iter   9:  -158.46317397947354   -2.66027e-11   6.70621e-09 DIIS
   @RHF iter  10:  -158.46317397947442   -8.81073e-13   1.98999e-09 DIIS
   @RHF iter  11:  -158.46317397947502   -5.96856e-13   5.42258e-10 DIIS
   @RHF iter  12:  -158.46317397947513   -1.13687e-13   8.55264e-11 DIIS
  Energy and wave function converged.

  ==> Post-Iterations <==

    Orbital Energies [Eh]
    ---------------------

    Doubly Occupied:

       1A    -11.217005     2A    -11.215331     3A    -11.213758
       4A    -11.212436     5A     -1.022528     6A     -1.018724
       7A     -0.841807     8A     -0.828838     9A     -0.603979
      10A     -0.599796    11A     -0.597349    12A     -0.593053
      13A     -0.512933    14A     -0.495995    15A     -0.489223
      16A     -0.483852    17A     -0.478751    18A     -0.475107

    Virtual:

      19A      0.177202    20A      0.195557    21A      0.223979
      22A      0.239904    23A      0.244014    24A      0.263047
      25A      0.265557    26A      0.284738    27A      0.288272
      28A      0.293452    29A      0.298743    30A      0.304291
      31A      0.373152    32A      0.437555    33A      0.563310
      34A      0.594168    35A      0.598534    36A      0.602805
      37A      0.611980    38A      0.663964    39A      0.676338
      40A      0.705500    41A      0.727894    42A      0.765800
      43A      0.858089    44A      0.887187    45A      0.888851
      46A      0.892008    47A      0.893656    48A      0.903012
      49A      0.904127    50A      0.913394    51A      0.915708
      52A      0.919107    53A      0.926018    54A      0.956282
      55A      0.982564    56A      1.035910    57A      1.121299
      58A      1.130188    59A      1.142126    60A      1.156211
      61A      1.201267    62A      1.337407    63A      1.458301
      64A      1.477003    65A      1.488162    66A      1.503686
      67A      1.588826    68A      1.594325    69A      1.681604
      70A      1.684429    71A      1.694696    72A      1.700363
      73A      1.846560    74A      1.853786    75A      1.888218
      76A      1.891056    77A      1.897027    78A      1.924143
      79A      1.935794    80A      1.945213    81A      1.946080
      82A      1.951756    83A      1.956832    84A      1.965292
      85A      1.977603    86A      1.997461    87A      2.034897
      88A      2.100694    89A      2.102874    90A      2.105710
      91A      2.131289    92A      2.146191    93A      2.298283
      94A      2.319348    95A      2.328872    96A      2.428997
      97A      2.439166    98A      2.449459    99A      2.474733
     100A      2.482611   101A      2.562678   102A      2.572416
     103A      2.583620   104A      2.599478   105A      2.761877
     106A      2.775615   107A      2.795688   108A      2.800512
     109A      2.845551   110A      2.850464   111A      2.861728
     112A      2.877039   113A      2.937086   114A      2.944640
     115A      2.973146   116A      2.978410

    Final Occupation by Irrep:
              A
    DOCC [    18 ]

  @RHF Final Energy:  -158.46317397947513

   => Energetics <=

    Nuclear Repulsion Energy =            122.6802908729956698
    One-Electron Energy =                -454.4859971858403469
    Two-Electron Energy =                 173.3425323333695474
    Total Energy =                       -158.4631739794751297

Computation Completed

Properties will be evaluated at   0.000000,   0.000000,   0.000000 [a0]

Properties computed using the SCF density matrix

  Nuclear Dipole Moment: [e a0]
     X:    -0.0641      Y:     0.0228      Z:     0.0825

  Electronic Dipole Moment: [e a0]
     X:     0.0538      Y:    -0.0118      Z:    -0.0726

  Dipole Moment: [e a0]
     X:    -0.0104      Y:     0.0110      Z:     0.0100     Total:     0.0181

  Dipole Moment: [D]
     X:    -0.0264      Y:     0.0280      Z:     0.0254     Total:     0.0461

*** tstop() called on ds3 at Tue Apr 28 10:36:18 2020
Module time:
	user time   =       7.62 seconds =       0.13 minutes
	system time =       2.83 seconds =       0.05 minutes
	total time  =         10 seconds =       0.17 minutes
Total time:
	user time   =       7.62 seconds =       0.13 minutes
	system time =       2.83 seconds =       0.05 minutes
	total time  =         10 seconds =       0.17 minutes
                                     G D M A

                                 by Anthony Stone

                           version 2.2.06, 22 June 2011

               Distributed Multipoles from Gaussian wavefunctions

Starting at 10:36:18 on 28 Apr 2020

Using SCF density matrix from file ./SSI/SSI-053ILE-066LEU-1-dimer.test.981.fchk

                         Distributed Multipole Analysis

Standard DMA

Positions and radii in angstrom
Multipole moments in atomic units, ea_0^k for rank k

C          x = -1.571314  y = -0.428011  z = -0.355099 angstrom
           Maximum rank =  0   Radius =  0.650 angstrom
                   Q00  =  -0.234239

C          x = -2.745314  y = -1.167011  z = -0.967099 angstrom
           Maximum rank =  0   Radius =  0.650 angstrom
                   Q00  =  -0.229358

H          x = -1.676314  y =  0.646989  z = -0.498099 angstrom
           Maximum rank =  0   Radius =  0.325 angstrom
                   Q00  =   0.075930

H          x = -1.539314  y = -0.628011  z =  0.716901 angstrom
           Maximum rank =  0   Radius =  0.325 angstrom
                   Q00  =   0.077208

H          x = -0.645314  y = -0.777011  z = -0.809099 angstrom
           Maximum rank =  0   Radius =  0.325 angstrom
                   Q00  =   0.077252

H          x = -3.666314  y = -0.713011  z = -0.609099 angstrom
           Maximum rank =  0   Radius =  0.325 angstrom
                   Q00  =   0.077634

H          x = -2.706314  y = -2.194011  z = -0.601099 angstrom
           Maximum rank =  0   Radius =  0.325 angstrom
                   Q00  =   0.075019

H          x = -2.748174  y = -1.177746  z = -2.067039 angstrom
           Maximum rank =  0   Radius =  0.325 angstrom
                   Q00  =   0.080334

C          x =  1.430686  y =  0.634989  z =  0.538901 angstrom
           Maximum rank =  0   Radius =  0.650 angstrom
                   Q00  =  -0.237666

C          x =  2.891686  y =  0.957989  z =  0.775901 angstrom
           Maximum rank =  0   Radius =  0.650 angstrom
                   Q00  =  -0.225112

H          x =  1.228686  y = -0.415011  z =  0.755901 angstrom
           Maximum rank =  0   Radius =  0.325 angstrom
                   Q00  =   0.076546

H          x =  0.822686  y =  1.276989  z =  1.165901 angstrom
           Maximum rank =  0   Radius =  0.325 angstrom
                   Q00  =   0.075588

H          x =  1.120686  y =  0.867989  z = -0.475099 angstrom
           Maximum rank =  0   Radius =  0.325 angstrom
                   Q00  =   0.076824

H          x =  3.025686  y =  2.038989  z =  0.734901 angstrom
           Maximum rank =  0   Radius =  0.325 angstrom
                   Q00  =   0.078091

H          x =  3.513206  y =  0.485549  z =  0.000978 angstrom
           Maximum rank =  0   Radius =  0.325 angstrom
                   Q00  =   0.077323

H          x =  3.202376  y =  0.612619  z =  1.772993 angstrom
           Maximum rank =  0   Radius =  0.325 angstrom
                   Q00  =   0.078626

Total multipoles referred to origin at
           x =   0.000000,  y =    0.000000,  z =    0.000000 angstrom
                   Q00  =  -0.000000

Finished at 10:36:18 on 28 Apr 2020

  DMA results are available in the Python driver through the
	  variable('DMA DISTRIBUTED MULTIPOLES')
  and
	  variable('DMA TOTAL MULTIPOLES')
  commands.

    Psi4 stopped on: Tuesday, 28 April 2020 10:36AM
    Psi4 wall time for execution: 0:00:10.27

*** Psi4 exiting successfully. Buy a developer a beer!
