                               Psi4 1.3.2 release

  ==> Input File <==

--------------------------------------------------------------------------
import numpy as np
set {scf_type pk
basis cc-pvdz
d_convergence 10
gdma_switch   0
gdma_limit    0
gdma_origin   [ 0.0,  0.0,  0.0 ]
}
molecule test {
    units Angstrom
    0 1
    --
    0 1
    C               -0.567138130918539    -0.039502593748418     1.200906767003988
    C               -0.589138130918540    -0.574502593748418     2.641906767003988
    C               -1.924138130918539     0.476497406251582     0.736906767003988
    H                0.166861869081460     0.767497406251582     1.158906767003988
    H               -0.229138130918540    -0.826502593748418     0.522906767003988
    H               -1.410138130918540    -1.285502593748418     2.741906767003988
    H               -2.419138130918539     1.045497406251582     1.519906767003988
    H               -0.736028130918540     0.237877406251582     3.368856767003988
    H                0.334201869081460    -1.136442593748418     2.846046767003988
    H               -1.753608130918540     1.129337406251582    -0.131839232996012
    H               -2.561548130918540    -0.375772593748418     0.458803767003988
    C                1.791861869081461     0.604497406251582    -1.790093232996012
    C                1.250861869081460    -0.462502593748418    -2.713093232996012
    H                1.142861869081460     1.478497406251582    -1.785093232996012
    H                1.851861869081460     0.211497406251582    -0.775093232996012
    H                2.791861869081461     0.897497406251582    -2.115093232996012
    H                0.258861869081460    -0.683502593748418    -2.339093232996012
    H                1.180211869081460    -0.120782593748418    -3.756278232996012
    H                1.831651869081460    -1.392622593748418    -2.626119232996012

}
e, wfn = energy('scf', return_wfn=True)
gdma(wfn)
dmavals = variable('DMA DISTRIBUTED MULTIPOLES')
charges = np.array(dmavals)
print(charges)
np.save('SSI-019LEU-062LEU-2-dimer.npy', np.array(charges))--------------------------------------------------------------------------

*** tstart() called on ds3
*** at Mon Apr 27 13:23:14 2020

   => Loading Basis Set <=

    Name: CC-PVDZ
    Role: ORBITAL
    Keyword: BASIS
    atoms 1-3, 12-13  entry C          line   138 file /theoryfs2/ds/metcalf/miniconda2/envs/tf2gpu/share/psi4/basis/cc-pvdz.gbs
    atoms 4-11, 14-19 entry H          line    22 file /theoryfs2/ds/metcalf/miniconda2/envs/tf2gpu/share/psi4/basis/cc-pvdz.gbs

         ---------------------------------------------------------
                                   SCF
               by Justin Turney, Rob Parrish, Andy Simmonett
                          and Daniel G. A. Smith
                              RHF Reference
                        1 Threads,    500 MiB Core
         ---------------------------------------------------------

  ==> Geometry <==

    Molecular point group: c1
    Full point group: C1

    Geometry (in Angstrom), charge = 0, multiplicity = 1:

       Center              X                  Y                   Z               Mass
    ------------   -----------------  -----------------  -----------------  -----------------
         C           -0.567138130919    -0.039502593748     1.200906767004    12.000000000000
         C           -0.589138130919    -0.574502593748     2.641906767004    12.000000000000
         C           -1.924138130919     0.476497406252     0.736906767004    12.000000000000
         H            0.166861869081     0.767497406252     1.158906767004     1.007825032230
         H           -0.229138130919    -0.826502593748     0.522906767004     1.007825032230
         H           -1.410138130919    -1.285502593748     2.741906767004     1.007825032230
         H           -2.419138130919     1.045497406252     1.519906767004     1.007825032230
         H           -0.736028130919     0.237877406252     3.368856767004     1.007825032230
         H            0.334201869081    -1.136442593748     2.846046767004     1.007825032230
         H           -1.753608130919     1.129337406252    -0.131839232996     1.007825032230
         H           -2.561548130919    -0.375772593748     0.458803767004     1.007825032230
         C            1.791861869081     0.604497406252    -1.790093232996    12.000000000000
         C            1.250861869081    -0.462502593748    -2.713093232996    12.000000000000
         H            1.142861869081     1.478497406252    -1.785093232996     1.007825032230
         H            1.851861869081     0.211497406252    -0.775093232996     1.007825032230
         H            2.791861869081     0.897497406252    -2.115093232996     1.007825032230
         H            0.258861869081    -0.683502593748    -2.339093232996     1.007825032230
         H            1.180211869081    -0.120782593748    -3.756278232996     1.007825032230
         H            1.831651869081    -1.392622593748    -2.626119232996     1.007825032230

  Running in c1 symmetry.

  Rotational constants: A =      0.21718  B =      0.04038  C =      0.03750 [cm^-1]
  Rotational constants: A =   6510.84761  B =   1210.52115  C =   1124.23324 [MHz]
  Nuclear repulsion =  178.066352474367164

  Charge       = 0
  Multiplicity = 1
  Electrons    = 44
  Nalpha       = 22
  Nbeta        = 22

  ==> Algorithm <==

  SCF Algorithm Type is PK.
  DIIS enabled.
  MOM disabled.
  Fractional occupation disabled.
  Guess Type is SAD.
  Energy threshold   = 1.00e-06
  Density threshold  = 1.00e-10
  Integral threshold = 0.00e+00

  ==> Primary Basis <==

  Basis Set: CC-PVDZ
    Blend: CC-PVDZ
    Number of shells: 72
    Number of basis function: 140
    Number of Cartesian functions: 145
    Spherical Harmonics?: true
    Max angular momentum: 2

  ==> Pre-Iterations <==

   -------------------------------------------------------
    Irrep   Nso     Nmo     Nalpha   Nbeta   Ndocc  Nsocc
   -------------------------------------------------------
     A        140     140       0       0       0       0
   -------------------------------------------------------
    Total     140     140      22      22      22       0
   -------------------------------------------------------

  ==> Integral Setup <==

  Using integral reordering PK algorithm.
  Sizing the integral batches needed.
  Building batch lookup table.
   Calculation information:
      Number of atoms:                  19
      Number of AO shells:              72
      Number of primitives:            180
      Number of atomic orbitals:       145
      Number of basis functions:       140

      Integral cutoff                 1.00e-12
      Number of threads:                 1

	Batch   1 pq = [       0,    9405] index = [             0,44231715] size =     44231715
	Batch   2 pq = [    9405,    9870] index = [      44231715,48713385] size =      4481670
  Task number: 5
  Buffer size: 11059200
  Buffer per thread: 2
  We computed 2876740 shell quartets total.
  Whereas there are 3454506 unique shell quartets.

  ==> DiskJK: Disk-Based J/K Matrices <==

    J tasked:                  Yes
    K tasked:                  Yes
    wK tasked:                  No
    Memory [MiB]:              375
    Schwarz Cutoff:          1E-12

    OpenMP threads:              1

  Minimum eigenvalue in the overlap matrix is 5.3696641224E-03.
  Using Symmetric Orthogonalization.

  SCF Guess: Superposition of Atomic Densities via on-the-fly atomic UHF.

  ==> Iterations <==

                        Total Energy        Delta E     RMS |[F,P]|

   @RHF iter SAD:  -196.37222530117762   -1.96372e+02   0.00000e+00
   @RHF iter   1:  -197.30843417989871   -9.36209e-01   3.82659e-03 DIIS
   @RHF iter   2:  -197.46954966499715   -1.61115e-01   1.66107e-03 DIIS
   @RHF iter   3:  -197.49862059850756   -2.90709e-02   3.26439e-04 DIIS
   @RHF iter   4:  -197.50085945859723   -2.23886e-03   4.90239e-05 DIIS
   @RHF iter   5:  -197.50089870575903   -3.92472e-05   1.51194e-05 DIIS
   @RHF iter   6:  -197.50090215329215   -3.44753e-06   2.34073e-06 DIIS
   @RHF iter   7:  -197.50090225381689   -1.00525e-07   4.34212e-07 DIIS
   @RHF iter   8:  -197.50090225750162   -3.68473e-09   1.13581e-07 DIIS
   @RHF iter   9:  -197.50090225774508   -2.43460e-10   3.44637e-08 DIIS
   @RHF iter  10:  -197.50090225777103   -2.59490e-11   7.76350e-09 DIIS
   @RHF iter  11:  -197.50090225777342   -2.38742e-12   1.52446e-09 DIIS
   @RHF iter  12:  -197.50090225777379   -3.69482e-13   2.97432e-10 DIIS
   @RHF iter  13:  -197.50090225777367    1.13687e-13   5.22715e-11 DIIS
  Energy and wave function converged.

  ==> Post-Iterations <==

    Orbital Energies [Eh]
    ---------------------

    Doubly Occupied:

       1A    -11.220305     2A    -11.217866     3A    -11.217509
       4A    -11.217057     5A    -11.214892     6A     -1.053008
       7A     -1.023216     8A     -0.923908     9A     -0.834886
      10A     -0.796396    11A     -0.625640    12A     -0.603129
      13A     -0.599601    14A     -0.591517    15A     -0.550650
      16A     -0.534342    17A     -0.505112    18A     -0.488141
      19A     -0.479353    20A     -0.473477    21A     -0.467167
      22A     -0.463554

    Virtual:

      23A      0.163333    24A      0.196285    25A      0.213330
      26A      0.216715    27A      0.236417    28A      0.252696
      29A      0.257513    30A      0.266219    31A      0.269959
      32A      0.286178    33A      0.290804    34A      0.297954
      35A      0.326399    36A      0.337765    37A      0.371714
      38A      0.401986    39A      0.422666    40A      0.580002
      41A      0.587772    42A      0.599518    43A      0.601764
      44A      0.603808    45A      0.624522    46A      0.636490
      47A      0.647400    48A      0.696281    49A      0.757892
      50A      0.770801    51A      0.810259    52A      0.849008
      53A      0.861134    54A      0.867957    55A      0.882739
      56A      0.886070    57A      0.890391    58A      0.896625
      59A      0.898315    60A      0.903929    61A      0.910959
      62A      0.923779    63A      0.931075    64A      0.944504
      65A      0.957908    66A      0.975053    67A      0.979451
      68A      1.001954    69A      1.116748    70A      1.123465
      71A      1.132610    72A      1.146370    73A      1.202664
      74A      1.250207    75A      1.390963    76A      1.451693
      77A      1.466778    78A      1.471796    79A      1.491213
      80A      1.523635    81A      1.585759    82A      1.647839
      83A      1.659954    84A      1.684376    85A      1.686975
      86A      1.706007    87A      1.719786    88A      1.842508
      89A      1.853407    90A      1.862754    91A      1.875076
      92A      1.889721    93A      1.902433    94A      1.913308
      95A      1.929420    96A      1.936145    97A      1.941668
      98A      1.948425    99A      1.953527   100A      1.960886
     101A      1.968314   102A      1.979651   103A      1.990058
     104A      1.999592   105A      2.003127   106A      2.036225
     107A      2.051005   108A      2.095671   109A      2.143628
     110A      2.159147   111A      2.169417   112A      2.273248
     113A      2.294178   114A      2.297948   115A      2.310537
     116A      2.326647   117A      2.357256   118A      2.449616
     119A      2.473003   120A      2.484147   121A      2.517274
     122A      2.557526   123A      2.571850   124A      2.589945
     125A      2.612351   126A      2.636640   127A      2.752284
     128A      2.758271   129A      2.767348   130A      2.779307
     131A      2.799123   132A      2.821242   133A      2.852818
     134A      2.875204   135A      2.897404   136A      2.931173
     137A      2.957843   138A      2.965255   139A      2.975277
     140A      3.048472

    Final Occupation by Irrep:
              A
    DOCC [    22 ]

  @RHF Final Energy:  -197.50090225777367

   => Energetics <=

    Nuclear Repulsion Energy =            178.0663524743671644
    One-Electron Energy =                -616.9330614251407496
    Two-Electron Energy =                 241.3658066929999393
    Total Energy =                       -197.5009022577736744

Computation Completed

Properties will be evaluated at   0.000000,   0.000000,   0.000000 [a0]

Properties computed using the SCF density matrix

  Nuclear Dipole Moment: [e a0]
     X:     0.4207      Y:    -0.0501      Z:    -0.8543

  Electronic Dipole Moment: [e a0]
     X:    -0.4143      Y:     0.0489      Z:     0.8586

  Dipole Moment: [e a0]
     X:     0.0064      Y:    -0.0012      Z:     0.0043     Total:     0.0078

  Dipole Moment: [D]
     X:     0.0162      Y:    -0.0030      Z:     0.0111     Total:     0.0198

*** tstop() called on ds3 at Mon Apr 27 13:23:39 2020
Module time:
	user time   =      17.46 seconds =       0.29 minutes
	system time =       8.33 seconds =       0.14 minutes
	total time  =         25 seconds =       0.42 minutes
Total time:
	user time   =      17.46 seconds =       0.29 minutes
	system time =       8.33 seconds =       0.14 minutes
	total time  =         25 seconds =       0.42 minutes
                                     G D M A

                                 by Anthony Stone

                           version 2.2.06, 22 June 2011

               Distributed Multipoles from Gaussian wavefunctions

Starting at 13:23:39 on 27 Apr 2020

Using SCF density matrix from file ./SSI/SSI-019LEU-062LEU-2-dimer.test.6411.fchk

                         Distributed Multipole Analysis

Standard DMA

Positions and radii in angstrom
Multipole moments in atomic units, ea_0^k for rank k

C          x = -0.567138  y = -0.039503  z =  1.200907 angstrom
           Maximum rank =  0   Radius =  0.650 angstrom
                   Q00  =  -0.081873

C          x = -0.589138  y = -0.574503  z =  2.641907 angstrom
           Maximum rank =  0   Radius =  0.650 angstrom
                   Q00  =  -0.247707

C          x = -1.924138  y =  0.476497  z =  0.736907 angstrom
           Maximum rank =  0   Radius =  0.650 angstrom
                   Q00  =  -0.240257

H          x =  0.166862  y =  0.767497  z =  1.158907 angstrom
           Maximum rank =  0   Radius =  0.325 angstrom
                   Q00  =   0.044841

H          x = -0.229138  y = -0.826503  z =  0.522907 angstrom
           Maximum rank =  0   Radius =  0.325 angstrom
                   Q00  =   0.047852

H          x = -1.410138  y = -1.285503  z =  2.741907 angstrom
           Maximum rank =  0   Radius =  0.325 angstrom
                   Q00  =   0.072488

H          x = -2.419138  y =  1.045497  z =  1.519907 angstrom
           Maximum rank =  0   Radius =  0.325 angstrom
                   Q00  =   0.078436

H          x = -0.736028  y =  0.237877  z =  3.368857 angstrom
           Maximum rank =  0   Radius =  0.325 angstrom
                   Q00  =   0.080974

H          x =  0.334202  y = -1.136443  z =  2.846047 angstrom
           Maximum rank =  0   Radius =  0.325 angstrom
                   Q00  =   0.082576

H          x = -1.753608  y =  1.129337  z = -0.131839 angstrom
           Maximum rank =  0   Radius =  0.325 angstrom
                   Q00  =   0.084538

H          x = -2.561548  y = -0.375773  z =  0.458804 angstrom
           Maximum rank =  0   Radius =  0.325 angstrom
                   Q00  =   0.078395

C          x =  1.791862  y =  0.604497  z = -1.790093 angstrom
           Maximum rank =  0   Radius =  0.650 angstrom
                   Q00  =  -0.233545

C          x =  1.250862  y = -0.462503  z = -2.713093 angstrom
           Maximum rank =  0   Radius =  0.650 angstrom
                   Q00  =  -0.230611

H          x =  1.142862  y =  1.478497  z = -1.785093 angstrom
           Maximum rank =  0   Radius =  0.325 angstrom
                   Q00  =   0.077734

H          x =  1.851862  y =  0.211497  z = -0.775093 angstrom
           Maximum rank =  0   Radius =  0.325 angstrom
                   Q00  =   0.080995

H          x =  2.791862  y =  0.897497  z = -2.115093 angstrom
           Maximum rank =  0   Radius =  0.325 angstrom
                   Q00  =   0.074215

H          x =  0.258862  y = -0.683503  z = -2.339093 angstrom
           Maximum rank =  0   Radius =  0.325 angstrom
                   Q00  =   0.071985

H          x =  1.180212  y = -0.120783  z = -3.756278 angstrom
           Maximum rank =  0   Radius =  0.325 angstrom
                   Q00  =   0.081038

H          x =  1.831652  y = -1.392623  z = -2.626119 angstrom
           Maximum rank =  0   Radius =  0.325 angstrom
                   Q00  =   0.077926

Total multipoles referred to origin at
           x =   0.000000,  y =    0.000000,  z =    0.000000 angstrom
                   Q00  =  -0.000000

Finished at 13:23:39 on 27 Apr 2020

  DMA results are available in the Python driver through the
	  variable('DMA DISTRIBUTED MULTIPOLES')
  and
	  variable('DMA TOTAL MULTIPOLES')
  commands.

    Psi4 stopped on: Monday, 27 April 2020 01:23PM
    Psi4 wall time for execution: 0:00:25.31

*** Psi4 exiting successfully. Buy a developer a beer!
