                               Psi4 1.3.2 release

  ==> Input File <==

--------------------------------------------------------------------------
import numpy as np
set {scf_type pk
basis cc-pvdz
d_convergence 10
gdma_switch   0
gdma_limit    0
gdma_origin   [ 0.0,  0.0,  0.0 ]
}
molecule test {
    units Angstrom
    0 1
    --
    0 1
    C                0.492137050451608     3.385342668163674    -0.186369019660668
    C               -0.785862949548392     3.216342668163674    -0.998369019660668
    H                0.966137050451608     2.418342668163674    -0.033369019660668
    H                1.180137050451608     4.041342668163674    -0.720369019660668
    H                0.266137050451608     3.834342668163674     0.778630980339332
    H               -1.212862949548392     4.204342668163673    -1.145369019660668
    H               -1.510282949548392     2.581844628163674    -0.466743019660668
    H               -0.563427949548392     2.785194468163674    -1.985605019660668
    C                2.181137050451608    -0.359657331836326    -1.758369019660668
    C                1.186137050451608    -0.198657331836326     0.552630980339332
    C                1.084137050451608    -0.644657331836326    -0.763369019660668
    C                0.172137050451608    -0.457657331836326     1.470630980339332
    C               -0.047862949548392    -1.360657331836326    -1.145369019660668
    C               -0.953862949548392    -1.171657331836326     1.073630980339332
    C               -1.064862949548392    -1.624657331836326    -0.234369019660668
    O               -1.950862949548392    -1.437657331836326     1.959630980339332
    H                2.062137050451609     0.355342668163674     0.864630980339332
    H                0.239137050451608    -0.098657331836326     2.487630980339332
    H                2.675137050451608     0.572342668163674    -1.476369019660668
    H                1.723137050451608    -0.198657331836326    -2.734369019660667
    H               -0.135862949548392    -1.738657331836326    -2.150369019660668
    H               -1.937862949548392    -2.180657331836326    -0.546369019660668
    H               -2.666862949548392    -1.933657331836326     1.555630980339332
    H                2.928881050451608    -1.162097331836326    -1.841852019660668

}
e, wfn = energy('scf', return_wfn=True)
gdma(wfn)
dmavals = variable('DMA DISTRIBUTED MULTIPOLES')
charges = np.array(dmavals)
print(charges)
np.save('SSI-226LEU-294TYR-2-dimer.npy', np.array(charges))--------------------------------------------------------------------------

*** tstart() called on ds3
*** at Tue Apr 28 11:57:38 2020

   => Loading Basis Set <=

    Name: CC-PVDZ
    Role: ORBITAL
    Keyword: BASIS
    atoms 1-2, 9-15  entry C          line   138 file /theoryfs2/ds/metcalf/miniconda2/envs/tf2gpu/share/psi4/basis/cc-pvdz.gbs
    atoms 3-8, 17-24 entry H          line    22 file /theoryfs2/ds/metcalf/miniconda2/envs/tf2gpu/share/psi4/basis/cc-pvdz.gbs
    atoms 16         entry O          line   198 file /theoryfs2/ds/metcalf/miniconda2/envs/tf2gpu/share/psi4/basis/cc-pvdz.gbs

         ---------------------------------------------------------
                                   SCF
               by Justin Turney, Rob Parrish, Andy Simmonett
                          and Daniel G. A. Smith
                              RHF Reference
                        1 Threads,    500 MiB Core
         ---------------------------------------------------------

  ==> Geometry <==

    Molecular point group: c1
    Full point group: C1

    Geometry (in Angstrom), charge = 0, multiplicity = 1:

       Center              X                  Y                   Z               Mass
    ------------   -----------------  -----------------  -----------------  -----------------
         C            0.492137050452     3.385342668164    -0.186369019661    12.000000000000
         C           -0.785862949548     3.216342668164    -0.998369019661    12.000000000000
         H            0.966137050452     2.418342668164    -0.033369019661     1.007825032230
         H            1.180137050452     4.041342668164    -0.720369019661     1.007825032230
         H            0.266137050452     3.834342668164     0.778630980339     1.007825032230
         H           -1.212862949548     4.204342668164    -1.145369019661     1.007825032230
         H           -1.510282949548     2.581844628164    -0.466743019661     1.007825032230
         H           -0.563427949548     2.785194468164    -1.985605019661     1.007825032230
         C            2.181137050452    -0.359657331836    -1.758369019661    12.000000000000
         C            1.186137050452    -0.198657331836     0.552630980339    12.000000000000
         C            1.084137050452    -0.644657331836    -0.763369019661    12.000000000000
         C            0.172137050452    -0.457657331836     1.470630980339    12.000000000000
         C           -0.047862949548    -1.360657331836    -1.145369019661    12.000000000000
         C           -0.953862949548    -1.171657331836     1.073630980339    12.000000000000
         C           -1.064862949548    -1.624657331836    -0.234369019661    12.000000000000
         O           -1.950862949548    -1.437657331836     1.959630980339    15.994914619570
         H            2.062137050452     0.355342668164     0.864630980339     1.007825032230
         H            0.239137050452    -0.098657331836     2.487630980339     1.007825032230
         H            2.675137050452     0.572342668164    -1.476369019661     1.007825032230
         H            1.723137050452    -0.198657331836    -2.734369019661     1.007825032230
         H           -0.135862949548    -1.738657331836    -2.150369019661     1.007825032230
         H           -1.937862949548    -2.180657331836    -0.546369019661     1.007825032230
         H           -2.666862949548    -1.933657331836     1.555630980339     1.007825032230
         H            2.928881050452    -1.162097331836    -1.841852019661     1.007825032230

  Running in c1 symmetry.

  Rotational constants: A =      0.04433  B =      0.02756  C =      0.02115 [cm^-1]
  Rotational constants: A =   1328.90794  B =    826.24779  C =    634.20834 [MHz]
  Nuclear repulsion =  503.137760405234701

  Charge       = 0
  Multiplicity = 1
  Electrons    = 76
  Nalpha       = 38
  Nbeta        = 38

  ==> Algorithm <==

  SCF Algorithm Type is PK.
  DIIS enabled.
  MOM disabled.
  Fractional occupation disabled.
  Guess Type is SAD.
  Energy threshold   = 1.00e-06
  Density threshold  = 1.00e-10
  Integral threshold = 0.00e+00

  ==> Primary Basis <==

  Basis Set: CC-PVDZ
    Blend: CC-PVDZ
    Number of shells: 102
    Number of basis function: 210
    Number of Cartesian functions: 220
    Spherical Harmonics?: true
    Max angular momentum: 2

  ==> Pre-Iterations <==

   -------------------------------------------------------
    Irrep   Nso     Nmo     Nalpha   Nbeta   Ndocc  Nsocc
   -------------------------------------------------------
     A        210     210       0       0       0       0
   -------------------------------------------------------
    Total     210     210      38      38      38       0
   -------------------------------------------------------

  ==> Integral Setup <==

  Using integral reordering PK algorithm.
  Sizing the integral batches needed.
  Building batch lookup table.
   Calculation information:
      Number of atoms:                  24
      Number of AO shells:             102
      Number of primitives:            290
      Number of atomic orbitals:       220
      Number of basis functions:       210

      Integral cutoff                 1.00e-12
      Number of threads:                 1

	Batch   1 pq = [       0,    9405] index = [             0,44231715] size =     44231715
	Batch   2 pq = [    9405,   13301] index = [      44231715,88464951] size =     44233236
	Batch   3 pq = [   13301,   16290] index = [      88464951,132690195] size =     44225244
	Batch   4 pq = [   16290,   18810] index = [     132690195,176917455] size =     44227260
	Batch   5 pq = [   18810,   21030] index = [     176917455,221140965] size =     44223510
	Batch   6 pq = [   21030,   22155] index = [     221140965,245433090] size =     24292125
  Task number: 23
  Buffer size: 11059200
  Buffer per thread: 2
  We computed 12869665 shell quartets total.
  Whereas there are 13799631 unique shell quartets.

  ==> DiskJK: Disk-Based J/K Matrices <==

    J tasked:                  Yes
    K tasked:                  Yes
    wK tasked:                  No
    Memory [MiB]:              375
    Schwarz Cutoff:          1E-12

    OpenMP threads:              1

  Minimum eigenvalue in the overlap matrix is 3.2023595986E-04.
  Using Symmetric Orthogonalization.

  SCF Guess: Superposition of Atomic Densities via on-the-fly atomic UHF.

  ==> Iterations <==

                        Total Energy        Delta E     RMS |[F,P]|

   @RHF iter SAD:  -422.72372024107426   -4.22724e+02   0.00000e+00
   @RHF iter   1:  -423.60012886577152   -8.76409e-01   2.99383e-03 DIIS
   @RHF iter   2:  -423.81744957359047   -2.17321e-01   1.27239e-03 DIIS
   @RHF iter   3:  -423.85319658986964   -3.57470e-02   2.84630e-04 DIIS
   @RHF iter   4:  -423.85608087503590   -2.88429e-03   1.17214e-04 DIIS
   @RHF iter   5:  -423.85643587829594   -3.55003e-04   2.11971e-05 DIIS
   @RHF iter   6:  -423.85645411847509   -1.82402e-05   6.54163e-06 DIIS
   @RHF iter   7:  -423.85645595217966   -1.83370e-06   2.22347e-06 DIIS
   @RHF iter   8:  -423.85645625190472   -2.99725e-07   8.88937e-07 DIIS
   @RHF iter   9:  -423.85645631637396   -6.44692e-08   4.22855e-07 DIIS
   @RHF iter  10:  -423.85645633188244   -1.55085e-08   1.85763e-07 DIIS
   @RHF iter  11:  -423.85645633666542   -4.78298e-09   6.94127e-08 DIIS
   @RHF iter  12:  -423.85645633716871   -5.03292e-10   2.91061e-08 DIIS
   @RHF iter  13:  -423.85645633722635   -5.76392e-11   7.86154e-09 DIIS
   @RHF iter  14:  -423.85645633723323   -6.87805e-12   2.27214e-09 DIIS
   @RHF iter  15:  -423.85645633723414   -9.09495e-13   7.05857e-10 DIIS
   @RHF iter  16:  -423.85645633723209    2.04636e-12   2.55898e-10 DIIS
   @RHF iter  17:  -423.85645633723334   -1.25056e-12   1.15987e-10 DIIS
   @RHF iter  18:  -423.85645633723209    1.25056e-12   5.94563e-11 DIIS
  Energy and wave function converged.

  ==> Post-Iterations <==

    Orbital Energies [Eh]
    ---------------------

    Doubly Occupied:

       1A    -20.582973     2A    -11.299468     3A    -11.238826
       4A    -11.238494     5A    -11.233139     6A    -11.232781
       7A    -11.230734     8A    -11.228308     9A    -11.211315
      10A    -11.208579    11A     -1.401976    12A     -1.152323
      13A     -1.038057    14A     -1.019418    15A     -1.012638
      16A     -0.926684    17A     -0.845910    18A     -0.829411
      19A     -0.803482    20A     -0.734016    21A     -0.669179
      22A     -0.642083    23A     -0.608730    24A     -0.595613
      25A     -0.591112    26A     -0.587617    27A     -0.585875
      28A     -0.571191    29A     -0.567201    30A     -0.526413
      31A     -0.498533    32A     -0.493943    33A     -0.485745
      34A     -0.479321    35A     -0.478864    36A     -0.466463
      37A     -0.339283    38A     -0.302161

    Virtual:

      39A      0.128866    40A      0.155414    41A      0.173495
      42A      0.179646    43A      0.204912    44A      0.210285
      45A      0.221231    46A      0.246788    47A      0.256982
      48A      0.264127    49A      0.265803    50A      0.274313
      51A      0.284292    52A      0.289628    53A      0.299581
      54A      0.334693    55A      0.369149    56A      0.378054
      57A      0.404812    58A      0.428490    59A      0.456169
      60A      0.482913    61A      0.496418    62A      0.505687
      63A      0.591169    64A      0.598778    65A      0.609887
      66A      0.610629    67A      0.645643    68A      0.656913
      69A      0.664209    70A      0.673225    71A      0.685679
      72A      0.691336    73A      0.713689    74A      0.724847
      75A      0.727701    76A      0.737628    77A      0.765033
      78A      0.770217    79A      0.776123    80A      0.792545
      81A      0.816599    82A      0.846522    83A      0.848600
      84A      0.851104    85A      0.870150    86A      0.877153
      87A      0.884105    88A      0.888624    89A      0.896134
      90A      0.905957    91A      0.907440    92A      0.915797
      93A      0.922538    94A      0.927908    95A      0.943284
      96A      0.953058    97A      0.966415    98A      0.973572
      99A      1.008806   100A      1.018979   101A      1.041273
     102A      1.071792   103A      1.124652   104A      1.134969
     105A      1.138273   106A      1.144106   107A      1.147862
     108A      1.177835   109A      1.200528   110A      1.243670
     111A      1.248000   112A      1.267179   113A      1.282718
     114A      1.292595   115A      1.304345   116A      1.314418
     117A      1.346543   118A      1.359827   119A      1.368411
     120A      1.388671   121A      1.472214   122A      1.480983
     123A      1.490166   124A      1.504514   125A      1.531039
     126A      1.556042   127A      1.582268   128A      1.616609
     129A      1.621289   130A      1.683468   131A      1.687479
     132A      1.699063   133A      1.706295   134A      1.733144
     135A      1.753860   136A      1.786637   137A      1.799490
     138A      1.803515   139A      1.856647   140A      1.869530
     141A      1.878991   142A      1.891063   143A      1.900122
     144A      1.901118   145A      1.912212   146A      1.921154
     147A      1.924044   148A      1.946587   149A      1.952963
     150A      1.955412   151A      1.960318   152A      1.970889
     153A      1.973023   154A      1.983856   155A      1.992341
     156A      1.999720   157A      2.044019   158A      2.047547
     159A      2.061244   160A      2.072623   161A      2.073189
     162A      2.113420   163A      2.125145   164A      2.146209
     165A      2.148154   166A      2.160225   167A      2.201641
     168A      2.232164   169A      2.260958   170A      2.275375
     171A      2.292672   172A      2.304519   173A      2.313496
     174A      2.339818   175A      2.365993   176A      2.424792
     177A      2.459071   178A      2.463469   179A      2.470465
     180A      2.484886   181A      2.491808   182A      2.534831
     183A      2.543346   184A      2.570873   185A      2.590251
     186A      2.601905   187A      2.650999   188A      2.750870
     189A      2.772941   190A      2.776915   191A      2.791136
     192A      2.805450   193A      2.816099   194A      2.842657
     195A      2.860998   196A      2.872990   197A      2.908341
     198A      2.953189   199A      2.974698   200A      2.984838
     201A      3.024819   202A      3.091012   203A      3.112629
     204A      3.252927   205A      3.285165   206A      3.349088
     207A      3.578370   208A      3.675551   209A      3.982393
     210A      4.194642

    Final Occupation by Irrep:
              A
    DOCC [    38 ]

  @RHF Final Energy:  -423.85645633723209

   => Energetics <=

    Nuclear Repulsion Energy =            503.1377604052347010
    One-Electron Energy =               -1572.0727178428519437
    Two-Electron Energy =                 645.0785011003850968
    Total Energy =                       -423.8564563372320890

Computation Completed

Properties will be evaluated at   0.000000,   0.000000,   0.000000 [a0]

Properties computed using the SCF density matrix

  Nuclear Dipole Moment: [e a0]
     X:     3.7533      Y:    12.6308      Z:    -6.9412

  Electronic Dipole Moment: [e a0]
     X:    -3.9051      Y:   -12.9234      Z:     6.4581

  Dipole Moment: [e a0]
     X:    -0.1518      Y:    -0.2926      Z:    -0.4831     Total:     0.5848

  Dipole Moment: [D]
     X:    -0.3858      Y:    -0.7436      Z:    -1.2279     Total:     1.4865

*** tstop() called on ds3 at Tue Apr 28 11:59:54 2020
Module time:
	user time   =      98.71 seconds =       1.65 minutes
	system time =      43.04 seconds =       0.72 minutes
	total time  =        136 seconds =       2.27 minutes
Total time:
	user time   =      98.71 seconds =       1.65 minutes
	system time =      43.04 seconds =       0.72 minutes
	total time  =        136 seconds =       2.27 minutes
                                     G D M A

                                 by Anthony Stone

                           version 2.2.06, 22 June 2011

               Distributed Multipoles from Gaussian wavefunctions

Starting at 11:59:54 on 28 Apr 2020

Using SCF density matrix from file ./SSI/SSI-226LEU-294TYR-2-dimer.test.24008.fchk

                         Distributed Multipole Analysis

Standard DMA

Positions and radii in angstrom
Multipole moments in atomic units, ea_0^k for rank k

C          x =  0.492137  y =  3.385343  z = -0.186369 angstrom
           Maximum rank =  0   Radius =  0.650 angstrom
                   Q00  =  -0.240572

C          x = -0.785863  y =  3.216343  z = -0.998369 angstrom
           Maximum rank =  0   Radius =  0.650 angstrom
                   Q00  =  -0.232422

H          x =  0.966137  y =  2.418343  z = -0.033369 angstrom
           Maximum rank =  0   Radius =  0.325 angstrom
                   Q00  =   0.091397

H          x =  1.180137  y =  4.041343  z = -0.720369 angstrom
           Maximum rank =  0   Radius =  0.325 angstrom
                   Q00  =   0.070944

H          x =  0.266137  y =  3.834343  z =  0.778631 angstrom
           Maximum rank =  0   Radius =  0.325 angstrom
                   Q00  =   0.077087

H          x = -1.212863  y =  4.204343  z = -1.145369 angstrom
           Maximum rank =  0   Radius =  0.325 angstrom
                   Q00  =   0.072423

H          x = -1.510283  y =  2.581845  z = -0.466743 angstrom
           Maximum rank =  0   Radius =  0.325 angstrom
                   Q00  =   0.084394

H          x = -0.563428  y =  2.785194  z = -1.985605 angstrom
           Maximum rank =  0   Radius =  0.325 angstrom
                   Q00  =   0.075942

C          x =  2.181137  y = -0.359657  z = -1.758369 angstrom
           Maximum rank =  0   Radius =  0.650 angstrom
                   Q00  =  -0.190266

C          x =  1.186137  y = -0.198657  z =  0.552631 angstrom
           Maximum rank =  0   Radius =  0.650 angstrom
                   Q00  =  -0.014126

C          x =  1.084137  y = -0.644657  z = -0.763369 angstrom
           Maximum rank =  0   Radius =  0.650 angstrom
                   Q00  =  -0.145211

C          x =  0.172137  y = -0.457657  z =  1.470631 angstrom
           Maximum rank =  0   Radius =  0.650 angstrom
                   Q00  =  -0.125041

C          x = -0.047863  y = -1.360657  z = -1.145369 angstrom
           Maximum rank =  0   Radius =  0.650 angstrom
                   Q00  =   0.030635

C          x = -0.953863  y = -1.171657  z =  1.073631 angstrom
           Maximum rank =  0   Radius =  0.650 angstrom
                   Q00  =   0.318271

C          x = -1.064863  y = -1.624657  z = -0.234369 angstrom
           Maximum rank =  0   Radius =  0.650 angstrom
                   Q00  =  -0.181712

O          x = -1.950863  y = -1.437657  z =  1.959631 angstrom
           Maximum rank =  0   Radius =  0.650 angstrom
                   Q00  =  -0.673952

H          x =  2.062137  y =  0.355343  z =  0.864631 angstrom
           Maximum rank =  0   Radius =  0.325 angstrom
                   Q00  =   0.065088

H          x =  0.239137  y = -0.098657  z =  2.487631 angstrom
           Maximum rank =  0   Radius =  0.325 angstrom
                   Q00  =   0.081618

H          x =  2.675137  y =  0.572343  z = -1.476369 angstrom
           Maximum rank =  0   Radius =  0.325 angstrom
                   Q00  =   0.095286

H          x =  1.723137  y = -0.198657  z = -2.734369 angstrom
           Maximum rank =  0   Radius =  0.325 angstrom
                   Q00  =   0.095206

H          x = -0.135863  y = -1.738657  z = -2.150369 angstrom
           Maximum rank =  0   Radius =  0.325 angstrom
                   Q00  =   0.067959

H          x = -1.937863  y = -2.180657  z = -0.546369 angstrom
           Maximum rank =  0   Radius =  0.325 angstrom
                   Q00  =   0.070562

H          x = -2.666863  y = -1.933657  z =  1.555631 angstrom
           Maximum rank =  0   Radius =  0.325 angstrom
                   Q00  =   0.405780

H          x =  2.928881  y = -1.162097  z = -1.841852 angstrom
           Maximum rank =  0   Radius =  0.325 angstrom
                   Q00  =   0.100710

Total multipoles referred to origin at
           x =   0.000000,  y =    0.000000,  z =    0.000000 angstrom
                   Q00  =  -0.000000

Finished at 11:59:54 on 28 Apr 2020

  DMA results are available in the Python driver through the
	  variable('DMA DISTRIBUTED MULTIPOLES')
  and
	  variable('DMA TOTAL MULTIPOLES')
  commands.

    Psi4 stopped on: Tuesday, 28 April 2020 11:59AM
    Psi4 wall time for execution: 0:02:16.09

*** Psi4 exiting successfully. Buy a developer a beer!
