                               Psi4 1.3.2 release

  ==> Input File <==

--------------------------------------------------------------------------
import numpy as np
set {scf_type pk
basis cc-pvdz
d_convergence 10
gdma_switch   0
gdma_limit    0
gdma_origin   [ 0.0,  0.0,  0.0 ]
}
molecule test {
    units Angstrom
    0 1
    --
    0 1
    C                2.496273631129100     0.393154246194731     0.649036439380624
    C               -0.539726368870900    -0.959845753805269    -1.263963560619376
    C                0.546273631129100    -0.885845753805269    -0.409963560619376
    C               -0.954726368870900     0.128154246194731    -2.010963560619375
    C                1.299273631129100     0.276154246194731    -0.284963560619376
    C               -0.204726368870900     1.296154246194731    -1.899963560619375
    C                0.896273631129100     1.378154246194731    -1.032963560619376
    H               -1.085726368870900    -1.888845753805269    -1.339963560619375
    H                0.818273631129100    -1.755845753805269     0.169036439380624
    H               -1.812726368870900     0.067154246194731    -2.667963560619376
    H               -0.500726368870900     2.160154246194731    -2.473963560619376
    H                2.279273631129100    -0.162845753805269     1.562036439380625
    H                2.614273631129100     1.438154246194731     0.940036439380624
    H                1.443273631129100     2.299154246194731    -0.946963560619376
    H                3.450103631129100     0.043031246194731     0.227596439380624
    C               -1.940726368870900    -1.322845753805269     2.269036439380624
    C               -1.370726368870900    -0.116845753805269     3.028036439380625
    H               -1.964726368870900    -1.141845753805269     1.197036439380625
    H               -1.299726368870900    -2.177845753805269     2.466036439380624
    H               -2.943726368870900    -1.560845753805269     2.625036439380624
    H               -0.439726368870900     0.211154246194731     2.564036439380624
    H               -1.157726368870900    -0.448845753805269     4.043036439380625
    H               -2.108746368870900     0.698825246194731     3.025896439380624

}
e, wfn = energy('scf', return_wfn=True)
gdma(wfn)
dmavals = variable('DMA DISTRIBUTED MULTIPOLES')
charges = np.array(dmavals)
print(charges)
np.save('SSI-007PHE-091ILE-1-dimer.npy', np.array(charges))--------------------------------------------------------------------------

*** tstart() called on ds3
*** at Mon Apr 27 17:42:26 2020

   => Loading Basis Set <=

    Name: CC-PVDZ
    Role: ORBITAL
    Keyword: BASIS
    atoms 1-7, 16-17  entry C          line   138 file /theoryfs2/ds/metcalf/miniconda2/envs/tf2gpu/share/psi4/basis/cc-pvdz.gbs
    atoms 8-15, 18-23 entry H          line    22 file /theoryfs2/ds/metcalf/miniconda2/envs/tf2gpu/share/psi4/basis/cc-pvdz.gbs

         ---------------------------------------------------------
                                   SCF
               by Justin Turney, Rob Parrish, Andy Simmonett
                          and Daniel G. A. Smith
                              RHF Reference
                        1 Threads,    500 MiB Core
         ---------------------------------------------------------

  ==> Geometry <==

    Molecular point group: c1
    Full point group: C1

    Geometry (in Angstrom), charge = 0, multiplicity = 1:

       Center              X                  Y                   Z               Mass
    ------------   -----------------  -----------------  -----------------  -----------------
         C            2.496273631129     0.393154246195     0.649036439381    12.000000000000
         C           -0.539726368871    -0.959845753805    -1.263963560619    12.000000000000
         C            0.546273631129    -0.885845753805    -0.409963560619    12.000000000000
         C           -0.954726368871     0.128154246195    -2.010963560619    12.000000000000
         C            1.299273631129     0.276154246195    -0.284963560619    12.000000000000
         C           -0.204726368871     1.296154246195    -1.899963560619    12.000000000000
         C            0.896273631129     1.378154246195    -1.032963560619    12.000000000000
         H           -1.085726368871    -1.888845753805    -1.339963560619     1.007825032230
         H            0.818273631129    -1.755845753805     0.169036439381     1.007825032230
         H           -1.812726368871     0.067154246195    -2.667963560619     1.007825032230
         H           -0.500726368871     2.160154246195    -2.473963560619     1.007825032230
         H            2.279273631129    -0.162845753805     1.562036439381     1.007825032230
         H            2.614273631129     1.438154246195     0.940036439381     1.007825032230
         H            1.443273631129     2.299154246195    -0.946963560619     1.007825032230
         H            3.450103631129     0.043031246195     0.227596439381     1.007825032230
         C           -1.940726368871    -1.322845753805     2.269036439381    12.000000000000
         C           -1.370726368871    -0.116845753805     3.028036439381    12.000000000000
         H           -1.964726368871    -1.141845753805     1.197036439381     1.007825032230
         H           -1.299726368871    -2.177845753805     2.466036439381     1.007825032230
         H           -2.943726368871    -1.560845753805     2.625036439381     1.007825032230
         H           -0.439726368871     0.211154246195     2.564036439381     1.007825032230
         H           -1.157726368871    -0.448845753805     4.043036439381     1.007825032230
         H           -2.108746368871     0.698825246195     3.025896439381     1.007825032230

  Running in c1 symmetry.

  Rotational constants: A =      0.05896  B =      0.03264  C =      0.02574 [cm^-1]
  Rotational constants: A =   1767.66426  B =    978.55533  C =    771.66382 [MHz]
  Nuclear repulsion =  415.390735592363797

  Charge       = 0
  Multiplicity = 1
  Electrons    = 68
  Nalpha       = 34
  Nbeta        = 34

  ==> Algorithm <==

  SCF Algorithm Type is PK.
  DIIS enabled.
  MOM disabled.
  Fractional occupation disabled.
  Guess Type is SAD.
  Energy threshold   = 1.00e-06
  Density threshold  = 1.00e-10
  Integral threshold = 0.00e+00

  ==> Primary Basis <==

  Basis Set: CC-PVDZ
    Blend: CC-PVDZ
    Number of shells: 96
    Number of basis function: 196
    Number of Cartesian functions: 205
    Spherical Harmonics?: true
    Max angular momentum: 2

  ==> Pre-Iterations <==

   -------------------------------------------------------
    Irrep   Nso     Nmo     Nalpha   Nbeta   Ndocc  Nsocc
   -------------------------------------------------------
     A        196     196       0       0       0       0
   -------------------------------------------------------
    Total     196     196      34      34      34       0
   -------------------------------------------------------

  ==> Integral Setup <==

  Using integral reordering PK algorithm.
  Sizing the integral batches needed.
  Building batch lookup table.
   Calculation information:
      Number of atoms:                  23
      Number of AO shells:              96
      Number of primitives:            268
      Number of atomic orbitals:       205
      Number of basis functions:       196

      Integral cutoff                 1.00e-12
      Number of threads:                 1

	Batch   1 pq = [       0,    9405] index = [             0,44231715] size =     44231715
	Batch   2 pq = [    9405,   13301] index = [      44231715,88464951] size =     44233236
	Batch   3 pq = [   13301,   16290] index = [      88464951,132690195] size =     44225244
	Batch   4 pq = [   16290,   18810] index = [     132690195,176917455] size =     44227260
	Batch   5 pq = [   18810,   19306] index = [     176917455,186370471] size =      9453016
  Task number: 17
  Buffer size: 11059200
  Buffer per thread: 2
  We computed 10399382 shell quartets total.
  Whereas there are 10841496 unique shell quartets.

  ==> DiskJK: Disk-Based J/K Matrices <==

    J tasked:                  Yes
    K tasked:                  Yes
    wK tasked:                  No
    Memory [MiB]:              375
    Schwarz Cutoff:          1E-12

    OpenMP threads:              1

  Minimum eigenvalue in the overlap matrix is 3.0759506177E-04.
  Using Symmetric Orthogonalization.

  SCF Guess: Superposition of Atomic Densities via on-the-fly atomic UHF.

  ==> Iterations <==

                        Total Energy        Delta E     RMS |[F,P]|

   @RHF iter SAD:  -347.86422539103989   -3.47864e+02   0.00000e+00
   @RHF iter   1:  -348.76672826315729   -9.02503e-01   2.89039e-03 DIIS
   @RHF iter   2:  -348.95803297996628   -1.91305e-01   1.20310e-03 DIIS
   @RHF iter   3:  -348.98823777166706   -3.02048e-02   2.58609e-04 DIIS
   @RHF iter   4:  -348.99070419219066   -2.46642e-03   5.31889e-05 DIIS
   @RHF iter   5:  -348.99077868667592   -7.44945e-05   1.82425e-05 DIIS
   @RHF iter   6:  -348.99078682156505   -8.13489e-06   4.88214e-06 DIIS
   @RHF iter   7:  -348.99078749375889   -6.72194e-07   1.23336e-06 DIIS
   @RHF iter   8:  -348.99078753989045   -4.61316e-08   2.67125e-07 DIIS
   @RHF iter   9:  -348.99078754340337   -3.51292e-09   1.05018e-07 DIIS
   @RHF iter  10:  -348.99078754390649   -5.03121e-10   4.52264e-08 DIIS
   @RHF iter  11:  -348.99078754404894   -1.42450e-10   2.01175e-08 DIIS
   @RHF iter  12:  -348.99078754408151   -3.25713e-11   9.81752e-09 DIIS
   @RHF iter  13:  -348.99078754408976   -8.24230e-12   4.02686e-09 DIIS
   @RHF iter  14:  -348.99078754409345   -3.69482e-12   7.42305e-10 DIIS
   @RHF iter  15:  -348.99078754409538   -1.93268e-12   2.64078e-10 DIIS
   @RHF iter  16:  -348.99078754409243    2.95586e-12   8.91343e-11 DIIS
  Energy and wave function converged.

  ==> Post-Iterations <==

    Orbital Energies [Eh]
    ---------------------

    Doubly Occupied:

       1A    -11.242700     2A    -11.236576     3A    -11.233789
       4A    -11.233108     5A    -11.232246     6A    -11.231011
       7A    -11.229437     8A    -11.212643     9A    -11.209006
      10A     -1.154160    11A     -1.045176    12A     -1.012419
      13A     -1.009020    14A     -0.934556    15A     -0.830906
      16A     -0.825358    17A     -0.797321    18A     -0.693657
      19A     -0.631592    20A     -0.628762    21A     -0.594661
      22A     -0.593591    23A     -0.577880    24A     -0.575938
      25A     -0.567511    26A     -0.536532    27A     -0.492423
      28A     -0.489434    29A     -0.486123    30A     -0.481240
      31A     -0.479969    32A     -0.478397    33A     -0.330377
      34A     -0.326192

    Virtual:

      35A      0.135513    36A      0.139309    37A      0.170435
      38A      0.195364    39A      0.202096    40A      0.221836
      41A      0.234644    42A      0.247118    43A      0.256097
      44A      0.260819    45A      0.264846    46A      0.276918
      47A      0.290530    48A      0.293922    49A      0.307744
      50A      0.331337    51A      0.367462    52A      0.373669
      53A      0.399841    54A      0.450383    55A      0.466146
      56A      0.482532    57A      0.494025    58A      0.557611
      59A      0.582427    60A      0.596490    61A      0.606993
      62A      0.611821    63A      0.660704    64A      0.674975
      65A      0.681275    66A      0.689897    67A      0.699295
      68A      0.703125    69A      0.721769    70A      0.738504
      71A      0.741628    72A      0.748011    73A      0.761816
      74A      0.777186    75A      0.784543    76A      0.828218
      77A      0.836931    78A      0.847487    79A      0.859315
      80A      0.864301    81A      0.876714    82A      0.882508
      83A      0.894333    84A      0.897454    85A      0.902156
      86A      0.908632    87A      0.909743    88A      0.930972
      89A      0.939783    90A      0.947279    91A      0.976020
      92A      0.980936    93A      0.999912    94A      1.022154
      95A      1.026905    96A      1.060782    97A      1.118834
      98A      1.127565    99A      1.141142   100A      1.142485
     101A      1.149819   102A      1.172699   103A      1.194822
     104A      1.234649   105A      1.241187   106A      1.250067
     107A      1.262549   108A      1.277112   109A      1.298178
     110A      1.309817   111A      1.326495   112A      1.345331
     113A      1.407501   114A      1.481642   115A      1.491415
     116A      1.514807   117A      1.519527   118A      1.546446
     119A      1.594154   120A      1.602148   121A      1.667406
     122A      1.684599   123A      1.696667   124A      1.703672
     125A      1.737420   126A      1.754229   127A      1.769126
     128A      1.801445   129A      1.807687   130A      1.860942
     131A      1.863052   132A      1.870064   133A      1.885227
     134A      1.890626   135A      1.911602   136A      1.918357
     137A      1.919785   138A      1.922846   139A      1.942045
     140A      1.947063   141A      1.948343   142A      1.959063
     143A      1.963774   144A      1.968577   145A      1.980443
     146A      1.983274   147A      1.994666   148A      2.010699
     149A      2.038200   150A      2.059773   151A      2.074749
     152A      2.108580   153A      2.123755   154A      2.141616
     155A      2.146238   156A      2.162229   157A      2.176408
     158A      2.178253   159A      2.180394   160A      2.258023
     161A      2.281733   162A      2.287544   163A      2.293339
     164A      2.307350   165A      2.311515   166A      2.315651
     167A      2.337828   168A      2.458885   169A      2.467085
     170A      2.467770   171A      2.479335   172A      2.499254
     173A      2.536522   174A      2.583994   175A      2.598376
     176A      2.616205   177A      2.736672   178A      2.754772
     179A      2.767412   180A      2.781648   181A      2.791189
     182A      2.807560   183A      2.827376   184A      2.845372
     185A      2.853803   186A      2.862884   187A      2.868928
     188A      2.967645   189A      2.973582   190A      2.999856
     191A      3.005655   192A      3.034272   193A      3.154368
     194A      3.197895   195A      3.308892   196A      3.956814

    Final Occupation by Irrep:
              A
    DOCC [    34 ]

  @RHF Final Energy:  -348.99078754409243

   => Energetics <=

    Nuclear Repulsion Energy =            415.3907355923637965
    One-Electron Energy =               -1293.4956217006756560
    Two-Electron Energy =                 529.1140985642193755
    Total Energy =                       -348.9907875440924272

Computation Completed

Properties will be evaluated at   0.000000,   0.000000,   0.000000 [a0]

Properties computed using the SCF density matrix

  Nuclear Dipole Moment: [e a0]
     X:    -2.5390      Y:    -2.0805      Z:    10.6786

  Electronic Dipole Moment: [e a0]
     X:     2.6633      Y:     2.1105      Z:   -10.6678

  Dipole Moment: [e a0]
     X:     0.1243      Y:     0.0300      Z:     0.0109     Total:     0.1283

  Dipole Moment: [D]
     X:     0.3160      Y:     0.0761      Z:     0.0277     Total:     0.3262

*** tstop() called on ds3 at Mon Apr 27 17:44:06 2020
Module time:
	user time   =      75.54 seconds =       1.26 minutes
	system time =      27.94 seconds =       0.47 minutes
	total time  =        100 seconds =       1.67 minutes
Total time:
	user time   =      75.54 seconds =       1.26 minutes
	system time =      27.94 seconds =       0.47 minutes
	total time  =        100 seconds =       1.67 minutes
                                     G D M A

                                 by Anthony Stone

                           version 2.2.06, 22 June 2011

               Distributed Multipoles from Gaussian wavefunctions

Starting at 17:44:6 on 27 Apr 2020

Using SCF density matrix from file ./SSI/SSI-007PHE-091ILE-1-dimer.test.12038.fchk

                         Distributed Multipole Analysis

Standard DMA

Positions and radii in angstrom
Multipole moments in atomic units, ea_0^k for rank k

C          x =  2.496274  y =  0.393154  z =  0.649036 angstrom
           Maximum rank =  0   Radius =  0.650 angstrom
                   Q00  =  -0.211268

C          x = -0.539726  y = -0.959846  z = -1.263964 angstrom
           Maximum rank =  0   Radius =  0.650 angstrom
                   Q00  =  -0.031269

C          x =  0.546274  y = -0.885846  z = -0.409964 angstrom
           Maximum rank =  0   Radius =  0.650 angstrom
                   Q00  =  -0.006150

C          x = -0.954726  y =  0.128154  z = -2.010964 angstrom
           Maximum rank =  0   Radius =  0.650 angstrom
                   Q00  =  -0.088572

C          x =  1.299274  y =  0.276154  z = -0.284964 angstrom
           Maximum rank =  0   Radius =  0.650 angstrom
                   Q00  =  -0.103921

C          x = -0.204726  y =  1.296154  z = -1.899964 angstrom
           Maximum rank =  0   Radius =  0.650 angstrom
                   Q00  =  -0.081674

C          x =  0.896274  y =  1.378154  z = -1.032964 angstrom
           Maximum rank =  0   Radius =  0.650 angstrom
                   Q00  =  -0.087684

H          x = -1.085726  y = -1.888846  z = -1.339964 angstrom
           Maximum rank =  0   Radius =  0.325 angstrom
                   Q00  =   0.062188

H          x =  0.818274  y = -1.755846  z =  0.169036 angstrom
           Maximum rank =  0   Radius =  0.325 angstrom
                   Q00  =   0.054228

H          x = -1.812726  y =  0.067154  z = -2.667964 angstrom
           Maximum rank =  0   Radius =  0.325 angstrom
                   Q00  =   0.066363

H          x = -0.500726  y =  2.160154  z = -2.473964 angstrom
           Maximum rank =  0   Radius =  0.325 angstrom
                   Q00  =   0.063749

H          x =  2.279274  y = -0.162846  z =  1.562036 angstrom
           Maximum rank =  0   Radius =  0.325 angstrom
                   Q00  =   0.098833

H          x =  2.614274  y =  1.438154  z =  0.940036 angstrom
           Maximum rank =  0   Radius =  0.325 angstrom
                   Q00  =   0.099240

H          x =  1.443274  y =  2.299154  z = -0.946964 angstrom
           Maximum rank =  0   Radius =  0.325 angstrom
                   Q00  =   0.057413

H          x =  3.450104  y =  0.043031  z =  0.227596 angstrom
           Maximum rank =  0   Radius =  0.325 angstrom
                   Q00  =   0.109353

C          x = -1.940726  y = -1.322846  z =  2.269036 angstrom
           Maximum rank =  0   Radius =  0.650 angstrom
                   Q00  =  -0.231766

C          x = -1.370726  y = -0.116846  z =  3.028036 angstrom
           Maximum rank =  0   Radius =  0.650 angstrom
                   Q00  =  -0.241050

H          x = -1.964726  y = -1.141846  z =  1.197036 angstrom
           Maximum rank =  0   Radius =  0.325 angstrom
                   Q00  =   0.092146

H          x = -1.299726  y = -2.177846  z =  2.466036 angstrom
           Maximum rank =  0   Radius =  0.325 angstrom
                   Q00  =   0.068607

H          x = -2.943726  y = -1.560846  z =  2.625036 angstrom
           Maximum rank =  0   Radius =  0.325 angstrom
                   Q00  =   0.075632

H          x = -0.439726  y =  0.211154  z =  2.564036 angstrom
           Maximum rank =  0   Radius =  0.325 angstrom
                   Q00  =   0.084269

H          x = -1.157726  y = -0.448846  z =  4.043036 angstrom
           Maximum rank =  0   Radius =  0.325 angstrom
                   Q00  =   0.072326

H          x = -2.108746  y =  0.698825  z =  3.025896 angstrom
           Maximum rank =  0   Radius =  0.325 angstrom
                   Q00  =   0.079007

Total multipoles referred to origin at
           x =   0.000000,  y =    0.000000,  z =    0.000000 angstrom
                   Q00  =  -0.000000

Finished at 17:44:6 on 27 Apr 2020

  DMA results are available in the Python driver through the
	  variable('DMA DISTRIBUTED MULTIPOLES')
  and
	  variable('DMA TOTAL MULTIPOLES')
  commands.

    Psi4 stopped on: Monday, 27 April 2020 05:44PM
    Psi4 wall time for execution: 0:01:40.07

*** Psi4 exiting successfully. Buy a developer a beer!
