                               Psi4 1.3.2 release

  ==> Input File <==

--------------------------------------------------------------------------
import numpy as np
set {scf_type pk
basis cc-pvdz
d_convergence 10
gdma_switch   0
gdma_limit    0
gdma_origin   [ 0.0,  0.0,  0.0 ]
}
molecule test {
    units Angstrom
    0 1
    --
    0 1
    C               -1.566987948266965    -1.385750154073548    -1.066673187577139
    C               -1.151987948266965    -2.635750154073548    -1.860673187577139
    H               -1.583987948266965    -1.599750154073548     0.003326812422861
    H               -0.852987948266965    -0.589750154073548    -1.270673187577139
    H               -2.557987948266965    -1.057750154073548    -1.384673187577139
    H               -1.108987948266965    -2.363750154073548    -2.917673187577139
    H               -1.898547948266965    -3.432643154073548    -1.727983187577139
    H               -0.147927948266965    -2.968987154073548    -1.559313187577139
    C                0.351012051733035     0.368249845926452     2.006326812422861
    C                0.757012051733035     1.039249845926452     0.700326812422861
    O                1.915012051733035     1.012249845926452     0.305326812422861
    N               -0.193987948266965     1.642249845926452     0.014326812422861
    H                0.567012051733035    -0.694750154073548     1.908326812422861
    H               -0.724987948266965     0.463249845926452     2.160326812422861
    H                0.058012051733035     2.061249845926452    -0.867673187577139
    H               -1.145987948266965     1.669249845926452     0.349326812422861
    H                0.880412051733035     0.754954845926452     2.889612812422861

}
e, wfn = energy('scf', return_wfn=True)
gdma(wfn)
dmavals = variable('DMA DISTRIBUTED MULTIPOLES')
charges = np.array(dmavals)
print(charges)
np.save('SSI-086ALA-101GLN-1-dimer.npy', np.array(charges))--------------------------------------------------------------------------

*** tstart() called on ds3
*** at Sun Apr 26 17:27:55 2020

   => Loading Basis Set <=

    Name: CC-PVDZ
    Role: ORBITAL
    Keyword: BASIS
    atoms 1-2, 9-10  entry C          line   138 file /theoryfs2/ds/metcalf/miniconda2/envs/tf2gpu/share/psi4/basis/cc-pvdz.gbs
    atoms 3-8, 13-17 entry H          line    22 file /theoryfs2/ds/metcalf/miniconda2/envs/tf2gpu/share/psi4/basis/cc-pvdz.gbs
    atoms 11         entry O          line   198 file /theoryfs2/ds/metcalf/miniconda2/envs/tf2gpu/share/psi4/basis/cc-pvdz.gbs
    atoms 12         entry N          line   168 file /theoryfs2/ds/metcalf/miniconda2/envs/tf2gpu/share/psi4/basis/cc-pvdz.gbs

         ---------------------------------------------------------
                                   SCF
               by Justin Turney, Rob Parrish, Andy Simmonett
                          and Daniel G. A. Smith
                              RHF Reference
                        1 Threads,    500 MiB Core
         ---------------------------------------------------------

  ==> Geometry <==

    Molecular point group: c1
    Full point group: C1

    Geometry (in Angstrom), charge = 0, multiplicity = 1:

       Center              X                  Y                   Z               Mass
    ------------   -----------------  -----------------  -----------------  -----------------
         C           -1.566987948267    -1.385750154074    -1.066673187577    12.000000000000
         C           -1.151987948267    -2.635750154074    -1.860673187577    12.000000000000
         H           -1.583987948267    -1.599750154074     0.003326812423     1.007825032230
         H           -0.852987948267    -0.589750154074    -1.270673187577     1.007825032230
         H           -2.557987948267    -1.057750154074    -1.384673187577     1.007825032230
         H           -1.108987948267    -2.363750154074    -2.917673187577     1.007825032230
         H           -1.898547948267    -3.432643154074    -1.727983187577     1.007825032230
         H           -0.147927948267    -2.968987154074    -1.559313187577     1.007825032230
         C            0.351012051733     0.368249845926     2.006326812423    12.000000000000
         C            0.757012051733     1.039249845926     0.700326812423    12.000000000000
         O            1.915012051733     1.012249845926     0.305326812423    15.994914619570
         N           -0.193987948267     1.642249845926     0.014326812423    14.003074004430
         H            0.567012051733    -0.694750154074     1.908326812423     1.007825032230
         H           -0.724987948267     0.463249845926     2.160326812423     1.007825032230
         H            0.058012051733     2.061249845926    -0.867673187577     1.007825032230
         H           -1.145987948267     1.669249845926     0.349326812423     1.007825032230
         H            0.880412051733     0.754954845926     2.889612812423     1.007825032230

  Running in c1 symmetry.

  Rotational constants: A =      0.15655  B =      0.03881  C =      0.03836 [cm^-1]
  Rotational constants: A =   4693.25844  B =   1163.57934  C =   1149.86543 [MHz]
  Nuclear repulsion =  233.954011425206915

  Charge       = 0
  Multiplicity = 1
  Electrons    = 50
  Nalpha       = 25
  Nbeta        = 25

  ==> Algorithm <==

  SCF Algorithm Type is PK.
  DIIS enabled.
  MOM disabled.
  Fractional occupation disabled.
  Guess Type is SAD.
  Energy threshold   = 1.00e-06
  Density threshold  = 1.00e-10
  Integral threshold = 0.00e+00

  ==> Primary Basis <==

  Basis Set: CC-PVDZ
    Blend: CC-PVDZ
    Number of shells: 69
    Number of basis function: 139
    Number of Cartesian functions: 145
    Spherical Harmonics?: true
    Max angular momentum: 2

  ==> Pre-Iterations <==

   -------------------------------------------------------
    Irrep   Nso     Nmo     Nalpha   Nbeta   Ndocc  Nsocc
   -------------------------------------------------------
     A        139     139       0       0       0       0
   -------------------------------------------------------
    Total     139     139      25      25      25       0
   -------------------------------------------------------

  ==> Integral Setup <==

  Using integral reordering PK algorithm.
  Sizing the integral batches needed.
  Building batch lookup table.
   Calculation information:
      Number of atoms:                  17
      Number of AO shells:              69
      Number of primitives:            187
      Number of atomic orbitals:       145
      Number of basis functions:       139

      Integral cutoff                 1.00e-12
      Number of threads:                 1

	Batch   1 pq = [       0,    9730] index = [             0,47341315] size =     47341315
  Task number: 5
  Buffer size: 11059200
  Buffer per thread: 2
  We computed 2558253 shell quartets total.
  Whereas there are 2917320 unique shell quartets.

  ==> DiskJK: Disk-Based J/K Matrices <==

    J tasked:                  Yes
    K tasked:                  Yes
    wK tasked:                  No
    Memory [MiB]:              375
    Schwarz Cutoff:          1E-12

    OpenMP threads:              1

  Minimum eigenvalue in the overlap matrix is 4.3603826804E-03.
  Using Symmetric Orthogonalization.

  SCF Guess: Superposition of Atomic Densities via on-the-fly atomic UHF.

  ==> Iterations <==

                        Total Energy        Delta E     RMS |[F,P]|

   @RHF iter SAD:  -285.94123878220080   -2.85941e+02   0.00000e+00
   @RHF iter   1:  -286.99748925790107   -1.05625e+00   4.62621e-03 DIIS
   @RHF iter   2:  -287.17195293214263   -1.74464e-01   2.58585e-03 DIIS
   @RHF iter   3:  -287.22151299720548   -4.95601e-02   5.35945e-04 DIIS
   @RHF iter   4:  -287.22482759671249   -3.31460e-03   2.16807e-04 DIIS
   @RHF iter   5:  -287.22541470914456   -5.87112e-04   3.35166e-05 DIIS
   @RHF iter   6:  -287.22544434029805   -2.96312e-05   1.49839e-05 DIIS
   @RHF iter   7:  -287.22544884563013   -4.50533e-06   6.03765e-06 DIIS
   @RHF iter   8:  -287.22544986505113   -1.01942e-06   2.05318e-06 DIIS
   @RHF iter   9:  -287.22544998751192   -1.22461e-07   5.15173e-07 DIIS
   @RHF iter  10:  -287.22544999310128   -5.58936e-09   1.60676e-07 DIIS
   @RHF iter  11:  -287.22544999369904   -5.97765e-10   3.52113e-08 DIIS
   @RHF iter  12:  -287.22544999373008   -3.10365e-11   7.23551e-09 DIIS
   @RHF iter  13:  -287.22544999373190   -1.81899e-12   1.19214e-09 DIIS
   @RHF iter  14:  -287.22544999372963    2.27374e-12   4.39889e-10 DIIS
   @RHF iter  15:  -287.22544999373235   -2.72848e-12   1.43064e-10 DIIS
   @RHF iter  16:  -287.22544999373224    1.13687e-13   3.53217e-11 DIIS
  Energy and wave function converged.

  ==> Post-Iterations <==

    Orbital Energies [Eh]
    ---------------------

    Doubly Occupied:

       1A    -20.500393     2A    -15.589382     3A    -11.346325
       4A    -11.242609     5A    -11.222179     6A    -11.221345
       7A     -1.370089     8A     -1.218738     9A     -1.019431
      10A     -0.997751    11A     -0.840139    12A     -0.801212
      13A     -0.730670    14A     -0.653909    15A     -0.613168
      16A     -0.601128    17A     -0.598336    18A     -0.569257
      19A     -0.557615    20A     -0.525322    21A     -0.499870
      22A     -0.490107    23A     -0.488610    24A     -0.408463
      25A     -0.401840

    Virtual:

      26A      0.156691    27A      0.187067    28A      0.201477
      29A      0.209056    30A      0.220037    31A      0.246559
      32A      0.260326    33A      0.262535    34A      0.269412
      35A      0.293210    36A      0.295190    37A      0.306946
      38A      0.378285    39A      0.392139    40A      0.471402
      41A      0.549921    42A      0.593610    43A      0.595486
      44A      0.599599    45A      0.637401    46A      0.665455
      47A      0.681639    48A      0.692031    49A      0.705266
      50A      0.729821    51A      0.755359    52A      0.806807
      53A      0.830593    54A      0.847967    55A      0.872189
      56A      0.884804    57A      0.892354    58A      0.893206
      59A      0.910032    60A      0.916595    61A      0.924325
      62A      0.931642    63A      0.954036    64A      0.982063
      65A      1.011730    66A      1.045336    67A      1.092570
      68A      1.114591    69A      1.122026    70A      1.129865
      71A      1.145857    72A      1.238967    73A      1.330834
      74A      1.367120    75A      1.381928    76A      1.406771
      77A      1.417630    78A      1.442656    79A      1.471782
      80A      1.477999    81A      1.493325    82A      1.580126
      83A      1.624053    84A      1.665957    85A      1.674095
      86A      1.683013    87A      1.730621    88A      1.818361
      89A      1.841447    90A      1.855725    91A      1.876202
      92A      1.880941    93A      1.897936    94A      1.908553
      95A      1.911136    96A      1.928411    97A      1.942261
      98A      1.947959    99A      1.957142   100A      1.972512
     101A      1.986124   102A      2.006543   103A      2.071558
     104A      2.084448   105A      2.096661   106A      2.111833
     107A      2.127727   108A      2.233616   109A      2.290596
     110A      2.303385   111A      2.313041   112A      2.411829
     113A      2.419673   114A      2.449026   115A      2.456762
     116A      2.470147   117A      2.550887   118A      2.557973
     119A      2.564349   120A      2.569748   121A      2.639967
     122A      2.747487   123A      2.758448   124A      2.771238
     125A      2.792808   126A      2.806831   127A      2.835992
     128A      2.836587   129A      2.856067   130A      2.944910
     131A      2.967308   132A      2.983965   133A      3.093190
     134A      3.134323   135A      3.287817   136A      3.506388
     137A      3.527739   138A      3.879379   139A      3.914657

    Final Occupation by Irrep:
              A
    DOCC [    25 ]

  @RHF Final Energy:  -287.22544999373224

   => Energetics <=

    Nuclear Repulsion Energy =            233.9540114252069145
    One-Electron Energy =                -853.3431415079364797
    Two-Electron Energy =                 332.1636800889973529
    Total Energy =                       -287.2254499937322407

Computation Completed

Properties will be evaluated at   0.000000,   0.000000,   0.000000 [a0]

Properties computed using the SCF density matrix

  Nuclear Dipole Moment: [e a0]
     X:    -7.9737      Y:    -7.2734      Z:    -2.2645

  Electronic Dipole Moment: [e a0]
     X:     6.3719      Y:     7.4811      Z:     2.5122

  Dipole Moment: [e a0]
     X:    -1.6018      Y:     0.2077      Z:     0.2477     Total:     1.6341

  Dipole Moment: [D]
     X:    -4.0714      Y:     0.5279      Z:     0.6295     Total:     4.1535

*** tstop() called on ds3 at Sun Apr 26 17:28:20 2020
Module time:
	user time   =      17.61 seconds =       0.29 minutes
	system time =       7.59 seconds =       0.13 minutes
	total time  =         25 seconds =       0.42 minutes
Total time:
	user time   =      17.61 seconds =       0.29 minutes
	system time =       7.59 seconds =       0.13 minutes
	total time  =         25 seconds =       0.42 minutes
                                     G D M A

                                 by Anthony Stone

                           version 2.2.06, 22 June 2011

               Distributed Multipoles from Gaussian wavefunctions

Starting at 17:28:20 on 26 Apr 2020

Using SCF density matrix from file ./SSI/SSI-086ALA-101GLN-1-dimer.test.18601.fchk

                         Distributed Multipole Analysis

Standard DMA

Positions and radii in angstrom
Multipole moments in atomic units, ea_0^k for rank k

C          x = -1.566988  y = -1.385750  z = -1.066673 angstrom
           Maximum rank =  0   Radius =  0.650 angstrom
                   Q00  =  -0.249718

C          x = -1.151988  y = -2.635750  z = -1.860673 angstrom
           Maximum rank =  0   Radius =  0.650 angstrom
                   Q00  =  -0.237468

H          x = -1.583988  y = -1.599750  z =  0.003327 angstrom
           Maximum rank =  0   Radius =  0.325 angstrom
                   Q00  =   0.074206

H          x = -0.852988  y = -0.589750  z = -1.270673 angstrom
           Maximum rank =  0   Radius =  0.325 angstrom
                   Q00  =   0.087759

H          x = -2.557988  y = -1.057750  z = -1.384673 angstrom
           Maximum rank =  0   Radius =  0.325 angstrom
                   Q00  =   0.075440

H          x = -1.108988  y = -2.363750  z = -2.917673 angstrom
           Maximum rank =  0   Radius =  0.325 angstrom
                   Q00  =   0.079020

H          x = -1.898548  y = -3.432643  z = -1.727983 angstrom
           Maximum rank =  0   Radius =  0.325 angstrom
                   Q00  =   0.078442

H          x = -0.147928  y = -2.968987  z = -1.559313 angstrom
           Maximum rank =  0   Radius =  0.325 angstrom
                   Q00  =   0.085803

C          x =  0.351012  y =  0.368250  z =  2.006327 angstrom
           Maximum rank =  0   Radius =  0.650 angstrom
                   Q00  =  -0.268412

C          x =  0.757012  y =  1.039250  z =  0.700327 angstrom
           Maximum rank =  0   Radius =  0.650 angstrom
                   Q00  =   0.813747

O          x =  1.915012  y =  1.012250  z =  0.305327 angstrom
           Maximum rank =  0   Radius =  0.650 angstrom
                   Q00  =  -0.795012

N          x = -0.193988  y =  1.642250  z =  0.014327 angstrom
           Maximum rank =  0   Radius =  0.650 angstrom
                   Q00  =  -0.514547

H          x =  0.567012  y = -0.694750  z =  1.908327 angstrom
           Maximum rank =  0   Radius =  0.325 angstrom
                   Q00  =   0.132081

H          x = -0.724988  y =  0.463250  z =  2.160327 angstrom
           Maximum rank =  0   Radius =  0.325 angstrom
                   Q00  =   0.072380

H          x =  0.058012  y =  2.061250  z = -0.867673 angstrom
           Maximum rank =  0   Radius =  0.325 angstrom
                   Q00  =   0.221233

H          x = -1.145988  y =  1.669250  z =  0.349327 angstrom
           Maximum rank =  0   Radius =  0.325 angstrom
                   Q00  =   0.210706

H          x =  0.880412  y =  0.754955  z =  2.889613 angstrom
           Maximum rank =  0   Radius =  0.325 angstrom
                   Q00  =   0.134341

Total multipoles referred to origin at
           x =   0.000000,  y =    0.000000,  z =    0.000000 angstrom
                   Q00  =  -0.000000

Finished at 17:28:20 on 26 Apr 2020

  DMA results are available in the Python driver through the
	  variable('DMA DISTRIBUTED MULTIPOLES')
  and
	  variable('DMA TOTAL MULTIPOLES')
  commands.

    Psi4 stopped on: Sunday, 26 April 2020 05:28PM
    Psi4 wall time for execution: 0:00:25.43

*** Psi4 exiting successfully. Buy a developer a beer!
