                               Psi4 1.3.2 release

  ==> Input File <==

--------------------------------------------------------------------------
import numpy as np
set {scf_type pk
basis cc-pvdz
d_convergence 10
gdma_switch   0
gdma_limit    0
gdma_origin   [ 0.0,  0.0,  0.0 ]
}
molecule test {
    units Angstrom
    -1 1
    --
    -1 1
    C               -0.483654356919193     2.557557347572569     0.484527867801067
    C                0.937345643080807     2.096557347572568     0.181527867801067
    O                1.150345643080807     0.873557347572569     0.032527867801067
    O                1.845345643080807     2.954557347572569     0.095527867801067
    H               -0.507654356919193     3.038557347572569     1.465527867801067
    H               -1.162654356919193     1.702557347572569     0.530527867801067
    H               -0.859354356919193     3.271458347572569    -0.263265132198933
    C               -1.565654356919193    -2.893442652427431    -1.201472132198933
    C               -0.783654356919193    -2.106442652427431    -0.175472132198933
    O                0.424345643080807    -2.278442652427431    -0.028472132198933
    N               -1.471654356919193    -1.253442652427431     0.564527867801067
    H               -2.450654356919193    -2.329442652427431    -1.502472132198933
    H               -1.898654356919193    -3.815442652427431    -0.723472132198933
    H               -0.953654356919193    -0.662442652427431     1.196527867801067
    H               -2.461654356919193    -1.133442652427431     0.428527867801067
    H               -0.965714356919193    -3.133419652427432    -2.091686132198933

}
e, wfn = energy('scf', return_wfn=True)
gdma(wfn)
dmavals = variable('DMA DISTRIBUTED MULTIPOLES')
charges = np.array(dmavals)
print(charges)
np.save('SSI-073GLU-077ASN-2-dimer.npy', np.array(charges))--------------------------------------------------------------------------

*** tstart() called on ds3
*** at Tue Apr 28 11:07:32 2020

   => Loading Basis Set <=

    Name: CC-PVDZ
    Role: ORBITAL
    Keyword: BASIS
    atoms 1-2, 8-9   entry C          line   138 file /theoryfs2/ds/metcalf/miniconda2/envs/tf2gpu/share/psi4/basis/cc-pvdz.gbs
    atoms 3-4, 10    entry O          line   198 file /theoryfs2/ds/metcalf/miniconda2/envs/tf2gpu/share/psi4/basis/cc-pvdz.gbs
    atoms 5-7, 12-16 entry H          line    22 file /theoryfs2/ds/metcalf/miniconda2/envs/tf2gpu/share/psi4/basis/cc-pvdz.gbs
    atoms 11         entry N          line   168 file /theoryfs2/ds/metcalf/miniconda2/envs/tf2gpu/share/psi4/basis/cc-pvdz.gbs

         ---------------------------------------------------------
                                   SCF
               by Justin Turney, Rob Parrish, Andy Simmonett
                          and Daniel G. A. Smith
                              RHF Reference
                        1 Threads,    500 MiB Core
         ---------------------------------------------------------

  ==> Geometry <==

    Molecular point group: c1
    Full point group: C1

    Geometry (in Angstrom), charge = -1, multiplicity = 1:

       Center              X                  Y                   Z               Mass
    ------------   -----------------  -----------------  -----------------  -----------------
         C           -0.483654356919     2.557557347573     0.484527867801    12.000000000000
         C            0.937345643081     2.096557347573     0.181527867801    12.000000000000
         O            1.150345643081     0.873557347573     0.032527867801    15.994914619570
         O            1.845345643081     2.954557347573     0.095527867801    15.994914619570
         H           -0.507654356919     3.038557347573     1.465527867801     1.007825032230
         H           -1.162654356919     1.702557347573     0.530527867801     1.007825032230
         H           -0.859354356919     3.271458347573    -0.263265132199     1.007825032230
         C           -1.565654356919    -2.893442652427    -1.201472132199    12.000000000000
         C           -0.783654356919    -2.106442652427    -0.175472132199    12.000000000000
         O            0.424345643081    -2.278442652427    -0.028472132199    15.994914619570
         N           -1.471654356919    -1.253442652427     0.564527867801    14.003074004430
         H           -2.450654356919    -2.329442652427    -1.502472132199     1.007825032230
         H           -1.898654356919    -3.815442652427    -0.723472132199     1.007825032230
         H           -0.953654356919    -0.662442652427     1.196527867801     1.007825032230
         H           -2.461654356919    -1.133442652427     0.428527867801     1.007825032230
         H           -0.965714356919    -3.133419652427    -2.091686132199     1.007825032230

  Running in c1 symmetry.

  Rotational constants: A =      0.14141  B =      0.02347  C =      0.02141 [cm^-1]
  Rotational constants: A =   4239.24947  B =    703.53313  C =    641.80846 [MHz]
  Nuclear repulsion =  348.551237366762280

  Charge       = -1
  Multiplicity = 1
  Electrons    = 64
  Nalpha       = 32
  Nbeta        = 32

  ==> Algorithm <==

  SCF Algorithm Type is PK.
  DIIS enabled.
  MOM disabled.
  Fractional occupation disabled.
  Guess Type is SAD.
  Energy threshold   = 1.00e-06
  Density threshold  = 1.00e-10
  Integral threshold = 0.00e+00

  ==> Primary Basis <==

  Basis Set: CC-PVDZ
    Blend: CC-PVDZ
    Number of shells: 72
    Number of basis function: 152
    Number of Cartesian functions: 160
    Spherical Harmonics?: true
    Max angular momentum: 2

  ==> Pre-Iterations <==

   -------------------------------------------------------
    Irrep   Nso     Nmo     Nalpha   Nbeta   Ndocc  Nsocc
   -------------------------------------------------------
     A        152     152       0       0       0       0
   -------------------------------------------------------
    Total     152     152      32      32      32       0
   -------------------------------------------------------

  ==> Integral Setup <==

  Using integral reordering PK algorithm.
  Sizing the integral batches needed.
  Building batch lookup table.
   Calculation information:
      Number of atoms:                  16
      Number of AO shells:              72
      Number of primitives:            216
      Number of atomic orbitals:       160
      Number of basis functions:       152

      Integral cutoff                 1.00e-12
      Number of threads:                 1

	Batch   1 pq = [       0,    9405] index = [             0,44231715] size =     44231715
	Batch   2 pq = [    9405,   11628] index = [      44231715,67611006] size =     23379291
  Task number: 7
  Buffer size: 11059200
  Buffer per thread: 2
  We computed 2631996 shell quartets total.
  Whereas there are 3454506 unique shell quartets.

  ==> DiskJK: Disk-Based J/K Matrices <==

    J tasked:                  Yes
    K tasked:                  Yes
    wK tasked:                  No
    Memory [MiB]:              375
    Schwarz Cutoff:          1E-12

    OpenMP threads:              1

  Minimum eigenvalue in the overlap matrix is 4.5569729376E-03.
  Using Symmetric Orthogonalization.

  SCF Guess: Superposition of Atomic Densities via on-the-fly atomic UHF.

  ==> Iterations <==

                        Total Energy        Delta E     RMS |[F,P]|

   @RHF iter SAD:  -433.44284194685008   -4.33443e+02   0.00000e+00
   @RHF iter   1:  -434.88143331993592   -1.43859e+00   5.59925e-03 DIIS
   @RHF iter   2:  -435.12600645861335   -2.44573e-01   3.45250e-03 DIIS
   @RHF iter   3:  -435.22246055950120   -9.64541e-02   5.28709e-04 DIIS
   @RHF iter   4:  -435.22625125536740   -3.79070e-03   2.08803e-04 DIIS
   @RHF iter   5:  -435.22694191395249   -6.90659e-04   4.70534e-05 DIIS
   @RHF iter   6:  -435.22698361578307   -4.17018e-05   2.31738e-05 DIIS
   @RHF iter   7:  -435.22699394407789   -1.03283e-05   7.11344e-06 DIIS
   @RHF iter   8:  -435.22699569583398   -1.75176e-06   2.83645e-06 DIIS
   @RHF iter   9:  -435.22699595021083   -2.54377e-07   1.06833e-06 DIIS
   @RHF iter  10:  -435.22699598119243   -3.09816e-08   2.78934e-07 DIIS
   @RHF iter  11:  -435.22699598304820   -1.85577e-09   1.20269e-07 DIIS
   @RHF iter  12:  -435.22699598324419   -1.95996e-10   3.04867e-08 DIIS
   @RHF iter  13:  -435.22699598326693   -2.27374e-11   8.49332e-09 DIIS
   @RHF iter  14:  -435.22699598326921   -2.27374e-12   2.93038e-09 DIIS
   @RHF iter  15:  -435.22699598326994   -7.38964e-13   1.24767e-09 DIIS
   @RHF iter  16:  -435.22699598327046   -5.11591e-13   5.34648e-10 DIIS
   @RHF iter  17:  -435.22699598326994    5.11591e-13   2.21609e-10 DIIS
   @RHF iter  18:  -435.22699598327029   -3.41061e-13   7.76724e-11 DIIS
  Energy and wave function converged.

  ==> Post-Iterations <==

    Orbital Energies [Eh]
    ---------------------

    Doubly Occupied:

       1A    -20.378631     2A    -20.251790     3A    -20.247161
       4A    -15.464360     5A    -11.226666     6A    -11.142926
       7A    -11.108824     8A    -11.053021     9A     -1.242560
      10A     -1.140047    11A     -1.095371    12A     -1.025316
      13A     -0.896409    14A     -0.796444    15A     -0.680696
      16A     -0.608426    17A     -0.537866    18A     -0.506657
      19A     -0.496390    20A     -0.458102    21A     -0.448998
      22A     -0.410211    23A     -0.408504    24A     -0.403325
      25A     -0.394340    26A     -0.334896    27A     -0.297853
      28A     -0.286242    29A     -0.276552    30A     -0.175949
      31A     -0.161270    32A     -0.150227

    Virtual:

      33A      0.265898    34A      0.302155    35A      0.322438
      36A      0.339681    37A      0.360433    38A      0.381397
      39A      0.394140    40A      0.394685    41A      0.442354
      42A      0.490154    43A      0.490806    44A      0.576099
      45A      0.584147    46A      0.667443    47A      0.699069
      48A      0.720842    49A      0.741961    50A      0.764093
      51A      0.809003    52A      0.821343    53A      0.842660
      54A      0.859842    55A      0.874634    56A      0.893305
      57A      0.941450    58A      0.953050    59A      0.959027
      60A      0.970235    61A      0.988493    62A      1.016815
      63A      1.028170    64A      1.038201    65A      1.052191
      66A      1.063506    67A      1.074728    68A      1.128592
      69A      1.136086    70A      1.176527    71A      1.195500
      72A      1.233137    73A      1.237604    74A      1.271339
      75A      1.340630    76A      1.345911    77A      1.400763
      78A      1.452918    79A      1.478977    80A      1.507146
      81A      1.516146    82A      1.534117    83A      1.537519
      84A      1.575253    85A      1.584980    86A      1.600585
      87A      1.608683    88A      1.632947    89A      1.662048
      90A      1.692818    91A      1.737888    92A      1.750495
      93A      1.761208    94A      1.842653    95A      1.848025
      96A      1.862244    97A      1.943026    98A      1.973872
      99A      1.987645   100A      2.001488   101A      2.015433
     102A      2.050675   103A      2.068220   104A      2.091818
     105A      2.093245   106A      2.098682   107A      2.124448
     108A      2.160249   109A      2.192716   110A      2.221197
     111A      2.293069   112A      2.298581   113A      2.313794
     114A      2.321611   115A      2.378207   116A      2.411771
     117A      2.439391   118A      2.538631   119A      2.561550
     120A      2.578000   121A      2.591781   122A      2.637253
     123A      2.669719   124A      2.681214   125A      2.723560
     126A      2.749087   127A      2.795036   128A      2.833374
     129A      2.859688   130A      2.898792   131A      2.921270
     132A      2.953987   133A      2.982471   134A      3.002466
     135A      3.103017   136A      3.216381   137A      3.252437
     138A      3.261510   139A      3.287458   140A      3.304395
     141A      3.369895   142A      3.417929   143A      3.613491
     144A      3.646982   145A      3.675272   146A      3.788406
     147A      3.833365   148A      3.990520   149A      4.027086
     150A      4.068053   151A      4.099450   152A      4.204552

    Final Occupation by Irrep:
              A
    DOCC [    32 ]

  @RHF Final Energy:  -435.22699598327029

   => Energetics <=

    Nuclear Repulsion Energy =            348.5512373667622796
    One-Electron Energy =               -1299.3444037002552705
    Two-Electron Energy =                 515.5661703502227056
    Total Energy =                       -435.2269959832702853

Computation Completed

Properties will be evaluated at   0.000000,   0.000000,   0.000000 [a0]

Properties computed using the SCF density matrix

  Nuclear Dipole Moment: [e a0]
     X:   -10.5352      Y:    -2.8591      Z:    -0.9009

  Electronic Dipole Moment: [e a0]
     X:     6.1988      Y:     0.0465      Z:     0.8794

  Dipole Moment: [e a0]
     X:    -4.3364      Y:    -2.8126      Z:    -0.0215     Total:     5.1687

  Dipole Moment: [D]
     X:   -11.0220      Y:    -7.1489      Z:    -0.0546     Total:    13.1375

*** tstop() called on ds3 at Tue Apr 28 11:08:03 2020
Module time:
	user time   =      20.69 seconds =       0.34 minutes
	system time =      10.57 seconds =       0.18 minutes
	total time  =         31 seconds =       0.52 minutes
Total time:
	user time   =      20.69 seconds =       0.34 minutes
	system time =      10.57 seconds =       0.18 minutes
	total time  =         31 seconds =       0.52 minutes
                                     G D M A

                                 by Anthony Stone

                           version 2.2.06, 22 June 2011

               Distributed Multipoles from Gaussian wavefunctions

Starting at 11:8:3 on 28 Apr 2020

Using SCF density matrix from file ./SSI/SSI-073GLU-077ASN-2-dimer.test.29819.fchk

                         Distributed Multipole Analysis

Standard DMA

Positions and radii in angstrom
Multipole moments in atomic units, ea_0^k for rank k

C          x = -0.483654  y =  2.557557  z =  0.484528 angstrom
           Maximum rank =  0   Radius =  0.650 angstrom
                   Q00  =  -0.276063

C          x =  0.937346  y =  2.096557  z =  0.181528 angstrom
           Maximum rank =  0   Radius =  0.650 angstrom
                   Q00  =   0.978417

O          x =  1.150346  y =  0.873557  z =  0.032528 angstrom
           Maximum rank =  0   Radius =  0.650 angstrom
                   Q00  =  -0.923254

O          x =  1.845346  y =  2.954557  z =  0.095528 angstrom
           Maximum rank =  0   Radius =  0.650 angstrom
                   Q00  =  -0.935431

H          x = -0.507654  y =  3.038557  z =  1.465528 angstrom
           Maximum rank =  0   Radius =  0.325 angstrom
                   Q00  =   0.065562

H          x = -1.162654  y =  1.702557  z =  0.530528 angstrom
           Maximum rank =  0   Radius =  0.325 angstrom
                   Q00  =   0.024626

H          x = -0.859354  y =  3.271458  z = -0.263265 angstrom
           Maximum rank =  0   Radius =  0.325 angstrom
                   Q00  =   0.067773

C          x = -1.565654  y = -2.893443  z = -1.201472 angstrom
           Maximum rank =  0   Radius =  0.650 angstrom
                   Q00  =  -0.258330

C          x = -0.783654  y = -2.106443  z = -0.175472 angstrom
           Maximum rank =  0   Radius =  0.650 angstrom
                   Q00  =   0.811990

O          x =  0.424346  y = -2.278443  z = -0.028472 angstrom
           Maximum rank =  0   Radius =  0.650 angstrom
                   Q00  =  -0.758434

N          x = -1.471654  y = -1.253443  z =  0.564528 angstrom
           Maximum rank =  0   Radius =  0.650 angstrom
                   Q00  =  -0.514413

H          x = -2.450654  y = -2.329443  z = -1.502472 angstrom
           Maximum rank =  0   Radius =  0.325 angstrom
                   Q00  =   0.063821

H          x = -1.898654  y = -3.815443  z = -0.723472 angstrom
           Maximum rank =  0   Radius =  0.325 angstrom
                   Q00  =   0.106465

H          x = -0.953654  y = -0.662443  z =  1.196528 angstrom
           Maximum rank =  0   Radius =  0.325 angstrom
                   Q00  =   0.244907

H          x = -2.461654  y = -1.133443  z =  0.428528 angstrom
           Maximum rank =  0   Radius =  0.325 angstrom
                   Q00  =   0.179061

H          x = -0.965714  y = -3.133420  z = -2.091686 angstrom
           Maximum rank =  0   Radius =  0.325 angstrom
                   Q00  =   0.123302

Total multipoles referred to origin at
           x =   0.000000,  y =    0.000000,  z =    0.000000 angstrom
                   Q00  =  -1.000000

Finished at 11:8:3 on 28 Apr 2020

  DMA results are available in the Python driver through the
	  variable('DMA DISTRIBUTED MULTIPOLES')
  and
	  variable('DMA TOTAL MULTIPOLES')
  commands.

    Psi4 stopped on: Tuesday, 28 April 2020 11:08AM
    Psi4 wall time for execution: 0:00:31.08

*** Psi4 exiting successfully. Buy a developer a beer!
