                               Psi4 1.3.2 release

  ==> Input File <==

--------------------------------------------------------------------------
import numpy as np
set {scf_type pk
basis cc-pvdz
d_convergence 10
gdma_switch   0
gdma_limit    0
gdma_origin   [ 0.0,  0.0,  0.0 ]
}
molecule test {
    units Angstrom
    0 1
    --
    0 1
    C                1.193565200303003    -0.554050014545030    -1.462916842594984
    C                2.406565200303002    -1.171050014545030    -1.961916842594984
    H                1.390565200303002     0.471949985454970    -1.154916842594984
    H                0.461565200303002    -0.537050014545030    -2.269916842594984
    H                0.773565200303002    -1.160050014545030    -0.659916842594984
    H                2.187565200303002    -2.149050014545030    -2.391916842594984
    H                3.137176000303002    -1.270940014545030    -1.145686842594984
    H                2.741215800303002    -0.473730014545030    -2.744066842594984
    C               -0.964434799696998     0.874949985454970     0.749083157405016
    C               -0.339434799696998     0.645949985454970     2.125083157405016
    C               -2.346434799696998     0.251949985454970     0.603083157405016
    H               -1.061434799696998     1.952949985454970     0.608083157405016
    H               -0.339434799696998     0.516949985454970    -0.022916842594984
    H               -1.013434799696998     1.072949985454970     2.873083157405016
    H               -2.282434799696998    -0.833050014545030     0.689083157405016
    H               -2.975434799696998     0.620949985454970     1.415083157405016
    H                0.640363200303002     1.142639985454970     2.182453157405016
    H               -0.226614799696998    -0.425480014545030     2.347133157405016
    H               -2.835813799696998     0.502409985454970    -0.349686842594984

}
e, wfn = energy('scf', return_wfn=True)
gdma(wfn)
dmavals = variable('DMA DISTRIBUTED MULTIPOLES')
charges = np.array(dmavals)
print(charges)
np.save('SSI-037THR-085LYS-2-dimer.npy', np.array(charges))--------------------------------------------------------------------------

*** tstart() called on ds3
*** at Mon Apr 27 03:52:53 2020

   => Loading Basis Set <=

    Name: CC-PVDZ
    Role: ORBITAL
    Keyword: BASIS
    atoms 1-2, 9-11  entry C          line   138 file /theoryfs2/ds/metcalf/miniconda2/envs/tf2gpu/share/psi4/basis/cc-pvdz.gbs
    atoms 3-8, 12-19 entry H          line    22 file /theoryfs2/ds/metcalf/miniconda2/envs/tf2gpu/share/psi4/basis/cc-pvdz.gbs

         ---------------------------------------------------------
                                   SCF
               by Justin Turney, Rob Parrish, Andy Simmonett
                          and Daniel G. A. Smith
                              RHF Reference
                        1 Threads,    500 MiB Core
         ---------------------------------------------------------

  ==> Geometry <==

    Molecular point group: c1
    Full point group: C1

    Geometry (in Angstrom), charge = 0, multiplicity = 1:

       Center              X                  Y                   Z               Mass
    ------------   -----------------  -----------------  -----------------  -----------------
         C            1.193565200303    -0.554050014545    -1.462916842595    12.000000000000
         C            2.406565200303    -1.171050014545    -1.961916842595    12.000000000000
         H            1.390565200303     0.471949985455    -1.154916842595     1.007825032230
         H            0.461565200303    -0.537050014545    -2.269916842595     1.007825032230
         H            0.773565200303    -1.160050014545    -0.659916842595     1.007825032230
         H            2.187565200303    -2.149050014545    -2.391916842595     1.007825032230
         H            3.137176000303    -1.270940014545    -1.145686842595     1.007825032230
         H            2.741215800303    -0.473730014545    -2.744066842595     1.007825032230
         C           -0.964434799697     0.874949985455     0.749083157405    12.000000000000
         C           -0.339434799697     0.645949985455     2.125083157405    12.000000000000
         C           -2.346434799697     0.251949985455     0.603083157405    12.000000000000
         H           -1.061434799697     1.952949985455     0.608083157405     1.007825032230
         H           -0.339434799697     0.516949985455    -0.022916842595     1.007825032230
         H           -1.013434799697     1.072949985455     2.873083157405     1.007825032230
         H           -2.282434799697    -0.833050014545     0.689083157405     1.007825032230
         H           -2.975434799697     0.620949985455     1.415083157405     1.007825032230
         H            0.640363200303     1.142639985455     2.182453157405     1.007825032230
         H           -0.226614799697    -0.425480014545     2.347133157405     1.007825032230
         H           -2.835813799697     0.502409985455    -0.349686842595     1.007825032230

  Running in c1 symmetry.

  Rotational constants: A =      0.23284  B =      0.04343  C =      0.03882 [cm^-1]
  Rotational constants: A =   6980.27172  B =   1301.93622  C =   1163.94016 [MHz]
  Nuclear repulsion =  181.855391564111727

  Charge       = 0
  Multiplicity = 1
  Electrons    = 44
  Nalpha       = 22
  Nbeta        = 22

  ==> Algorithm <==

  SCF Algorithm Type is PK.
  DIIS enabled.
  MOM disabled.
  Fractional occupation disabled.
  Guess Type is SAD.
  Energy threshold   = 1.00e-06
  Density threshold  = 1.00e-10
  Integral threshold = 0.00e+00

  ==> Primary Basis <==

  Basis Set: CC-PVDZ
    Blend: CC-PVDZ
    Number of shells: 72
    Number of basis function: 140
    Number of Cartesian functions: 145
    Spherical Harmonics?: true
    Max angular momentum: 2

  ==> Pre-Iterations <==

   -------------------------------------------------------
    Irrep   Nso     Nmo     Nalpha   Nbeta   Ndocc  Nsocc
   -------------------------------------------------------
     A        140     140       0       0       0       0
   -------------------------------------------------------
    Total     140     140      22      22      22       0
   -------------------------------------------------------

  ==> Integral Setup <==

  Using integral reordering PK algorithm.
  Sizing the integral batches needed.
  Building batch lookup table.
   Calculation information:
      Number of atoms:                  19
      Number of AO shells:              72
      Number of primitives:            180
      Number of atomic orbitals:       145
      Number of basis functions:       140

      Integral cutoff                 1.00e-12
      Number of threads:                 1

	Batch   1 pq = [       0,    9405] index = [             0,44231715] size =     44231715
	Batch   2 pq = [    9405,    9870] index = [      44231715,48713385] size =      4481670
  Task number: 5
  Buffer size: 11059200
  Buffer per thread: 2
  We computed 2963844 shell quartets total.
  Whereas there are 3454506 unique shell quartets.

  ==> DiskJK: Disk-Based J/K Matrices <==

    J tasked:                  Yes
    K tasked:                  Yes
    wK tasked:                  No
    Memory [MiB]:              375
    Schwarz Cutoff:          1E-12

    OpenMP threads:              1

  Minimum eigenvalue in the overlap matrix is 3.6880478227E-03.
  Using Symmetric Orthogonalization.

  SCF Guess: Superposition of Atomic Densities via on-the-fly atomic UHF.

  ==> Iterations <==

                        Total Energy        Delta E     RMS |[F,P]|

   @RHF iter SAD:  -196.58342437919049   -1.96583e+02   0.00000e+00
   @RHF iter   1:  -197.29005003903691   -7.06626e-01   3.91656e-03 DIIS
   @RHF iter   2:  -197.45795309563354   -1.67903e-01   1.69408e-03 DIIS
   @RHF iter   3:  -197.48807326272177   -3.01202e-02   3.32424e-04 DIIS
   @RHF iter   4:  -197.49039181907952   -2.31856e-03   4.55715e-05 DIIS
   @RHF iter   5:  -197.49042919037538   -3.73713e-05   1.37616e-05 DIIS
   @RHF iter   6:  -197.49043218196439   -2.99159e-06   2.57674e-06 DIIS
   @RHF iter   7:  -197.49043229314216   -1.11178e-07   4.92241e-07 DIIS
   @RHF iter   8:  -197.49043229811335   -4.97118e-09   1.24576e-07 DIIS
   @RHF iter   9:  -197.49043229841757   -3.04226e-10   4.00411e-08 DIIS
   @RHF iter  10:  -197.49043229845304   -3.54703e-11   8.34311e-09 DIIS
   @RHF iter  11:  -197.49043229845364   -5.96856e-13   1.59602e-09 DIIS
   @RHF iter  12:  -197.49043229845398   -3.41061e-13   2.97452e-10 DIIS
   @RHF iter  13:  -197.49043229845381    1.70530e-13   5.72586e-11 DIIS
  Energy and wave function converged.

  ==> Post-Iterations <==

    Orbital Energies [Eh]
    ---------------------

    Doubly Occupied:

       1A    -11.216544     2A    -11.213921     3A    -11.213179
       4A    -11.211353     5A    -11.209218     6A     -1.053122
       7A     -1.043550     8A     -0.921422     9A     -0.830281
      10A     -0.796252    11A     -0.627817    12A     -0.616830
      13A     -0.609318    14A     -0.593775    15A     -0.545369
      16A     -0.527150    17A     -0.518209    18A     -0.481171
      19A     -0.479878    20A     -0.471949    21A     -0.464506
      22A     -0.458936

    Virtual:

      23A      0.170376    24A      0.195054    25A      0.216825
      26A      0.222910    27A      0.240166    28A      0.255386
      29A      0.258880    30A      0.262725    31A      0.275356
      32A      0.282179    33A      0.301681    34A      0.308985
      35A      0.309683    36A      0.349244    37A      0.383017
      38A      0.429548    39A      0.440627    40A      0.571458
      41A      0.579398    42A      0.614254    43A      0.617564
      44A      0.621293    45A      0.627413    46A      0.632534
      47A      0.684081    48A      0.688515    49A      0.750706
      50A      0.809293    51A      0.831227    52A      0.853810
      53A      0.874224    54A      0.881486    55A      0.889394
      56A      0.893310    57A      0.898951    58A      0.901966
      59A      0.904031    60A      0.910990    61A      0.912749
      62A      0.918141    63A      0.938446    64A      0.950455
      65A      0.970994    66A      0.977545    67A      1.005496
      68A      1.059009    69A      1.121636    70A      1.128638
      71A      1.137827    72A      1.156532    73A      1.250998
      74A      1.358497    75A      1.385573    76A      1.470792
      77A      1.476268    78A      1.504721    79A      1.526986
      80A      1.539379    81A      1.581841    82A      1.660978
      83A      1.666385    84A      1.677935    85A      1.687166
      86A      1.691920    87A      1.704329    88A      1.817555
      89A      1.824914    90A      1.861146    91A      1.875869
      92A      1.887195    93A      1.918145    94A      1.932787
      95A      1.941986    96A      1.957190    97A      1.959877
      98A      1.973299    99A      1.976543   100A      1.984497
     101A      1.996661   102A      2.004747   103A      2.015420
     104A      2.016049   105A      2.041112   106A      2.052028
     107A      2.091510   108A      2.127881   109A      2.128835
     110A      2.146448   111A      2.169373   112A      2.295023
     113A      2.312058   114A      2.318977   115A      2.324184
     116A      2.346078   117A      2.387495   118A      2.472685
     119A      2.484476   120A      2.518707   121A      2.551711
     122A      2.583904   123A      2.599004   124A      2.607735
     125A      2.633006   126A      2.653469   127A      2.750005
     128A      2.767172   129A      2.777774   130A      2.784969
     131A      2.809598   132A      2.810913   133A      2.826545
     134A      2.864598   135A      2.951246   136A      2.970460
     137A      2.974039   138A      2.977406   139A      2.987544
     140A      3.152464

    Final Occupation by Irrep:
              A
    DOCC [    22 ]

  @RHF Final Energy:  -197.49043229845381

   => Energetics <=

    Nuclear Repulsion Energy =            181.8553915641117271
    One-Electron Energy =                -624.4841517350810136
    Two-Electron Energy =                 245.1383278725154469
    Total Energy =                       -197.4904322984538112

Computation Completed

Properties will be evaluated at   0.000000,   0.000000,   0.000000 [a0]

Properties computed using the SCF density matrix

  Nuclear Dipole Moment: [e a0]
     X:     0.5601      Y:    -0.5330      Z:    -0.5851

  Electronic Dipole Moment: [e a0]
     X:    -0.5142      Y:     0.5331      Z:     0.5072

  Dipole Moment: [e a0]
     X:     0.0459      Y:     0.0001      Z:    -0.0779     Total:     0.0904

  Dipole Moment: [D]
     X:     0.1166      Y:     0.0003      Z:    -0.1979     Total:     0.2297

*** tstop() called on ds3 at Mon Apr 27 03:53:18 2020
Module time:
	user time   =      15.82 seconds =       0.26 minutes
	system time =       5.82 seconds =       0.10 minutes
	total time  =         25 seconds =       0.42 minutes
Total time:
	user time   =      15.82 seconds =       0.26 minutes
	system time =       5.82 seconds =       0.10 minutes
	total time  =         25 seconds =       0.42 minutes
                                     G D M A

                                 by Anthony Stone

                           version 2.2.06, 22 June 2011

               Distributed Multipoles from Gaussian wavefunctions

Starting at 3:53:18 on 27 Apr 2020

Using SCF density matrix from file ./SSI/SSI-037THR-085LYS-2-dimer.test.22149.fchk

                         Distributed Multipole Analysis

Standard DMA

Positions and radii in angstrom
Multipole moments in atomic units, ea_0^k for rank k

C          x =  1.193565  y = -0.554050  z = -1.462917 angstrom
           Maximum rank =  0   Radius =  0.650 angstrom
                   Q00  =  -0.219505

C          x =  2.406565  y = -1.171050  z = -1.961917 angstrom
           Maximum rank =  0   Radius =  0.650 angstrom
                   Q00  =  -0.196286

H          x =  1.390565  y =  0.471950  z = -1.154917 angstrom
           Maximum rank =  0   Radius =  0.325 angstrom
                   Q00  =   0.068028

H          x =  0.461565  y = -0.537050  z = -2.269917 angstrom
           Maximum rank =  0   Radius =  0.325 angstrom
                   Q00  =   0.070345

H          x =  0.773565  y = -1.160050  z = -0.659917 angstrom
           Maximum rank =  0   Radius =  0.325 angstrom
                   Q00  =   0.063862

H          x =  2.187565  y = -2.149050  z = -2.391917 angstrom
           Maximum rank =  0   Radius =  0.325 angstrom
                   Q00  =   0.077590

H          x =  3.137176  y = -1.270940  z = -1.145687 angstrom
           Maximum rank =  0   Radius =  0.325 angstrom
                   Q00  =   0.072563

H          x =  2.741216  y = -0.473730  z = -2.744067 angstrom
           Maximum rank =  0   Radius =  0.325 angstrom
                   Q00  =   0.072107

C          x = -0.964435  y =  0.874950  z =  0.749083 angstrom
           Maximum rank =  0   Radius =  0.650 angstrom
                   Q00  =  -0.097154

C          x = -0.339435  y =  0.645950  z =  2.125083 angstrom
           Maximum rank =  0   Radius =  0.650 angstrom
                   Q00  =  -0.240180

C          x = -2.346435  y =  0.251950  z =  0.603083 angstrom
           Maximum rank =  0   Radius =  0.650 angstrom
                   Q00  =  -0.241310

H          x = -1.061435  y =  1.952950  z =  0.608083 angstrom
           Maximum rank =  0   Radius =  0.325 angstrom
                   Q00  =   0.038109

H          x = -0.339435  y =  0.516950  z = -0.022917 angstrom
           Maximum rank =  0   Radius =  0.325 angstrom
                   Q00  =   0.067213

H          x = -1.013435  y =  1.072950  z =  2.873083 angstrom
           Maximum rank =  0   Radius =  0.325 angstrom
                   Q00  =   0.077687

H          x = -2.282435  y = -0.833050  z =  0.689083 angstrom
           Maximum rank =  0   Radius =  0.325 angstrom
                   Q00  =   0.073214

H          x = -2.975435  y =  0.620950  z =  1.415083 angstrom
           Maximum rank =  0   Radius =  0.325 angstrom
                   Q00  =   0.073041

H          x =  0.640363  y =  1.142640  z =  2.182453 angstrom
           Maximum rank =  0   Radius =  0.325 angstrom
                   Q00  =   0.083330

H          x = -0.226615  y = -0.425480  z =  2.347133 angstrom
           Maximum rank =  0   Radius =  0.325 angstrom
                   Q00  =   0.073576

H          x = -2.835814  y =  0.502410  z = -0.349687 angstrom
           Maximum rank =  0   Radius =  0.325 angstrom
                   Q00  =   0.083770

Total multipoles referred to origin at
           x =   0.000000,  y =    0.000000,  z =    0.000000 angstrom
                   Q00  =  -0.000000

Finished at 3:53:18 on 27 Apr 2020

  DMA results are available in the Python driver through the
	  variable('DMA DISTRIBUTED MULTIPOLES')
  and
	  variable('DMA TOTAL MULTIPOLES')
  commands.

    Psi4 stopped on: Monday, 27 April 2020 03:53AM
    Psi4 wall time for execution: 0:00:24.81

*** Psi4 exiting successfully. Buy a developer a beer!
