                               Psi4 1.3.2 release

  ==> Input File <==

--------------------------------------------------------------------------
import numpy as np
set {scf_type pk
basis cc-pvdz
d_convergence 10
gdma_switch   0
gdma_limit    0
gdma_origin   [ 0.0,  0.0,  0.0 ]
}
molecule test {
    units Angstrom
    0 1
    --
    0 1
    C                0.173745994174951    -1.401142543966527    -0.983207694119600
    C                0.867745994174951    -2.723142543966527    -1.296207694119600
    H                0.872745994174951    -0.734142543966527    -0.483207694119600
    H               -0.184254005825049    -0.930142543966527    -1.895207694119600
    H               -0.685254005825049    -1.577142543966527    -0.336207694119600
    H                1.767745994174951    -2.499142543966527    -1.869207694119600
    H                1.165911994174951    -3.223202543966527    -0.362912294119600
    H                0.217954994174951    -3.348192543966527    -1.926352694119600
    C               -0.792254005825049     1.391857456033473     1.400792305880400
    C               -0.254254005825049     2.728857456033473     0.875792305880400
    H               -1.427254005825049     0.919857456033473     0.649792305880400
    H                0.032745994174951     0.720857456033473     1.637792305880400
    H               -1.360254005825049     1.532857456033473     2.320792305880400
    H                0.317745994174951     3.181857456033473     1.684792305880400
    H               -1.069185005825049     3.415007456033473     0.601763305880400
    H                0.411074994174951     2.584037456033473     0.011868805880400

}
e, wfn = energy('scf', return_wfn=True)
gdma(wfn)
dmavals = variable('DMA DISTRIBUTED MULTIPOLES')
charges = np.array(dmavals)
print(charges)
np.save('SSI-036LEU-098ILE-1-dimer.npy', np.array(charges))--------------------------------------------------------------------------

*** tstart() called on ds3
*** at Mon Apr 27 07:32:37 2020

   => Loading Basis Set <=

    Name: CC-PVDZ
    Role: ORBITAL
    Keyword: BASIS
    atoms 1-2, 9-10  entry C          line   138 file /theoryfs2/ds/metcalf/miniconda2/envs/tf2gpu/share/psi4/basis/cc-pvdz.gbs
    atoms 3-8, 11-16 entry H          line    22 file /theoryfs2/ds/metcalf/miniconda2/envs/tf2gpu/share/psi4/basis/cc-pvdz.gbs

         ---------------------------------------------------------
                                   SCF
               by Justin Turney, Rob Parrish, Andy Simmonett
                          and Daniel G. A. Smith
                              RHF Reference
                        1 Threads,    500 MiB Core
         ---------------------------------------------------------

  ==> Geometry <==

    Molecular point group: c1
    Full point group: C1

    Geometry (in Angstrom), charge = 0, multiplicity = 1:

       Center              X                  Y                   Z               Mass
    ------------   -----------------  -----------------  -----------------  -----------------
         C            0.173745994175    -1.401142543967    -0.983207694120    12.000000000000
         C            0.867745994175    -2.723142543967    -1.296207694120    12.000000000000
         H            0.872745994175    -0.734142543967    -0.483207694120     1.007825032230
         H           -0.184254005825    -0.930142543967    -1.895207694120     1.007825032230
         H           -0.685254005825    -1.577142543967    -0.336207694120     1.007825032230
         H            1.767745994175    -2.499142543967    -1.869207694120     1.007825032230
         H            1.165911994175    -3.223202543967    -0.362912294120     1.007825032230
         H            0.217954994175    -3.348192543967    -1.926352694120     1.007825032230
         C           -0.792254005825     1.391857456033     1.400792305880    12.000000000000
         C           -0.254254005825     2.728857456033     0.875792305880    12.000000000000
         H           -1.427254005825     0.919857456033     0.649792305880     1.007825032230
         H            0.032745994175     0.720857456033     1.637792305880     1.007825032230
         H           -1.360254005825     1.532857456033     2.320792305880     1.007825032230
         H            0.317745994175     3.181857456033     1.684792305880     1.007825032230
         H           -1.069185005825     3.415007456033     0.601763305880     1.007825032230
         H            0.411074994175     2.584037456033     0.011868805880     1.007825032230

  Running in c1 symmetry.

  Rotational constants: A =      0.58595  B =      0.04368  C =      0.04241 [cm^-1]
  Rotational constants: A =  17566.37099  B =   1309.49549  C =   1271.29266 [MHz]
  Nuclear repulsion =  120.677030038755134

  Charge       = 0
  Multiplicity = 1
  Electrons    = 36
  Nalpha       = 18
  Nbeta        = 18

  ==> Algorithm <==

  SCF Algorithm Type is PK.
  DIIS enabled.
  MOM disabled.
  Fractional occupation disabled.
  Guess Type is SAD.
  Energy threshold   = 1.00e-06
  Density threshold  = 1.00e-10
  Integral threshold = 0.00e+00

  ==> Primary Basis <==

  Basis Set: CC-PVDZ
    Blend: CC-PVDZ
    Number of shells: 60
    Number of basis function: 116
    Number of Cartesian functions: 120
    Spherical Harmonics?: true
    Max angular momentum: 2

  ==> Pre-Iterations <==

   -------------------------------------------------------
    Irrep   Nso     Nmo     Nalpha   Nbeta   Ndocc  Nsocc
   -------------------------------------------------------
     A        116     116       0       0       0       0
   -------------------------------------------------------
    Total     116     116      18      18      18       0
   -------------------------------------------------------

  ==> Integral Setup <==

  Using integral reordering PK algorithm.
  Sizing the integral batches needed.
  Building batch lookup table.
   Calculation information:
      Number of atoms:                  16
      Number of AO shells:              60
      Number of primitives:            148
      Number of atomic orbitals:       120
      Number of basis functions:       116

      Integral cutoff                 1.00e-12
      Number of threads:                 1

	Batch   1 pq = [       0,    6786] index = [             0,23028291] size =     23028291
  Task number: 3
  Buffer size: 11059200
  Buffer per thread: 2
  We computed 1383415 shell quartets total.
  Whereas there are 1675365 unique shell quartets.

  ==> DiskJK: Disk-Based J/K Matrices <==

    J tasked:                  Yes
    K tasked:                  Yes
    wK tasked:                  No
    Memory [MiB]:              375
    Schwarz Cutoff:          1E-12

    OpenMP threads:              1

  Minimum eigenvalue in the overlap matrix is 6.9727849264E-03.
  Using Symmetric Orthogonalization.

  SCF Guess: Superposition of Atomic Densities via on-the-fly atomic UHF.

  ==> Iterations <==

                        Total Energy        Delta E     RMS |[F,P]|

   @RHF iter SAD:  -157.33747554501474   -1.57337e+02   0.00000e+00
   @RHF iter   1:  -158.30774735969558   -9.70272e-01   4.21406e-03 DIIS
   @RHF iter   2:  -158.44117457540020   -1.33427e-01   1.79895e-03 DIIS
   @RHF iter   3:  -158.46464100171681   -2.34664e-02   3.49038e-04 DIIS
   @RHF iter   4:  -158.46646789576613   -1.82689e-03   3.85069e-05 DIIS
   @RHF iter   5:  -158.46649119870679   -2.33029e-05   6.32043e-06 DIIS
   @RHF iter   6:  -158.46649180242594   -6.03719e-07   8.80785e-07 DIIS
   @RHF iter   7:  -158.46649181101213   -8.58620e-09   2.78870e-07 DIIS
   @RHF iter   8:  -158.46649181166691   -6.54779e-10   4.04200e-08 DIIS
   @RHF iter   9:  -158.46649181169187   -2.49543e-11   7.74886e-09 DIIS
   @RHF iter  10:  -158.46649181169283   -9.66338e-13   1.88574e-09 DIIS
   @RHF iter  11:  -158.46649181169244    3.97904e-13   3.21356e-10 DIIS
   @RHF iter  12:  -158.46649181169266   -2.27374e-13   5.95666e-11 DIIS
  Energy and wave function converged.

  ==> Post-Iterations <==

    Orbital Energies [Eh]
    ---------------------

    Doubly Occupied:

       1A    -11.219376     2A    -11.218921     3A    -11.216398
       4A    -11.215384     5A     -1.019599     6A     -1.015538
       7A     -0.838746     8A     -0.834309     9A     -0.602481
      10A     -0.597810    11A     -0.596059    12A     -0.593014
      13A     -0.502771    14A     -0.499244    15A     -0.490593
      16A     -0.485162    17A     -0.482789    18A     -0.479830

    Virtual:

      19A      0.172666    20A      0.194682    21A      0.225000
      22A      0.236130    23A      0.239204    24A      0.256872
      25A      0.265597    26A      0.276363    27A      0.285284
      28A      0.286028    29A      0.300847    30A      0.328153
      31A      0.394847    32A      0.403283    33A      0.566439
      34A      0.594071    35A      0.600797    36A      0.603506
      37A      0.611890    38A      0.632239    39A      0.674207
      40A      0.681125    41A      0.686184    42A      0.777611
      43A      0.842295    44A      0.863767    45A      0.888236
      46A      0.890378    47A      0.893178    48A      0.895302
      49A      0.900081    50A      0.902819    51A      0.916168
      52A      0.917572    53A      0.937423    54A      0.943932
      55A      0.970881    56A      0.989435    57A      1.121576
      58A      1.124166    59A      1.129284    60A      1.146264
      61A      1.226202    62A      1.244585    63A      1.465787
      64A      1.473589    65A      1.481671    66A      1.490521
      67A      1.561885    68A      1.586331    69A      1.675996
      70A      1.684595    71A      1.694235    72A      1.700354
      73A      1.848700    74A      1.862714    75A      1.868686
      76A      1.879848    77A      1.890161    78A      1.917497
      79A      1.936063    80A      1.940222    81A      1.941390
      82A      1.948642    83A      1.953119    84A      1.955439
      85A      1.959566    86A      1.970039    87A      1.977870
      88A      2.038480    89A      2.082987    90A      2.097219
      91A      2.123486    92A      2.127304    93A      2.295009
      94A      2.302531    95A      2.313939    96A      2.332541
      97A      2.443630    98A      2.446899    99A      2.466585
     100A      2.477467   101A      2.548547   102A      2.565006
     103A      2.574830   104A      2.579907   105A      2.758489
     106A      2.762989   107A      2.788008   108A      2.794172
     109A      2.836469   110A      2.857301   111A      2.858515
     112A      2.864449   113A      2.941081   114A      2.945643
     115A      2.955475   116A      2.976387

    Final Occupation by Irrep:
              A
    DOCC [    18 ]

  @RHF Final Energy:  -158.46649181169266

   => Energetics <=

    Nuclear Repulsion Energy =            120.6770300387551345
    One-Electron Energy =                -450.4709985261848715
    Two-Electron Energy =                 171.3274766757371026
    Total Energy =                       -158.4664918116926628

Computation Completed

Properties will be evaluated at   0.000000,   0.000000,   0.000000 [a0]

Properties computed using the SCF density matrix

  Nuclear Dipole Moment: [e a0]
     X:     0.0560      Y:     0.0399      Z:     0.0316

  Electronic Dipole Moment: [e a0]
     X:    -0.0514      Y:    -0.0370      Z:    -0.0268

  Dipole Moment: [e a0]
     X:     0.0046      Y:     0.0028      Z:     0.0048     Total:     0.0072

  Dipole Moment: [D]
     X:     0.0117      Y:     0.0071      Z:     0.0123     Total:     0.0184

*** tstop() called on ds3 at Mon Apr 27 07:32:48 2020
Module time:
	user time   =       7.06 seconds =       0.12 minutes
	system time =       2.72 seconds =       0.05 minutes
	total time  =         11 seconds =       0.18 minutes
Total time:
	user time   =       7.06 seconds =       0.12 minutes
	system time =       2.72 seconds =       0.05 minutes
	total time  =         11 seconds =       0.18 minutes
                                     G D M A

                                 by Anthony Stone

                           version 2.2.06, 22 June 2011

               Distributed Multipoles from Gaussian wavefunctions

Starting at 7:32:48 on 27 Apr 2020

Using SCF density matrix from file ./SSI/SSI-036LEU-098ILE-1-dimer.test.24027.fchk

                         Distributed Multipole Analysis

Standard DMA

Positions and radii in angstrom
Multipole moments in atomic units, ea_0^k for rank k

C          x =  0.173746  y = -1.401143  z = -0.983208 angstrom
           Maximum rank =  0   Radius =  0.650 angstrom
                   Q00  =  -0.240277

C          x =  0.867746  y = -2.723143  z = -1.296208 angstrom
           Maximum rank =  0   Radius =  0.650 angstrom
                   Q00  =  -0.230273

H          x =  0.872746  y = -0.734143  z = -0.483208 angstrom
           Maximum rank =  0   Radius =  0.325 angstrom
                   Q00  =   0.078828

H          x = -0.184254  y = -0.930143  z = -1.895208 angstrom
           Maximum rank =  0   Radius =  0.325 angstrom
                   Q00  =   0.079098

H          x = -0.685254  y = -1.577143  z = -0.336208 angstrom
           Maximum rank =  0   Radius =  0.325 angstrom
                   Q00  =   0.077370

H          x =  1.767746  y = -2.499143  z = -1.869208 angstrom
           Maximum rank =  0   Radius =  0.325 angstrom
                   Q00  =   0.075891

H          x =  1.165912  y = -3.223203  z = -0.362912 angstrom
           Maximum rank =  0   Radius =  0.325 angstrom
                   Q00  =   0.080501

H          x =  0.217955  y = -3.348193  z = -1.926353 angstrom
           Maximum rank =  0   Radius =  0.325 angstrom
                   Q00  =   0.079531

C          x = -0.792254  y =  1.391857  z =  1.400792 angstrom
           Maximum rank =  0   Radius =  0.650 angstrom
                   Q00  =  -0.240797

C          x = -0.254254  y =  2.728857  z =  0.875792 angstrom
           Maximum rank =  0   Radius =  0.650 angstrom
                   Q00  =  -0.236848

H          x = -1.427254  y =  0.919857  z =  0.649792 angstrom
           Maximum rank =  0   Radius =  0.325 angstrom
                   Q00  =   0.081026

H          x =  0.032746  y =  0.720857  z =  1.637792 angstrom
           Maximum rank =  0   Radius =  0.325 angstrom
                   Q00  =   0.079329

H          x = -1.360254  y =  1.532857  z =  2.320792 angstrom
           Maximum rank =  0   Radius =  0.325 angstrom
                   Q00  =   0.079095

H          x =  0.317746  y =  3.181857  z =  1.684792 angstrom
           Maximum rank =  0   Radius =  0.325 angstrom
                   Q00  =   0.076248

H          x = -1.069185  y =  3.415007  z =  0.601763 angstrom
           Maximum rank =  0   Radius =  0.325 angstrom
                   Q00  =   0.080618

H          x =  0.411075  y =  2.584037  z =  0.011869 angstrom
           Maximum rank =  0   Radius =  0.325 angstrom
                   Q00  =   0.080657

Total multipoles referred to origin at
           x =   0.000000,  y =    0.000000,  z =    0.000000 angstrom
                   Q00  =  -0.000000

Finished at 7:32:48 on 27 Apr 2020

  DMA results are available in the Python driver through the
	  variable('DMA DISTRIBUTED MULTIPOLES')
  and
	  variable('DMA TOTAL MULTIPOLES')
  commands.

    Psi4 stopped on: Monday, 27 April 2020 07:32AM
    Psi4 wall time for execution: 0:00:11.29

*** Psi4 exiting successfully. Buy a developer a beer!
