                               Psi4 1.3.2 release

  ==> Input File <==

--------------------------------------------------------------------------
import numpy as np
set {scf_type pk
basis cc-pvdz
d_convergence 10
gdma_switch   0
gdma_limit    0
gdma_origin   [ 0.0,  0.0,  0.0 ]
}
molecule test {
    units Angstrom
    0 1
    --
    0 1
    C               -0.612739537889530     2.121004494398352     2.955996021847682
    C               -0.238739537889530     3.482004494398352     3.542996021847683
    H                0.159260462110470     1.804004494398352     2.257996021847682
    H               -0.690739537889530     1.384004494398352     3.754996021847682
    H               -1.549739537889530     2.161004494398352     2.411996021847683
    H               -0.892739537889530     3.700004494398352     4.386996021847682
    H               -0.385289537889530     4.241304494398353     2.760704021847682
    H                0.805250462110470     3.463824494398352     3.889054021847682
    C               -1.097739537889530    -2.734995505601648    -2.129003978152318
    C                0.454260462110470    -0.498995505601648     0.540996021847682
    C                1.116260462110470     0.457004494398352    -0.254003978152318
    C               -0.282739537889530    -1.519995505601648    -0.067003978152318
    C               -0.366739537889530    -1.599995505601648    -1.469003978152318
    C                1.025260462110470     0.378004494398352    -1.657003978152317
    C                0.285260462110470    -0.646995505601648    -2.252003978152317
    H                0.520260462110470    -0.450995505601648     1.619996021847682
    H                1.688260462110470     1.250004494398352     0.209996021847682
    H               -0.776739537889530    -2.259995505601648     0.541996021847682
    H                1.514260462110470     1.120004494398352    -2.273003978152317
    H               -1.305739537889530    -2.494995505601648    -3.173003978152317
    H               -2.053739537889530    -2.830995505601648    -1.616003978152318
    H                0.168260462110470    -0.689995505601648    -3.321003978152318
    H               -0.562649537889530    -3.694115505601648    -2.067706978152318

}
e, wfn = energy('scf', return_wfn=True)
gdma(wfn)
dmavals = variable('DMA DISTRIBUTED MULTIPOLES')
charges = np.array(dmavals)
print(charges)
np.save('SSI-026LEU-037PHE-1-dimer.npy', np.array(charges))--------------------------------------------------------------------------

*** tstart() called on ds3
*** at Mon Apr 27 18:19:24 2020

   => Loading Basis Set <=

    Name: CC-PVDZ
    Role: ORBITAL
    Keyword: BASIS
    atoms 1-2, 9-15  entry C          line   138 file /theoryfs2/ds/metcalf/miniconda2/envs/tf2gpu/share/psi4/basis/cc-pvdz.gbs
    atoms 3-8, 16-23 entry H          line    22 file /theoryfs2/ds/metcalf/miniconda2/envs/tf2gpu/share/psi4/basis/cc-pvdz.gbs

         ---------------------------------------------------------
                                   SCF
               by Justin Turney, Rob Parrish, Andy Simmonett
                          and Daniel G. A. Smith
                              RHF Reference
                        1 Threads,    500 MiB Core
         ---------------------------------------------------------

  ==> Geometry <==

    Molecular point group: c1
    Full point group: C1

    Geometry (in Angstrom), charge = 0, multiplicity = 1:

       Center              X                  Y                   Z               Mass
    ------------   -----------------  -----------------  -----------------  -----------------
         C           -0.612739537890     2.121004494398     2.955996021848    12.000000000000
         C           -0.238739537890     3.482004494398     3.542996021848    12.000000000000
         H            0.159260462110     1.804004494398     2.257996021848     1.007825032230
         H           -0.690739537890     1.384004494398     3.754996021848     1.007825032230
         H           -1.549739537890     2.161004494398     2.411996021848     1.007825032230
         H           -0.892739537890     3.700004494398     4.386996021848     1.007825032230
         H           -0.385289537890     4.241304494398     2.760704021848     1.007825032230
         H            0.805250462110     3.463824494398     3.889054021848     1.007825032230
         C           -1.097739537890    -2.734995505602    -2.129003978152    12.000000000000
         C            0.454260462110    -0.498995505602     0.540996021848    12.000000000000
         C            1.116260462110     0.457004494398    -0.254003978152    12.000000000000
         C           -0.282739537890    -1.519995505602    -0.067003978152    12.000000000000
         C           -0.366739537890    -1.599995505602    -1.469003978152    12.000000000000
         C            1.025260462110     0.378004494398    -1.657003978152    12.000000000000
         C            0.285260462110    -0.646995505602    -2.252003978152    12.000000000000
         H            0.520260462110    -0.450995505602     1.619996021848     1.007825032230
         H            1.688260462110     1.250004494398     0.209996021848     1.007825032230
         H           -0.776739537890    -2.259995505602     0.541996021848     1.007825032230
         H            1.514260462110     1.120004494398    -2.273003978152     1.007825032230
         H           -1.305739537890    -2.494995505602    -3.173003978152     1.007825032230
         H           -2.053739537890    -2.830995505602    -1.616003978152     1.007825032230
         H            0.168260462110    -0.689995505602    -3.321003978152     1.007825032230
         H           -0.562649537890    -3.694115505602    -2.067706978152     1.007825032230

  Running in c1 symmetry.

  Rotational constants: A =      0.10573  B =      0.01812  C =      0.01641 [cm^-1]
  Rotational constants: A =   3169.72696  B =    543.23506  C =    491.84676 [MHz]
  Nuclear repulsion =  396.325749500653387

  Charge       = 0
  Multiplicity = 1
  Electrons    = 68
  Nalpha       = 34
  Nbeta        = 34

  ==> Algorithm <==

  SCF Algorithm Type is PK.
  DIIS enabled.
  MOM disabled.
  Fractional occupation disabled.
  Guess Type is SAD.
  Energy threshold   = 1.00e-06
  Density threshold  = 1.00e-10
  Integral threshold = 0.00e+00

  ==> Primary Basis <==

  Basis Set: CC-PVDZ
    Blend: CC-PVDZ
    Number of shells: 96
    Number of basis function: 196
    Number of Cartesian functions: 205
    Spherical Harmonics?: true
    Max angular momentum: 2

  ==> Pre-Iterations <==

   -------------------------------------------------------
    Irrep   Nso     Nmo     Nalpha   Nbeta   Ndocc  Nsocc
   -------------------------------------------------------
     A        196     196       0       0       0       0
   -------------------------------------------------------
    Total     196     196      34      34      34       0
   -------------------------------------------------------

  ==> Integral Setup <==

  Using integral reordering PK algorithm.
  Sizing the integral batches needed.
  Building batch lookup table.
   Calculation information:
      Number of atoms:                  23
      Number of AO shells:              96
      Number of primitives:            268
      Number of atomic orbitals:       205
      Number of basis functions:       196

      Integral cutoff                 1.00e-12
      Number of threads:                 1

	Batch   1 pq = [       0,    9405] index = [             0,44231715] size =     44231715
	Batch   2 pq = [    9405,   13301] index = [      44231715,88464951] size =     44233236
	Batch   3 pq = [   13301,   16290] index = [      88464951,132690195] size =     44225244
	Batch   4 pq = [   16290,   18810] index = [     132690195,176917455] size =     44227260
	Batch   5 pq = [   18810,   19306] index = [     176917455,186370471] size =      9453016
  Task number: 17
  Buffer size: 11059200
  Buffer per thread: 2
  We computed 8265734 shell quartets total.
  Whereas there are 10841496 unique shell quartets.

  ==> DiskJK: Disk-Based J/K Matrices <==

    J tasked:                  Yes
    K tasked:                  Yes
    wK tasked:                  No
    Memory [MiB]:              375
    Schwarz Cutoff:          1E-12

    OpenMP threads:              1

  Minimum eigenvalue in the overlap matrix is 3.3234849378E-04.
  Using Symmetric Orthogonalization.

  SCF Guess: Superposition of Atomic Densities via on-the-fly atomic UHF.

  ==> Iterations <==

                        Total Energy        Delta E     RMS |[F,P]|

   @RHF iter SAD:  -347.78087343895970   -3.47781e+02   0.00000e+00
   @RHF iter   1:  -348.76777893833992   -9.86905e-01   2.86990e-03 DIIS
   @RHF iter   2:  -348.95833877398024   -1.90560e-01   1.18025e-03 DIIS
   @RHF iter   3:  -348.98765339966940   -2.93146e-02   2.59456e-04 DIIS
   @RHF iter   4:  -348.99012106701235   -2.46767e-03   6.05877e-05 DIIS
   @RHF iter   5:  -348.99021166499148   -9.05980e-05   2.05183e-05 DIIS
   @RHF iter   6:  -348.99022209416182   -1.04292e-05   4.99254e-06 DIIS
   @RHF iter   7:  -348.99022285512990   -7.60968e-07   1.23575e-06 DIIS
   @RHF iter   8:  -348.99022292248236   -6.73525e-08   3.86317e-07 DIIS
   @RHF iter   9:  -348.99022293630333   -1.38210e-08   1.80753e-07 DIIS
   @RHF iter  10:  -348.99022294017925   -3.87593e-09   8.88181e-08 DIIS
   @RHF iter  11:  -348.99022294131174   -1.13249e-09   2.91355e-08 DIIS
   @RHF iter  12:  -348.99022294140156   -8.98126e-11   1.28698e-08 DIIS
   @RHF iter  13:  -348.99022294141190   -1.03455e-11   3.96435e-09 DIIS
   @RHF iter  14:  -348.99022294141184    5.68434e-14   1.17147e-09 DIIS
   @RHF iter  15:  -348.99022294141241   -5.68434e-13   3.26785e-10 DIIS
   @RHF iter  16:  -348.99022294141423   -1.81899e-12   1.01566e-10 DIIS
   @RHF iter  17:  -348.99022294141258    1.64846e-12   4.86453e-11 DIIS
  Energy and wave function converged.

  ==> Post-Iterations <==

    Orbital Energies [Eh]
    ---------------------

    Doubly Occupied:

       1A    -11.241511     2A    -11.238609     3A    -11.238380
       4A    -11.235246     5A    -11.232130     6A    -11.230191
       7A    -11.229055     8A    -11.218362     9A    -11.213327
      10A     -1.146790    11A     -1.041164    12A     -1.017675
      13A     -1.009185    14A     -0.928954    15A     -0.835739
      16A     -0.822647    17A     -0.793732    18A     -0.688566
      19A     -0.632481    20A     -0.627451    21A     -0.599210
      22A     -0.596905    23A     -0.582215    24A     -0.576917
      25A     -0.560209    26A     -0.535280    27A     -0.499196
      28A     -0.487861    29A     -0.485318    30A     -0.483345
      31A     -0.481256    32A     -0.477617    33A     -0.330947
      34A     -0.318065

    Virtual:

      35A      0.132509    36A      0.139953    37A      0.175728
      38A      0.191241    39A      0.209364    40A      0.214184
      41A      0.235297    42A      0.245989    43A      0.250105
      44A      0.253082    45A      0.265678    46A      0.274230
      47A      0.288772    48A      0.292513    49A      0.301521
      50A      0.343778    51A      0.359088    52A      0.375219
      53A      0.400428    54A      0.453145    55A      0.464332
      56A      0.477333    57A      0.499900    58A      0.573835
      59A      0.590599    60A      0.598316    61A      0.602186
      62A      0.615898    63A      0.629897    64A      0.664306
      65A      0.671864    66A      0.691571    67A      0.704753
      68A      0.714868    69A      0.721724    70A      0.737101
      71A      0.738360    72A      0.748813    73A      0.751500
      74A      0.759814    75A      0.783622    76A      0.813758
      77A      0.824626    78A      0.855389    79A      0.862686
      80A      0.868017    81A      0.875950    82A      0.888867
      83A      0.892093    84A      0.893335    85A      0.899491
      86A      0.901661    87A      0.911396    88A      0.919618
      89A      0.924292    90A      0.935307    91A      0.939246
      92A      0.955894    93A      0.985100    94A      1.004311
      95A      1.017743    96A      1.079002    97A      1.106271
      98A      1.121159    99A      1.129189   100A      1.144080
     101A      1.156821   102A      1.160587   103A      1.193754
     104A      1.219779   105A      1.234489   106A      1.243930
     107A      1.251159   108A      1.280169   109A      1.294701
     110A      1.307257   111A      1.316162   112A      1.327996
     113A      1.413798   114A      1.477385   115A      1.482635
     116A      1.516037   117A      1.521112   118A      1.562057
     119A      1.589488   120A      1.613625   121A      1.676943
     122A      1.679508   123A      1.693193   124A      1.698115
     125A      1.733144   126A      1.739191   127A      1.754700
     128A      1.788768   129A      1.808063   130A      1.851637
     131A      1.861688   132A      1.866803   133A      1.873026
     134A      1.887798   135A      1.902261   136A      1.907500
     137A      1.907724   138A      1.929091   139A      1.931063
     140A      1.937159   141A      1.944468   142A      1.947936
     143A      1.959085   144A      1.965774   145A      1.970785
     146A      1.989377   147A      1.996443   148A      2.014495
     149A      2.030711   150A      2.050760   151A      2.066572
     152A      2.106262   153A      2.116201   154A      2.130697
     155A      2.136969   156A      2.152612   157A      2.158040
     158A      2.168562   159A      2.190184   160A      2.236647
     161A      2.274700   162A      2.283104   163A      2.289450
     164A      2.300734   165A      2.324260   166A      2.324889
     167A      2.338595   168A      2.449366   169A      2.452700
     170A      2.463595   171A      2.473736   172A      2.515034
     173A      2.525364   174A      2.575530   175A      2.591254
     176A      2.619253   177A      2.727365   178A      2.747911
     179A      2.768152   180A      2.769524   181A      2.774926
     182A      2.797889   183A      2.810304   184A      2.841003
     185A      2.845340   186A      2.850865   187A      2.867849
     188A      2.943334   189A      2.962911   190A      2.987222
     191A      2.991892   192A      3.015974   193A      3.143964
     194A      3.182282   195A      3.285739   196A      3.936921

    Final Occupation by Irrep:
              A
    DOCC [    34 ]

  @RHF Final Energy:  -348.99022294141258

   => Energetics <=

    Nuclear Repulsion Energy =            396.3257495006533873
    One-Electron Energy =               -1255.3608747910634520
    Two-Electron Energy =                 510.0449023489974820
    Total Energy =                       -348.9902229414125827

Computation Completed

Properties will be evaluated at   0.000000,   0.000000,   0.000000 [a0]

Properties computed using the SCF density matrix

  Nuclear Dipole Moment: [e a0]
     X:    -3.1516      Y:     6.2839      Z:     8.7963

  Electronic Dipole Moment: [e a0]
     X:     3.0642      Y:    -6.4038      Z:    -8.8659

  Dipole Moment: [e a0]
     X:    -0.0874      Y:    -0.1199      Z:    -0.0697     Total:     0.1639

  Dipole Moment: [D]
     X:    -0.2222      Y:    -0.3048      Z:    -0.1771     Total:     0.4167

*** tstop() called on ds3 at Mon Apr 27 18:22:03 2020
Module time:
	user time   =      58.90 seconds =       0.98 minutes
	system time =      26.81 seconds =       0.45 minutes
	total time  =        159 seconds =       2.65 minutes
Total time:
	user time   =      58.90 seconds =       0.98 minutes
	system time =      26.81 seconds =       0.45 minutes
	total time  =        159 seconds =       2.65 minutes
                                     G D M A

                                 by Anthony Stone

                           version 2.2.06, 22 June 2011

               Distributed Multipoles from Gaussian wavefunctions

Starting at 18:22:3 on 27 Apr 2020

Using SCF density matrix from file ./SSI/SSI-026LEU-037PHE-1-dimer.test.19107.fchk

                         Distributed Multipole Analysis

Standard DMA

Positions and radii in angstrom
Multipole moments in atomic units, ea_0^k for rank k

C          x = -0.612740  y =  2.121004  z =  2.955996 angstrom
           Maximum rank =  0   Radius =  0.650 angstrom
                   Q00  =  -0.247163

C          x = -0.238740  y =  3.482004  z =  3.542996 angstrom
           Maximum rank =  0   Radius =  0.650 angstrom
                   Q00  =  -0.224240

H          x =  0.159260  y =  1.804004  z =  2.257996 angstrom
           Maximum rank =  0   Radius =  0.325 angstrom
                   Q00  =   0.076545

H          x = -0.690740  y =  1.384004  z =  3.754996 angstrom
           Maximum rank =  0   Radius =  0.325 angstrom
                   Q00  =   0.073336

H          x = -1.549740  y =  2.161004  z =  2.411996 angstrom
           Maximum rank =  0   Radius =  0.325 angstrom
                   Q00  =   0.084980

H          x = -0.892740  y =  3.700004  z =  4.386996 angstrom
           Maximum rank =  0   Radius =  0.325 angstrom
                   Q00  =   0.079136

H          x = -0.385290  y =  4.241304  z =  2.760704 angstrom
           Maximum rank =  0   Radius =  0.325 angstrom
                   Q00  =   0.078326

H          x =  0.805250  y =  3.463824  z =  3.889054 angstrom
           Maximum rank =  0   Radius =  0.325 angstrom
                   Q00  =   0.077889

C          x = -1.097740  y = -2.734996  z = -2.129004 angstrom
           Maximum rank =  0   Radius =  0.650 angstrom
                   Q00  =  -0.198007

C          x =  0.454260  y = -0.498996  z =  0.540996 angstrom
           Maximum rank =  0   Radius =  0.650 angstrom
                   Q00  =  -0.069270

C          x =  1.116260  y =  0.457004  z = -0.254004 angstrom
           Maximum rank =  0   Radius =  0.650 angstrom
                   Q00  =  -0.099453

C          x = -0.282740  y = -1.519996  z = -0.067004 angstrom
           Maximum rank =  0   Radius =  0.650 angstrom
                   Q00  =  -0.061849

C          x = -0.366740  y = -1.599996  z = -1.469004 angstrom
           Maximum rank =  0   Radius =  0.650 angstrom
                   Q00  =  -0.100440

C          x =  1.025260  y =  0.378004  z = -1.657004 angstrom
           Maximum rank =  0   Radius =  0.650 angstrom
                   Q00  =  -0.084375

C          x =  0.285260  y = -0.646996  z = -2.252004 angstrom
           Maximum rank =  0   Radius =  0.650 angstrom
                   Q00  =  -0.004561

H          x =  0.520260  y = -0.450996  z =  1.619996 angstrom
           Maximum rank =  0   Radius =  0.325 angstrom
                   Q00  =   0.070900

H          x =  1.688260  y =  1.250004  z =  0.209996 angstrom
           Maximum rank =  0   Radius =  0.325 angstrom
                   Q00  =   0.064389

H          x = -0.776740  y = -2.259996  z =  0.541996 angstrom
           Maximum rank =  0   Radius =  0.325 angstrom
                   Q00  =   0.058016

H          x =  1.514260  y =  1.120004  z = -2.273004 angstrom
           Maximum rank =  0   Radius =  0.325 angstrom
                   Q00  =   0.067800

H          x = -1.305740  y = -2.494996  z = -3.173004 angstrom
           Maximum rank =  0   Radius =  0.325 angstrom
                   Q00  =   0.097331

H          x = -2.053740  y = -2.830996  z = -1.616004 angstrom
           Maximum rank =  0   Radius =  0.325 angstrom
                   Q00  =   0.096243

H          x =  0.168260  y = -0.689996  z = -3.321004 angstrom
           Maximum rank =  0   Radius =  0.325 angstrom
                   Q00  =   0.059022

H          x = -0.562650  y = -3.694116  z = -2.067707 angstrom
           Maximum rank =  0   Radius =  0.325 angstrom
                   Q00  =   0.105446

Total multipoles referred to origin at
           x =   0.000000,  y =    0.000000,  z =    0.000000 angstrom
                   Q00  =  -0.000000

Finished at 18:22:3 on 27 Apr 2020

  DMA results are available in the Python driver through the
	  variable('DMA DISTRIBUTED MULTIPOLES')
  and
	  variable('DMA TOTAL MULTIPOLES')
  commands.

    Psi4 stopped on: Monday, 27 April 2020 06:22PM
    Psi4 wall time for execution: 0:02:39.05

*** Psi4 exiting successfully. Buy a developer a beer!
