                               Psi4 1.3.2 release

  ==> Input File <==

--------------------------------------------------------------------------
import numpy as np
set {scf_type pk
basis cc-pvdz
d_convergence 10
gdma_switch   0
gdma_limit    0
gdma_origin   [ 0.0,  0.0,  0.0 ]
}
molecule test {
    units Angstrom
    0 1
    --
    0 1
    C               -1.067227014427705     1.595584169943592     2.259504561743332
    C               -0.347227014427705     1.035584169943592     1.061504561743332
    O               -1.020227014427705     0.521584169943592     0.156504561743332
    O                0.885772985572295     1.063584169943592     1.017504561743332
    H               -1.485227014427705     0.771584169943592     2.842504561743332
    H               -1.900227014427705     2.206584169943592     1.909504561743332
    H               -0.430197014427705     2.208804169943592     2.913844561743332
    C                0.125772985572295    -1.620415830056408    -1.803495438256668
    C                0.654772985572295    -2.350415830056408    -0.591495438256668
    N                0.670772985572295    -0.241415830056408    -1.895495438256668
    H                0.390772985572295    -2.190415830056408    -2.701495438256668
    H               -0.967227014427705    -1.575415830056408    -1.737495438256668
    H                0.465772985572295    -1.749415830056408     0.299504561743332
    H                1.734772985572295    -2.481415830056408    -0.691495438256668
    H                1.682772985572295    -0.229415830056408    -1.881495438256668
    H                0.352772985572295     0.229584169943592    -2.733495438256668
    H                0.329772985572295     0.293584169943592    -1.091495438256668
    H                0.188002985572295    -3.336375830056408    -0.450025438256668

}
e, wfn = energy('scf', return_wfn=True)
gdma(wfn)
dmavals = variable('DMA DISTRIBUTED MULTIPOLES')
charges = np.array(dmavals)
print(charges)
np.save('SSI-014GLU-036LYS-1-dimer.npy', np.array(charges))--------------------------------------------------------------------------

*** tstart() called on ds3
*** at Tue Apr 28 10:00:14 2020

   => Loading Basis Set <=

    Name: CC-PVDZ
    Role: ORBITAL
    Keyword: BASIS
    atoms 1-2, 8-9   entry C          line   138 file /theoryfs2/ds/metcalf/miniconda2/envs/tf2gpu/share/psi4/basis/cc-pvdz.gbs
    atoms 3-4        entry O          line   198 file /theoryfs2/ds/metcalf/miniconda2/envs/tf2gpu/share/psi4/basis/cc-pvdz.gbs
    atoms 5-7, 11-18 entry H          line    22 file /theoryfs2/ds/metcalf/miniconda2/envs/tf2gpu/share/psi4/basis/cc-pvdz.gbs
    atoms 10         entry N          line   168 file /theoryfs2/ds/metcalf/miniconda2/envs/tf2gpu/share/psi4/basis/cc-pvdz.gbs

         ---------------------------------------------------------
                                   SCF
               by Justin Turney, Rob Parrish, Andy Simmonett
                          and Daniel G. A. Smith
                              RHF Reference
                        1 Threads,    500 MiB Core
         ---------------------------------------------------------

  ==> Geometry <==

    Molecular point group: c1
    Full point group: C1

    Geometry (in Angstrom), charge = 0, multiplicity = 1:

       Center              X                  Y                   Z               Mass
    ------------   -----------------  -----------------  -----------------  -----------------
         C           -1.067227014428     1.595584169944     2.259504561743    12.000000000000
         C           -0.347227014428     1.035584169944     1.061504561743    12.000000000000
         O           -1.020227014428     0.521584169944     0.156504561743    15.994914619570
         O            0.885772985572     1.063584169944     1.017504561743    15.994914619570
         H           -1.485227014428     0.771584169944     2.842504561743     1.007825032230
         H           -1.900227014428     2.206584169944     1.909504561743     1.007825032230
         H           -0.430197014428     2.208804169944     2.913844561743     1.007825032230
         C            0.125772985572    -1.620415830056    -1.803495438257    12.000000000000
         C            0.654772985572    -2.350415830056    -0.591495438257    12.000000000000
         N            0.670772985572    -0.241415830056    -1.895495438257    14.003074004430
         H            0.390772985572    -2.190415830056    -2.701495438257     1.007825032230
         H           -0.967227014428    -1.575415830056    -1.737495438257     1.007825032230
         H            0.465772985572    -1.749415830056     0.299504561743     1.007825032230
         H            1.734772985572    -2.481415830056    -0.691495438257     1.007825032230
         H            1.682772985572    -0.229415830056    -1.881495438257     1.007825032230
         H            0.352772985572     0.229584169944    -2.733495438257     1.007825032230
         H            0.329772985572     0.293584169944    -1.091495438257     1.007825032230
         H            0.188002985572    -3.336375830056    -0.450025438257     1.007825032230

  Running in c1 symmetry.

  Rotational constants: A =      0.15641  B =      0.03808  C =      0.03724 [cm^-1]
  Rotational constants: A =   4689.16326  B =   1141.68775  C =   1116.49550 [MHz]
  Nuclear repulsion =  321.238685686954000

  Charge       = 0
  Multiplicity = 1
  Electrons    = 58
  Nalpha       = 29
  Nbeta        = 29

  ==> Algorithm <==

  SCF Algorithm Type is PK.
  DIIS enabled.
  MOM disabled.
  Fractional occupation disabled.
  Guess Type is SAD.
  Energy threshold   = 1.00e-06
  Density threshold  = 1.00e-10
  Integral threshold = 0.00e+00

  ==> Primary Basis <==

  Basis Set: CC-PVDZ
    Blend: CC-PVDZ
    Number of shells: 75
    Number of basis function: 153
    Number of Cartesian functions: 160
    Spherical Harmonics?: true
    Max angular momentum: 2

  ==> Pre-Iterations <==

   -------------------------------------------------------
    Irrep   Nso     Nmo     Nalpha   Nbeta   Ndocc  Nsocc
   -------------------------------------------------------
     A        153     153       0       0       0       0
   -------------------------------------------------------
    Total     153     153      29      29      29       0
   -------------------------------------------------------

  ==> Integral Setup <==

  Using integral reordering PK algorithm.
  Sizing the integral batches needed.
  Building batch lookup table.
   Calculation information:
      Number of atoms:                  18
      Number of AO shells:              75
      Number of primitives:            209
      Number of atomic orbitals:       160
      Number of basis functions:       153

      Integral cutoff                 1.00e-12
      Number of threads:                 1

	Batch   1 pq = [       0,    9405] index = [             0,44231715] size =     44231715
	Batch   2 pq = [    9405,   11781] index = [      44231715,69401871] size =     25170156
  Task number: 7
  Buffer size: 11059200
  Buffer per thread: 2
  We computed 3751243 shell quartets total.
  Whereas there are 4062675 unique shell quartets.

  ==> DiskJK: Disk-Based J/K Matrices <==

    J tasked:                  Yes
    K tasked:                  Yes
    wK tasked:                  No
    Memory [MiB]:              375
    Schwarz Cutoff:          1E-12

    OpenMP threads:              1

  Minimum eigenvalue in the overlap matrix is 4.4165072178E-03.
  Using Symmetric Orthogonalization.

  SCF Guess: Superposition of Atomic Densities via on-the-fly atomic UHF.

  ==> Iterations <==

                        Total Energy        Delta E     RMS |[F,P]|

   @RHF iter SAD:  -360.89461687341475   -3.60895e+02   0.00000e+00
   @RHF iter   1:  -361.81052634428744   -9.15909e-01   4.62034e-03 DIIS
   @RHF iter   2:  -362.01100882989113   -2.00482e-01   2.42852e-03 DIIS
   @RHF iter   3:  -362.06156140953675   -5.05526e-02   4.22708e-04 DIIS
   @RHF iter   4:  -362.06440622216388   -2.84481e-03   1.41386e-04 DIIS
   @RHF iter   5:  -362.06471329733557   -3.07075e-04   2.57159e-05 DIIS
   @RHF iter   6:  -362.06472649952661   -1.32022e-05   1.12180e-05 DIIS
   @RHF iter   7:  -362.06472794301567   -1.44349e-06   2.66360e-06 DIIS
   @RHF iter   8:  -362.06472814667541   -2.03660e-07   1.10076e-06 DIIS
   @RHF iter   9:  -362.06472818316092   -3.64855e-08   3.84378e-07 DIIS
   @RHF iter  10:  -362.06472818879519   -5.63426e-09   1.36466e-07 DIIS
   @RHF iter  11:  -362.06472818947088   -6.75698e-10   3.26052e-08 DIIS
   @RHF iter  12:  -362.06472818950635   -3.54703e-11   7.42962e-09 DIIS
   @RHF iter  13:  -362.06472818950715   -7.95808e-13   1.65685e-09 DIIS
   @RHF iter  14:  -362.06472818950857   -1.42109e-12   5.84960e-10 DIIS
   @RHF iter  15:  -362.06472818951062   -2.04636e-12   1.61473e-10 DIIS
   @RHF iter  16:  -362.06472818950749    3.12639e-12   6.53032e-11 DIIS
  Energy and wave function converged.

  ==> Post-Iterations <==

    Orbital Energies [Eh]
    ---------------------

    Doubly Occupied:

       1A    -20.432970     2A    -20.422902     3A    -15.708370
       4A    -11.321292     5A    -11.271579     6A    -11.251166
       7A    -11.175327     8A     -1.341470     9A     -1.328707
      10A     -1.210256    11A     -1.060894    12A     -0.931308
      13A     -0.893090    14A     -0.794479    15A     -0.785896
      16A     -0.690169    17A     -0.652459    18A     -0.636265
      19A     -0.573637    20A     -0.570652    21A     -0.557856
      22A     -0.551585    23A     -0.543705    24A     -0.527200
      25A     -0.487277    26A     -0.461450    27A     -0.355179
      28A     -0.337600    29A     -0.334860

    Virtual:

      30A      0.119166    31A      0.172254    32A      0.179032
      33A      0.212188    34A      0.234967    35A      0.239320
      36A      0.252871    37A      0.270272    38A      0.297900
      39A      0.307493    40A      0.322722    41A      0.347069
      42A      0.352987    43A      0.382776    44A      0.449204
      45A      0.522422    46A      0.555547    47A      0.569043
      48A      0.582835    49A      0.590359    50A      0.623977
      51A      0.636415    52A      0.698661    53A      0.746630
      54A      0.763612    55A      0.768699    56A      0.803073
      57A      0.819549    58A      0.835849    59A      0.845542
      60A      0.852588    61A      0.859446    62A      0.865688
      63A      0.893088    64A      0.906937    65A      0.914967
      66A      0.929089    67A      0.945458    68A      0.957899
      69A      0.994746    70A      1.003085    71A      1.029842
      72A      1.043406    73A      1.086515    74A      1.111747
      75A      1.121179    76A      1.187776    77A      1.227474
      78A      1.249767    79A      1.297328    80A      1.351459
      81A      1.359212    82A      1.414229    83A      1.431852
      84A      1.453621    85A      1.467660    86A      1.491389
      87A      1.523297    88A      1.577838    89A      1.584571
      90A      1.603096    91A      1.637486    92A      1.666725
      93A      1.715522    94A      1.726656    95A      1.736841
      96A      1.797823    97A      1.822641    98A      1.866907
      99A      1.877391   100A      1.897796   101A      1.914774
     102A      1.921759   103A      1.938815   104A      1.946892
     105A      1.955944   106A      1.985476   107A      1.988703
     108A      2.013469   109A      2.059564   110A      2.069822
     111A      2.086651   112A      2.113685   113A      2.134739
     114A      2.178934   115A      2.190268   116A      2.203669
     117A      2.237656   118A      2.269389   119A      2.303895
     120A      2.322297   121A      2.340269   122A      2.386282
     123A      2.431605   124A      2.469315   125A      2.521361
     126A      2.542392   127A      2.552680   128A      2.590349
     129A      2.621762   130A      2.661428   131A      2.701642
     132A      2.735125   133A      2.755260   134A      2.790027
     135A      2.810834   136A      2.829883   137A      2.844794
     138A      2.868042   139A      2.918627   140A      2.988943
     141A      3.020007   142A      3.075705   143A      3.125260
     144A      3.139871   145A      3.214615   146A      3.313016
     147A      3.379322   148A      3.496454   149A      3.640590
     150A      3.681069   151A      3.931139   152A      3.958562
     153A      4.091158

    Final Occupation by Irrep:
              A
    DOCC [    29 ]

  @RHF Final Energy:  -362.06472818950749

   => Energetics <=

    Nuclear Repulsion Energy =            321.2386856869539997
    One-Electron Energy =               -1132.1876314837895734
    Two-Electron Energy =                 448.8842176073280825
    Total Energy =                       -362.0647281895074912

Computation Completed

Properties will be evaluated at   0.000000,   0.000000,   0.000000 [a0]

Properties computed using the SCF density matrix

  Nuclear Dipole Moment: [e a0]
     X:     0.3365      Y:    -5.4780      Z:    -3.1028

  Electronic Dipole Moment: [e a0]
     X:     0.3687      Y:     3.8441      Z:     0.0039

  Dipole Moment: [e a0]
     X:     0.7053      Y:    -1.6340      Z:    -3.0988     Total:     3.5735

  Dipole Moment: [D]
     X:     1.7927      Y:    -4.1531      Z:    -7.8765     Total:     9.0830

*** tstop() called on ds3 at Tue Apr 28 10:01:00 2020
Module time:
	user time   =      26.10 seconds =       0.43 minutes
	system time =      10.06 seconds =       0.17 minutes
	total time  =         46 seconds =       0.77 minutes
Total time:
	user time   =      26.10 seconds =       0.43 minutes
	system time =      10.06 seconds =       0.17 minutes
	total time  =         46 seconds =       0.77 minutes
                                     G D M A

                                 by Anthony Stone

                           version 2.2.06, 22 June 2011

               Distributed Multipoles from Gaussian wavefunctions

Starting at 10:1:0 on 28 Apr 2020

Using SCF density matrix from file ./SSI/SSI-014GLU-036LYS-1-dimer.test.1865.fchk

                         Distributed Multipole Analysis

Standard DMA

Positions and radii in angstrom
Multipole moments in atomic units, ea_0^k for rank k

C          x = -1.067227  y =  1.595584  z =  2.259505 angstrom
           Maximum rank =  0   Radius =  0.650 angstrom
                   Q00  =  -0.240727

C          x = -0.347227  y =  1.035584  z =  1.061505 angstrom
           Maximum rank =  0   Radius =  0.650 angstrom
                   Q00  =   0.843430

O          x = -1.020227  y =  0.521584  z =  0.156505 angstrom
           Maximum rank =  0   Radius =  0.650 angstrom
                   Q00  =  -0.903958

O          x =  0.885773  y =  1.063584  z =  1.017505 angstrom
           Maximum rank =  0   Radius =  0.650 angstrom
                   Q00  =  -0.884880

H          x = -1.485227  y =  0.771584  z =  2.842505 angstrom
           Maximum rank =  0   Radius =  0.325 angstrom
                   Q00  =   0.100490

H          x = -1.900227  y =  2.206584  z =  1.909505 angstrom
           Maximum rank =  0   Radius =  0.325 angstrom
                   Q00  =   0.086260

H          x = -0.430197  y =  2.208804  z =  2.913845 angstrom
           Maximum rank =  0   Radius =  0.325 angstrom
                   Q00  =   0.083003

C          x =  0.125773  y = -1.620416  z = -1.803495 angstrom
           Maximum rank =  0   Radius =  0.650 angstrom
                   Q00  =  -0.005354

C          x =  0.654773  y = -2.350416  z = -0.591495 angstrom
           Maximum rank =  0   Radius =  0.650 angstrom
                   Q00  =  -0.228946

N          x =  0.670773  y = -0.241416  z = -1.895495 angstrom
           Maximum rank =  0   Radius =  0.650 angstrom
                   Q00  =  -0.101299

H          x =  0.390773  y = -2.190416  z = -2.701495 angstrom
           Maximum rank =  0   Radius =  0.325 angstrom
                   Q00  =   0.071440

H          x = -0.967227  y = -1.575416  z = -1.737495 angstrom
           Maximum rank =  0   Radius =  0.325 angstrom
                   Q00  =   0.138881

H          x =  0.465773  y = -1.749416  z =  0.299505 angstrom
           Maximum rank =  0   Radius =  0.325 angstrom
                   Q00  =   0.144274

H          x =  1.734773  y = -2.481416  z = -0.691495 angstrom
           Maximum rank =  0   Radius =  0.325 angstrom
                   Q00  =   0.074037

H          x =  1.682773  y = -0.229416  z = -1.881495 angstrom
           Maximum rank =  0   Radius =  0.325 angstrom
                   Q00  =   0.224141

H          x =  0.352773  y =  0.229584  z = -2.733495 angstrom
           Maximum rank =  0   Radius =  0.325 angstrom
                   Q00  =   0.215302

H          x =  0.329773  y =  0.293584  z = -1.091495 angstrom
           Maximum rank =  0   Radius =  0.325 angstrom
                   Q00  =   0.271799

H          x =  0.188003  y = -3.336376  z = -0.450025 angstrom
           Maximum rank =  0   Radius =  0.325 angstrom
                   Q00  =   0.112107

Total multipoles referred to origin at
           x =   0.000000,  y =    0.000000,  z =    0.000000 angstrom
                   Q00  =  -0.000000

Finished at 10:1:0 on 28 Apr 2020

  DMA results are available in the Python driver through the
	  variable('DMA DISTRIBUTED MULTIPOLES')
  and
	  variable('DMA TOTAL MULTIPOLES')
  commands.

    Psi4 stopped on: Tuesday, 28 April 2020 10:01AM
    Psi4 wall time for execution: 0:00:46.29

*** Psi4 exiting successfully. Buy a developer a beer!
