                               Psi4 1.3.2 release

  ==> Input File <==

--------------------------------------------------------------------------
import numpy as np
set {scf_type pk
basis cc-pvdz
d_convergence 10
gdma_switch   0
gdma_limit    0
gdma_origin   [ 0.0,  0.0,  0.0 ]
}
molecule test {
    units Angstrom
    0 1
    --
    0 1
    C                0.719397094611140     1.543000080947633     2.365900808560023
    C                0.772397094611140    -0.260999919052367     0.651900808560023
    C                1.251397094611140     0.962000080947633     1.093900808560024
    C                1.223397094611140    -0.801999919052367    -0.582099191439977
    C                2.147397094611140     1.678000080947633     0.297900808560023
    C                2.115397094611140    -0.080999919052367    -1.345099191439977
    C                2.598397094611140     1.149000080947633    -0.906099191439977
    H                0.063397094611140    -0.815999919052367     1.250900808560024
    H                0.858397094611140    -1.760999919052367    -0.926099191439977
    H                1.330397094611140     2.394000080947634     2.669900808560024
    H                0.776397094611140     0.789000080947633     3.152900808560024
    H                2.510397094611140     2.643000080947633     0.622900808560024
    H                2.457397094611140    -0.481999919052367    -2.290099191439976
    H                3.300397094611140     1.706000080947633    -1.510099191439977
    H               -0.325442905388860     1.864160080947633     2.242770808560024
    C               -2.698602905388860    -1.011999919052367    -0.823099191439977
    C               -2.711602905388860    -2.302999919052366    -0.042099191439977
    C               -4.147602905388861    -0.528999919052367    -0.809099191439977
    H               -2.321602905388860    -1.160999919052367    -1.836099191439976
    H               -2.071602905388860    -0.288999919052367    -0.303099191439977
    H               -3.096602905388860    -3.112999919052367    -0.664099191439977
    H               -1.726602905388860    -2.549999919052366     0.353900808560023
    H               -4.184602905388860     0.557000080947633    -0.774099191439977
    H               -3.428932905388860    -2.072759919052367     0.759410808560023
    H               -4.559192905388859    -0.951849919052367     0.119230808560023
    H               -4.703522905388859    -0.852509919052367    -1.701449191439977

}
e, wfn = energy('scf', return_wfn=True)
gdma(wfn)
dmavals = variable('DMA DISTRIBUTED MULTIPOLES')
charges = np.array(dmavals)
print(charges)
np.save('SSI-064PHE-097PRO-1-dimer.npy', np.array(charges))--------------------------------------------------------------------------

*** tstart() called on ds3
*** at Mon Apr 27 13:00:05 2020

   => Loading Basis Set <=

    Name: CC-PVDZ
    Role: ORBITAL
    Keyword: BASIS
    atoms 1-7, 16-18  entry C          line   138 file /theoryfs2/ds/metcalf/miniconda2/envs/tf2gpu/share/psi4/basis/cc-pvdz.gbs
    atoms 8-15, 19-26 entry H          line    22 file /theoryfs2/ds/metcalf/miniconda2/envs/tf2gpu/share/psi4/basis/cc-pvdz.gbs

         ---------------------------------------------------------
                                   SCF
               by Justin Turney, Rob Parrish, Andy Simmonett
                          and Daniel G. A. Smith
                              RHF Reference
                        1 Threads,    500 MiB Core
         ---------------------------------------------------------

  ==> Geometry <==

    Molecular point group: c1
    Full point group: C1

    Geometry (in Angstrom), charge = 0, multiplicity = 1:

       Center              X                  Y                   Z               Mass
    ------------   -----------------  -----------------  -----------------  -----------------
         C            0.719397094611     1.543000080948     2.365900808560    12.000000000000
         C            0.772397094611    -0.260999919052     0.651900808560    12.000000000000
         C            1.251397094611     0.962000080948     1.093900808560    12.000000000000
         C            1.223397094611    -0.801999919052    -0.582099191440    12.000000000000
         C            2.147397094611     1.678000080948     0.297900808560    12.000000000000
         C            2.115397094611    -0.080999919052    -1.345099191440    12.000000000000
         C            2.598397094611     1.149000080948    -0.906099191440    12.000000000000
         H            0.063397094611    -0.815999919052     1.250900808560     1.007825032230
         H            0.858397094611    -1.760999919052    -0.926099191440     1.007825032230
         H            1.330397094611     2.394000080948     2.669900808560     1.007825032230
         H            0.776397094611     0.789000080948     3.152900808560     1.007825032230
         H            2.510397094611     2.643000080948     0.622900808560     1.007825032230
         H            2.457397094611    -0.481999919052    -2.290099191440     1.007825032230
         H            3.300397094611     1.706000080948    -1.510099191440     1.007825032230
         H           -0.325442905389     1.864160080948     2.242770808560     1.007825032230
         C           -2.698602905389    -1.011999919052    -0.823099191440    12.000000000000
         C           -2.711602905389    -2.302999919052    -0.042099191440    12.000000000000
         C           -4.147602905389    -0.528999919052    -0.809099191440    12.000000000000
         H           -2.321602905389    -1.160999919052    -1.836099191440     1.007825032230
         H           -2.071602905389    -0.288999919052    -0.303099191440     1.007825032230
         H           -3.096602905389    -3.112999919052    -0.664099191440     1.007825032230
         H           -1.726602905389    -2.549999919052     0.353900808560     1.007825032230
         H           -4.184602905389     0.557000080948    -0.774099191440     1.007825032230
         H           -3.428932905389    -2.072759919052     0.759410808560     1.007825032230
         H           -4.559192905389    -0.951849919052     0.119230808560     1.007825032230
         H           -4.703522905389    -0.852509919052    -1.701449191440     1.007825032230

  Running in c1 symmetry.

  Rotational constants: A =      0.06010  B =      0.01785  C =      0.01570 [cm^-1]
  Rotational constants: A =   1801.73071  B =    534.99292  C =    470.68089 [MHz]
  Nuclear repulsion =  482.858510838206769

  Charge       = 0
  Multiplicity = 1
  Electrons    = 76
  Nalpha       = 38
  Nbeta        = 38

  ==> Algorithm <==

  SCF Algorithm Type is PK.
  DIIS enabled.
  MOM disabled.
  Fractional occupation disabled.
  Guess Type is SAD.
  Energy threshold   = 1.00e-06
  Density threshold  = 1.00e-10
  Integral threshold = 0.00e+00

  ==> Primary Basis <==

  Basis Set: CC-PVDZ
    Blend: CC-PVDZ
    Number of shells: 108
    Number of basis function: 220
    Number of Cartesian functions: 230
    Spherical Harmonics?: true
    Max angular momentum: 2

  ==> Pre-Iterations <==

   -------------------------------------------------------
    Irrep   Nso     Nmo     Nalpha   Nbeta   Ndocc  Nsocc
   -------------------------------------------------------
     A        220     220       0       0       0       0
   -------------------------------------------------------
    Total     220     220      38      38      38       0
   -------------------------------------------------------

  ==> Integral Setup <==

  Using integral reordering PK algorithm.
  Sizing the integral batches needed.
  Building batch lookup table.
   Calculation information:
      Number of atoms:                  26
      Number of AO shells:             108
      Number of primitives:            300
      Number of atomic orbitals:       230
      Number of basis functions:       220

      Integral cutoff                 1.00e-12
      Number of threads:                 1

	Batch   1 pq = [       0,    9405] index = [             0,44231715] size =     44231715
	Batch   2 pq = [    9405,   13301] index = [      44231715,88464951] size =     44233236
	Batch   3 pq = [   13301,   16290] index = [      88464951,132690195] size =     44225244
	Batch   4 pq = [   16290,   18810] index = [     132690195,176917455] size =     44227260
	Batch   5 pq = [   18810,   21030] index = [     176917455,221140965] size =     44223510
	Batch   6 pq = [   21030,   23037] index = [     221140965,265363203] size =     44222238
	Batch   7 pq = [   23037,   24310] index = [     265363203,295500205] size =     30137002
  Task number: 27
  Buffer size: 11059200
  Buffer per thread: 2
  We computed 14557456 shell quartets total.
  Whereas there are 17325441 unique shell quartets.

  ==> DiskJK: Disk-Based J/K Matrices <==

    J tasked:                  Yes
    K tasked:                  Yes
    wK tasked:                  No
    Memory [MiB]:              375
    Schwarz Cutoff:          1E-12

    OpenMP threads:              1

  Minimum eigenvalue in the overlap matrix is 3.1913289436E-04.
  Using Symmetric Orthogonalization.

  SCF Guess: Superposition of Atomic Densities via on-the-fly atomic UHF.

  ==> Iterations <==

                        Total Energy        Delta E     RMS |[F,P]|

   @RHF iter SAD:  -387.00580431255185   -3.87006e+02   0.00000e+00
   @RHF iter   1:  -387.75172219820729   -7.45918e-01   2.78216e-03 DIIS
   @RHF iter   2:  -387.97308270421388   -2.21361e-01   1.18118e-03 DIIS
   @RHF iter   3:  -388.00959036407556   -3.65077e-02   2.52259e-04 DIIS
   @RHF iter   4:  -388.01248049619119   -2.89013e-03   5.19803e-05 DIIS
   @RHF iter   5:  -388.01256903386610   -8.85377e-05   1.61954e-05 DIIS
   @RHF iter   6:  -388.01257738008189   -8.34622e-06   4.90361e-06 DIIS
   @RHF iter   7:  -388.01257826080689   -8.80725e-07   1.26077e-06 DIIS
   @RHF iter   8:  -388.01257834696662   -8.61597e-08   3.85983e-07 DIIS
   @RHF iter   9:  -388.01257836560239   -1.86358e-08   1.82360e-07 DIIS
   @RHF iter  10:  -388.01257837070915   -5.10676e-09   8.55781e-08 DIIS
   @RHF iter  11:  -388.01257837195118   -1.24203e-09   2.81058e-08 DIIS
   @RHF iter  12:  -388.01257837205634   -1.05160e-10   1.05760e-08 DIIS
   @RHF iter  13:  -388.01257837206151   -5.17275e-12   4.16515e-09 DIIS
   @RHF iter  14:  -388.01257837206117    3.41061e-13   1.09568e-09 DIIS
   @RHF iter  15:  -388.01257837206538   -4.20641e-12   4.74408e-10 DIIS
   @RHF iter  16:  -388.01257837206271    2.67164e-12   2.07750e-10 DIIS
   @RHF iter  17:  -388.01257837206595   -3.24007e-12   9.14188e-11 DIIS
  Energy and wave function converged.

  ==> Post-Iterations <==

    Orbital Energies [Eh]
    ---------------------

    Doubly Occupied:

       1A    -11.239089     2A    -11.237497     3A    -11.235264
       4A    -11.232125     5A    -11.230903     6A    -11.229723
       7A    -11.228898     8A    -11.213196     9A    -11.212639
      10A    -11.212069    11A     -1.152559    12A     -1.064335
      13A     -1.047443    14A     -1.008933    15A     -0.931047
      16A     -0.914561    17A     -0.827467    18A     -0.796372
      19A     -0.792239    20A     -0.690234    21A     -0.635729
      22A     -0.631955    23A     -0.630300    24A     -0.612302
      25A     -0.581690    26A     -0.578594    27A     -0.562603
      28A     -0.539268    29A     -0.535719    30A     -0.513003
      31A     -0.488046    32A     -0.486947    33A     -0.478942
      34A     -0.477774    35A     -0.465468    36A     -0.461874
      37A     -0.329540    38A     -0.323572

    Virtual:

      39A      0.130419    40A      0.143240    41A      0.170704
      42A      0.193972    43A      0.197481    44A      0.214259
      45A      0.227977    46A      0.229711    47A      0.240597
      48A      0.249823    49A      0.256508    50A      0.265183
      51A      0.277825    52A      0.282774    53A      0.291229
      54A      0.322554    55A      0.332532    56A      0.346976
      57A      0.366680    58A      0.375832    59A      0.392737
      60A      0.432729    61A      0.450761    62A      0.463772
      63A      0.479713    64A      0.501286    65A      0.563364
      66A      0.581776    67A      0.591776    68A      0.598357
      69A      0.619664    70A      0.632211    71A      0.648358
      72A      0.661073    73A      0.686378    74A      0.691839
      75A      0.699592    76A      0.720513    77A      0.739830
      78A      0.743265    79A      0.747633    80A      0.757876
      81A      0.770024    82A      0.777187    83A      0.786557
      84A      0.801274    85A      0.809407    86A      0.827970
      87A      0.850125    88A      0.858398    89A      0.862147
      90A      0.868079    91A      0.881563    92A      0.886008
      93A      0.893202    94A      0.898847    95A      0.905477
      96A      0.909625    97A      0.915039    98A      0.925516
      99A      0.927377   100A      0.933767   101A      0.937986
     102A      0.949472   103A      0.963571   104A      0.976911
     105A      0.996693   106A      1.015117   107A      1.023573
     108A      1.051892   109A      1.092609   110A      1.115686
     111A      1.128279   112A      1.132243   113A      1.155444
     114A      1.164746   115A      1.197248   116A      1.210103
     117A      1.246243   118A      1.249330   119A      1.251351
     120A      1.257697   121A      1.301955   122A      1.307458
     123A      1.323157   124A      1.326495   125A      1.408172
     126A      1.418561   127A      1.463013   128A      1.479879
     129A      1.514371   130A      1.526000   131A      1.568880
     132A      1.606798   133A      1.621151   134A      1.625917
     135A      1.636166   136A      1.671263   137A      1.693151
     138A      1.723897   139A      1.732069   140A      1.738850
     141A      1.745908   142A      1.763230   143A      1.790060
     144A      1.806640   145A      1.814250   146A      1.853564
     147A      1.860274   148A      1.878523   149A      1.890079
     150A      1.899593   151A      1.905752   152A      1.909380
     153A      1.917666   154A      1.923343   155A      1.925892
     156A      1.941859   157A      1.945815   158A      1.950008
     159A      1.960983   160A      1.968783   161A      1.984702
     162A      1.996510   163A      2.000565   164A      2.020516
     165A      2.024215   166A      2.041695   167A      2.051646
     168A      2.059004   169A      2.074139   170A      2.102940
     171A      2.109233   172A      2.131473   173A      2.146922
     174A      2.156175   175A      2.161903   176A      2.179654
     177A      2.195773   178A      2.204252   179A      2.237973
     180A      2.256604   181A      2.273355   182A      2.287044
     183A      2.304234   184A      2.310091   185A      2.322847
     186A      2.347438   187A      2.353959   188A      2.420501
     189A      2.453130   190A      2.453791   191A      2.479137
     192A      2.512655   193A      2.521698   194A      2.534603
     195A      2.552264   196A      2.633551   197A      2.643234
     198A      2.698752   199A      2.735988   200A      2.751871
     201A      2.762368   202A      2.773736   203A      2.782954
     204A      2.787825   205A      2.793093   206A      2.811351
     207A      2.838078   208A      2.840285   209A      2.865474
     210A      2.878166   211A      2.929348   212A      2.950050
     213A      2.969951   214A      3.006702   215A      3.026658
     216A      3.062510   217A      3.152412   218A      3.203588
     219A      3.296350   220A      3.963626

    Final Occupation by Irrep:
              A
    DOCC [    38 ]

  @RHF Final Energy:  -388.01257837206595

   => Energetics <=

    Nuclear Repulsion Energy =            482.8585108382067688
    One-Electron Energy =               -1480.0823381243137646
    Two-Electron Energy =                 609.2112489140411071
    Total Energy =                       -388.0125783720659456

Computation Completed

Properties will be evaluated at   0.000000,   0.000000,   0.000000 [a0]

Properties computed using the SCF density matrix

  Nuclear Dipole Moment: [e a0]
     X:   -14.1758      Y:    -3.8398      Z:     1.0938

  Electronic Dipole Moment: [e a0]
     X:    14.1810      Y:     3.9425      Z:    -1.0343

  Dipole Moment: [e a0]
     X:     0.0052      Y:     0.1027      Z:     0.0596     Total:     0.1188

  Dipole Moment: [D]
     X:     0.0133      Y:     0.2610      Z:     0.1514     Total:     0.3020

*** tstop() called on ds3 at Mon Apr 27 13:02:34 2020
Module time:
	user time   =     107.36 seconds =       1.79 minutes
	system time =      50.26 seconds =       0.84 minutes
	total time  =        149 seconds =       2.48 minutes
Total time:
	user time   =     107.36 seconds =       1.79 minutes
	system time =      50.26 seconds =       0.84 minutes
	total time  =        149 seconds =       2.48 minutes
                                     G D M A

                                 by Anthony Stone

                           version 2.2.06, 22 June 2011

               Distributed Multipoles from Gaussian wavefunctions

Starting at 13:2:34 on 27 Apr 2020

Using SCF density matrix from file ./SSI/SSI-064PHE-097PRO-1-dimer.test.4919.fchk

                         Distributed Multipole Analysis

Standard DMA

Positions and radii in angstrom
Multipole moments in atomic units, ea_0^k for rank k

C          x =  0.719397  y =  1.543000  z =  2.365901 angstrom
           Maximum rank =  0   Radius =  0.650 angstrom
                   Q00  =  -0.204133

C          x =  0.772397  y = -0.261000  z =  0.651901 angstrom
           Maximum rank =  0   Radius =  0.650 angstrom
                   Q00  =  -0.106395

C          x =  1.251397  y =  0.962000  z =  1.093901 angstrom
           Maximum rank =  0   Radius =  0.650 angstrom
                   Q00  =  -0.087462

C          x =  1.223397  y = -0.802000  z = -0.582099 angstrom
           Maximum rank =  0   Radius =  0.650 angstrom
                   Q00  =  -0.069806

C          x =  2.147397  y =  1.678000  z =  0.297901 angstrom
           Maximum rank =  0   Radius =  0.650 angstrom
                   Q00  =  -0.014549

C          x =  2.115397  y = -0.081000  z = -1.345099 angstrom
           Maximum rank =  0   Radius =  0.650 angstrom
                   Q00  =  -0.058778

C          x =  2.598397  y =  1.149000  z = -0.906099 angstrom
           Maximum rank =  0   Radius =  0.650 angstrom
                   Q00  =  -0.067923

H          x =  0.063397  y = -0.816000  z =  1.250901 angstrom
           Maximum rank =  0   Radius =  0.325 angstrom
                   Q00  =   0.057605

H          x =  0.858397  y = -1.761000  z = -0.926099 angstrom
           Maximum rank =  0   Radius =  0.325 angstrom
                   Q00  =   0.067853

H          x =  1.330397  y =  2.394000  z =  2.669901 angstrom
           Maximum rank =  0   Radius =  0.325 angstrom
                   Q00  =   0.097068

H          x =  0.776397  y =  0.789000  z =  3.152901 angstrom
           Maximum rank =  0   Radius =  0.325 angstrom
                   Q00  =   0.099537

H          x =  2.510397  y =  2.643000  z =  0.622901 angstrom
           Maximum rank =  0   Radius =  0.325 angstrom
                   Q00  =   0.058905

H          x =  2.457397  y = -0.482000  z = -2.290099 angstrom
           Maximum rank =  0   Radius =  0.325 angstrom
                   Q00  =   0.058614

H          x =  3.300397  y =  1.706000  z = -1.510099 angstrom
           Maximum rank =  0   Radius =  0.325 angstrom
                   Q00  =   0.065814

H          x = -0.325443  y =  1.864160  z =  2.242771 angstrom
           Maximum rank =  0   Radius =  0.325 angstrom
                   Q00  =   0.102075

C          x = -2.698603  y = -1.012000  z = -0.823099 angstrom
           Maximum rank =  0   Radius =  0.650 angstrom
                   Q00  =  -0.089159

C          x = -2.711603  y = -2.303000  z = -0.042099 angstrom
           Maximum rank =  0   Radius =  0.650 angstrom
                   Q00  =  -0.226847

C          x = -4.147603  y = -0.529000  z = -0.809099 angstrom
           Maximum rank =  0   Radius =  0.650 angstrom
                   Q00  =  -0.228112

H          x = -2.321603  y = -1.161000  z = -1.836099 angstrom
           Maximum rank =  0   Radius =  0.325 angstrom
                   Q00  =   0.054521

H          x = -2.071603  y = -0.289000  z = -0.303099 angstrom
           Maximum rank =  0   Radius =  0.325 angstrom
                   Q00  =   0.059691

H          x = -3.096603  y = -3.113000  z = -0.664099 angstrom
           Maximum rank =  0   Radius =  0.325 angstrom
                   Q00  =   0.077722

H          x = -1.726603  y = -2.550000  z =  0.353901 angstrom
           Maximum rank =  0   Radius =  0.325 angstrom
                   Q00  =   0.076530

H          x = -4.184603  y =  0.557000  z = -0.774099 angstrom
           Maximum rank =  0   Radius =  0.325 angstrom
                   Q00  =   0.086867

H          x = -3.428933  y = -2.072760  z =  0.759411 angstrom
           Maximum rank =  0   Radius =  0.325 angstrom
                   Q00  =   0.048168

H          x = -4.559193  y = -0.951850  z =  0.119231 angstrom
           Maximum rank =  0   Radius =  0.325 angstrom
                   Q00  =   0.061429

H          x = -4.703523  y = -0.852510  z = -1.701449 angstrom
           Maximum rank =  0   Radius =  0.325 angstrom
                   Q00  =   0.080764

Total multipoles referred to origin at
           x =   0.000000,  y =    0.000000,  z =    0.000000 angstrom
                   Q00  =  -0.000000

Finished at 13:2:34 on 27 Apr 2020

  DMA results are available in the Python driver through the
	  variable('DMA DISTRIBUTED MULTIPOLES')
  and
	  variable('DMA TOTAL MULTIPOLES')
  commands.

    Psi4 stopped on: Monday, 27 April 2020 01:02PM
    Psi4 wall time for execution: 0:02:29.84

*** Psi4 exiting successfully. Buy a developer a beer!
