                               Psi4 1.3.2 release

  ==> Input File <==

--------------------------------------------------------------------------
import numpy as np
set {scf_type pk
basis cc-pvdz
d_convergence 10
gdma_switch   0
gdma_limit    0
gdma_origin   [ 0.0,  0.0,  0.0 ]
}
molecule test {
    units Angstrom
    0 1
    --
    0 1
    C               -1.170059812524744     1.282587435272755    -1.629506689519862
    C               -0.827059812524744     1.139587435272755    -3.105506689519862
    H               -1.703059812524744     2.217587435272754    -1.450506689519862
    H               -1.800059812524744     0.448587435272755    -1.315506689519862
    H               -0.263059812524744     1.265587435272755    -1.023506689519862
    H               -0.289059812524744     0.205587435272755    -3.264506689519862
    H               -0.219009812524744     1.995147435272755    -3.434566689519862
    H               -1.776449812524744     1.122957435272755    -3.660826689519862
    C                0.596940187475256    -0.855412564727245     1.043493310480138
    C               -0.127059812524744     0.142587435272755     1.970493310480138
    C                1.577940187475256    -1.767412564727245     1.794493310480138
    H               -0.143059812524744    -1.470412564727245     0.527493310480138
    H                1.147940187475256    -0.293412564727245     0.288493310480138
    H               -0.794059812524744     0.742587435272755     1.349493310480138
    H                2.248940187475256    -1.177412564727245     2.417493310480138
    H                1.003940187475256    -2.437412564727245     2.437493310480138
    H                0.578430187475256     0.824167435272755     2.468223310480138
    H               -0.770279812524744    -0.382562564727245     2.691943310480138
    H                2.175160187475256    -2.369652564727246     1.094033310480138

}
e, wfn = energy('scf', return_wfn=True)
gdma(wfn)
dmavals = variable('DMA DISTRIBUTED MULTIPOLES')
charges = np.array(dmavals)
print(charges)
np.save('SSI-101VAL-106LYS-1-dimer.npy', np.array(charges))--------------------------------------------------------------------------

*** tstart() called on ds3
*** at Mon Apr 27 07:16:41 2020

   => Loading Basis Set <=

    Name: CC-PVDZ
    Role: ORBITAL
    Keyword: BASIS
    atoms 1-2, 9-11  entry C          line   138 file /theoryfs2/ds/metcalf/miniconda2/envs/tf2gpu/share/psi4/basis/cc-pvdz.gbs
    atoms 3-8, 12-19 entry H          line    22 file /theoryfs2/ds/metcalf/miniconda2/envs/tf2gpu/share/psi4/basis/cc-pvdz.gbs

         ---------------------------------------------------------
                                   SCF
               by Justin Turney, Rob Parrish, Andy Simmonett
                          and Daniel G. A. Smith
                              RHF Reference
                        1 Threads,    500 MiB Core
         ---------------------------------------------------------

  ==> Geometry <==

    Molecular point group: c1
    Full point group: C1

    Geometry (in Angstrom), charge = 0, multiplicity = 1:

       Center              X                  Y                   Z               Mass
    ------------   -----------------  -----------------  -----------------  -----------------
         C           -1.170059812525     1.282587435273    -1.629506689520    12.000000000000
         C           -0.827059812525     1.139587435273    -3.105506689520    12.000000000000
         H           -1.703059812525     2.217587435273    -1.450506689520     1.007825032230
         H           -1.800059812525     0.448587435273    -1.315506689520     1.007825032230
         H           -0.263059812525     1.265587435273    -1.023506689520     1.007825032230
         H           -0.289059812525     0.205587435273    -3.264506689520     1.007825032230
         H           -0.219009812525     1.995147435273    -3.434566689520     1.007825032230
         H           -1.776449812525     1.122957435273    -3.660826689520     1.007825032230
         C            0.596940187475    -0.855412564727     1.043493310480    12.000000000000
         C           -0.127059812525     0.142587435273     1.970493310480    12.000000000000
         C            1.577940187475    -1.767412564727     1.794493310480    12.000000000000
         H           -0.143059812525    -1.470412564727     0.527493310480     1.007825032230
         H            1.147940187475    -0.293412564727     0.288493310480     1.007825032230
         H           -0.794059812525     0.742587435273     1.349493310480     1.007825032230
         H            2.248940187475    -1.177412564727     2.417493310480     1.007825032230
         H            1.003940187475    -2.437412564727     2.437493310480     1.007825032230
         H            0.578430187475     0.824167435273     2.468223310480     1.007825032230
         H           -0.770279812525    -0.382562564727     2.691943310480     1.007825032230
         H            2.175160187475    -2.369652564727     1.094033310480     1.007825032230

  Running in c1 symmetry.

  Rotational constants: A =      0.25484  B =      0.03739  C =      0.03370 [cm^-1]
  Rotational constants: A =   7639.88312  B =   1120.84624  C =   1010.16612 [MHz]
  Nuclear repulsion =  176.589128609203925

  Charge       = 0
  Multiplicity = 1
  Electrons    = 44
  Nalpha       = 22
  Nbeta        = 22

  ==> Algorithm <==

  SCF Algorithm Type is PK.
  DIIS enabled.
  MOM disabled.
  Fractional occupation disabled.
  Guess Type is SAD.
  Energy threshold   = 1.00e-06
  Density threshold  = 1.00e-10
  Integral threshold = 0.00e+00

  ==> Primary Basis <==

  Basis Set: CC-PVDZ
    Blend: CC-PVDZ
    Number of shells: 72
    Number of basis function: 140
    Number of Cartesian functions: 145
    Spherical Harmonics?: true
    Max angular momentum: 2

  ==> Pre-Iterations <==

   -------------------------------------------------------
    Irrep   Nso     Nmo     Nalpha   Nbeta   Ndocc  Nsocc
   -------------------------------------------------------
     A        140     140       0       0       0       0
   -------------------------------------------------------
    Total     140     140      22      22      22       0
   -------------------------------------------------------

  ==> Integral Setup <==

  Using integral reordering PK algorithm.
  Sizing the integral batches needed.
  Building batch lookup table.
   Calculation information:
      Number of atoms:                  19
      Number of AO shells:              72
      Number of primitives:            180
      Number of atomic orbitals:       145
      Number of basis functions:       140

      Integral cutoff                 1.00e-12
      Number of threads:                 1

	Batch   1 pq = [       0,    9405] index = [             0,44231715] size =     44231715
	Batch   2 pq = [    9405,    9870] index = [      44231715,48713385] size =      4481670
  Task number: 5
  Buffer size: 11059200
  Buffer per thread: 2
  We computed 2809022 shell quartets total.
  Whereas there are 3454506 unique shell quartets.

  ==> DiskJK: Disk-Based J/K Matrices <==

    J tasked:                  Yes
    K tasked:                  Yes
    wK tasked:                  No
    Memory [MiB]:              375
    Schwarz Cutoff:          1E-12

    OpenMP threads:              1

  Minimum eigenvalue in the overlap matrix is 5.5908775465E-03.
  Using Symmetric Orthogonalization.

  SCF Guess: Superposition of Atomic Densities via on-the-fly atomic UHF.

  ==> Iterations <==

                        Total Energy        Delta E     RMS |[F,P]|

   @RHF iter SAD:  -196.32987180094653   -1.96330e+02   0.00000e+00
   @RHF iter   1:  -197.31365862850129   -9.83787e-01   3.78625e-03 DIIS
   @RHF iter   2:  -197.47270453848685   -1.59046e-01   1.63037e-03 DIIS
   @RHF iter   3:  -197.50081662406359   -2.81121e-02   3.25007e-04 DIIS
   @RHF iter   4:  -197.50303803884302   -2.22141e-03   4.83980e-05 DIIS
   @RHF iter   5:  -197.50307680009999   -3.87613e-05   1.48914e-05 DIIS
   @RHF iter   6:  -197.50308012640144   -3.32630e-06   2.38495e-06 DIIS
   @RHF iter   7:  -197.50308022798484   -1.01583e-07   4.18417e-07 DIIS
   @RHF iter   8:  -197.50308023141071   -3.42587e-09   1.02456e-07 DIIS
   @RHF iter   9:  -197.50308023159764   -1.86930e-10   3.11392e-08 DIIS
   @RHF iter  10:  -197.50308023161841   -2.07763e-11   6.99098e-09 DIIS
   @RHF iter  11:  -197.50308023161881   -3.97904e-13   1.38625e-09 DIIS
   @RHF iter  12:  -197.50308023162003   -1.22213e-12   2.84530e-10 DIIS
   @RHF iter  13:  -197.50308023162032   -2.84217e-13   6.35164e-11 DIIS
  Energy and wave function converged.

  ==> Post-Iterations <==

    Orbital Energies [Eh]
    ---------------------

    Doubly Occupied:

       1A    -11.221698     2A    -11.219159     3A    -11.217640
       4A    -11.216094     5A    -11.216005     6A     -1.048914
       7A     -1.020290     8A     -0.923120     9A     -0.835029
      10A     -0.796368    11A     -0.624637    12A     -0.602514
      13A     -0.598534    14A     -0.589258    15A     -0.546091
      16A     -0.534021    17A     -0.499511    18A     -0.487283
      19A     -0.483804    20A     -0.472842    21A     -0.467349
      22A     -0.465119

    Virtual:

      23A      0.171708    24A      0.193168    25A      0.218211
      26A      0.225613    27A      0.233542    28A      0.243195
      29A      0.253280    30A      0.270303    31A      0.273822
      32A      0.283433    33A      0.292473    34A      0.302542
      35A      0.314602    36A      0.354140    37A      0.366994
      38A      0.410903    39A      0.423517    40A      0.563647
      41A      0.582143    42A      0.600608    43A      0.608010
      44A      0.612002    45A      0.627180    46A      0.636427
      47A      0.661139    48A      0.683874    49A      0.747510
      50A      0.798478    51A      0.811335    52A      0.843649
      53A      0.873066    54A      0.884892    55A      0.890984
      56A      0.891519    57A      0.897814    58A      0.898012
      59A      0.901046    60A      0.907562    61A      0.910562
      62A      0.913326    63A      0.919462    64A      0.942698
      65A      0.954603    66A      0.966389    67A      1.005506
      68A      1.006290    69A      1.122394    70A      1.126142
      71A      1.126513    72A      1.148501    73A      1.207976
      74A      1.249341    75A      1.380045    76A      1.460609
      77A      1.479058    78A      1.483376    79A      1.488617
      80A      1.529411    81A      1.562370    82A      1.634974
      83A      1.674201    84A      1.680216    85A      1.688364
      86A      1.694623    87A      1.707449    88A      1.844540
      89A      1.854336    90A      1.857425    91A      1.880383
      92A      1.885230    93A      1.906028    94A      1.922149
      95A      1.925890    96A      1.942444    97A      1.946251
      98A      1.947461    99A      1.955495   100A      1.960392
     101A      1.964199   102A      1.971235   103A      1.977143
     104A      1.992093   105A      2.020150   106A      2.048772
     107A      2.051022   108A      2.104137   109A      2.114258
     110A      2.128518   111A      2.150277   112A      2.281797
     113A      2.296508   114A      2.313712   115A      2.329695
     116A      2.338231   117A      2.349114   118A      2.456174
     119A      2.475777   120A      2.482045   121A      2.528836
     122A      2.564312   123A      2.567709   124A      2.575506
     125A      2.608499   126A      2.613981   127A      2.757971
     128A      2.761976   129A      2.766511   130A      2.780513
     131A      2.791710   132A      2.830792   133A      2.839074
     134A      2.854553   135A      2.897089   136A      2.951665
     137A      2.961272   138A      2.972139   139A      2.981378
     140A      3.042668

    Final Occupation by Irrep:
              A
    DOCC [    22 ]

  @RHF Final Energy:  -197.50308023162032

   => Energetics <=

    Nuclear Repulsion Energy =            176.5891286092039252
    One-Electron Energy =                -614.0138553138936004
    Two-Electron Energy =                 239.9216464730693303
    Total Energy =                       -197.5030802316203165

Computation Completed

Properties will be evaluated at   0.000000,   0.000000,   0.000000 [a0]

Properties computed using the SCF density matrix

  Nuclear Dipole Moment: [e a0]
     X:    -0.5659      Y:     0.6481      Z:    -0.8201

  Electronic Dipole Moment: [e a0]
     X:     0.5474      Y:    -0.6424      Z:     0.7885

  Dipole Moment: [e a0]
     X:    -0.0185      Y:     0.0057      Z:    -0.0315     Total:     0.0370

  Dipole Moment: [D]
     X:    -0.0471      Y:     0.0146      Z:    -0.0801     Total:     0.0941

*** tstop() called on ds3 at Mon Apr 27 07:17:26 2020
Module time:
	user time   =      14.11 seconds =       0.24 minutes
	system time =       5.23 seconds =       0.09 minutes
	total time  =         45 seconds =       0.75 minutes
Total time:
	user time   =      14.11 seconds =       0.24 minutes
	system time =       5.23 seconds =       0.09 minutes
	total time  =         45 seconds =       0.75 minutes
                                     G D M A

                                 by Anthony Stone

                           version 2.2.06, 22 June 2011

               Distributed Multipoles from Gaussian wavefunctions

Starting at 7:17:26 on 27 Apr 2020

Using SCF density matrix from file ./SSI/SSI-101VAL-106LYS-1-dimer.test.26976.fchk

                         Distributed Multipole Analysis

Standard DMA

Positions and radii in angstrom
Multipole moments in atomic units, ea_0^k for rank k

C          x = -1.170060  y =  1.282587  z = -1.629507 angstrom
           Maximum rank =  0   Radius =  0.650 angstrom
                   Q00  =  -0.230727

C          x = -0.827060  y =  1.139587  z = -3.105507 angstrom
           Maximum rank =  0   Radius =  0.650 angstrom
                   Q00  =  -0.239686

H          x = -1.703060  y =  2.217587  z = -1.450507 angstrom
           Maximum rank =  0   Radius =  0.325 angstrom
                   Q00  =   0.078496

H          x = -1.800060  y =  0.448587  z = -1.315507 angstrom
           Maximum rank =  0   Radius =  0.325 angstrom
                   Q00  =   0.076229

H          x = -0.263060  y =  1.265587  z = -1.023507 angstrom
           Maximum rank =  0   Radius =  0.325 angstrom
                   Q00  =   0.079283

H          x = -0.289060  y =  0.205587  z = -3.264507 angstrom
           Maximum rank =  0   Radius =  0.325 angstrom
                   Q00  =   0.081197

H          x = -0.219010  y =  1.995147  z = -3.434567 angstrom
           Maximum rank =  0   Radius =  0.325 angstrom
                   Q00  =   0.079294

H          x = -1.776450  y =  1.122957  z = -3.660827 angstrom
           Maximum rank =  0   Radius =  0.325 angstrom
                   Q00  =   0.076225

C          x =  0.596940  y = -0.855413  z =  1.043493 angstrom
           Maximum rank =  0   Radius =  0.650 angstrom
                   Q00  =  -0.074011

C          x = -0.127060  y =  0.142587  z =  1.970493 angstrom
           Maximum rank =  0   Radius =  0.650 angstrom
                   Q00  =  -0.265458

C          x =  1.577940  y = -1.767413  z =  1.794493 angstrom
           Maximum rank =  0   Radius =  0.650 angstrom
                   Q00  =  -0.240118

H          x = -0.143060  y = -1.470413  z =  0.527493 angstrom
           Maximum rank =  0   Radius =  0.325 angstrom
                   Q00  =   0.050960

H          x =  1.147940  y = -0.293413  z =  0.288493 angstrom
           Maximum rank =  0   Radius =  0.325 angstrom
                   Q00  =   0.045711

H          x = -0.794060  y =  0.742587  z =  1.349493 angstrom
           Maximum rank =  0   Radius =  0.325 angstrom
                   Q00  =   0.085991

H          x =  2.248940  y = -1.177413  z =  2.417493 angstrom
           Maximum rank =  0   Radius =  0.325 angstrom
                   Q00  =   0.078380

H          x =  1.003940  y = -2.437413  z =  2.437493 angstrom
           Maximum rank =  0   Radius =  0.325 angstrom
                   Q00  =   0.075754

H          x =  0.578430  y =  0.824167  z =  2.468223 angstrom
           Maximum rank =  0   Radius =  0.325 angstrom
                   Q00  =   0.080648

H          x = -0.770280  y = -0.382563  z =  2.691943 angstrom
           Maximum rank =  0   Radius =  0.325 angstrom
                   Q00  =   0.078319

H          x =  2.175160  y = -2.369653  z =  1.094033 angstrom
           Maximum rank =  0   Radius =  0.325 angstrom
                   Q00  =   0.083513

Total multipoles referred to origin at
           x =   0.000000,  y =    0.000000,  z =    0.000000 angstrom
                   Q00  =  -0.000000

Finished at 7:17:26 on 27 Apr 2020

  DMA results are available in the Python driver through the
	  variable('DMA DISTRIBUTED MULTIPOLES')
  and
	  variable('DMA TOTAL MULTIPOLES')
  commands.

    Psi4 stopped on: Monday, 27 April 2020 07:17AM
    Psi4 wall time for execution: 0:00:45.42

*** Psi4 exiting successfully. Buy a developer a beer!
