                               Psi4 1.3.2 release

  ==> Input File <==

--------------------------------------------------------------------------
import numpy as np
set {scf_type pk
basis cc-pvdz
d_convergence 10
gdma_switch   0
gdma_limit    0
gdma_origin   [ 0.0,  0.0,  0.0 ]
}
molecule test {
    units Angstrom
    -1 1
    --
    -1 1
    C               -0.391379100847150    -0.085143785191400    -2.368233406693896
    C               -1.189379100847150    -0.733143785191400    -1.259233406693896
    C               -1.843379100847150    -1.133143785191400     0.811766593306104
    C               -2.326379100847150    -1.492143785191400    -1.310233406693896
    N               -0.914379100847150    -0.534143785191400     0.081766593306104
    N               -2.710379100847150    -1.724143785191399    -0.011233406693896
    H               -1.832379100847150    -1.104143785191400     1.896766593306104
    H               -0.281379100847150    -0.812143785191400    -3.156233406693896
    H                0.598620899152850     0.143856214808600    -1.957233406693896
    H               -3.519379100847150    -2.255143785191399     0.269766593306104
    H               -2.891379100847150    -1.872143785191400    -2.151233406693897
    H               -0.893078100847150     0.777666214808600    -2.830683406693896
    C                2.780620899152850     2.178856214808600    -0.015233406693896
    C                2.124620899152850     1.277856214808601     1.016766593306104
    O                1.843620899152850     0.116856214808600     0.654766593306104
    O                1.964620899152850     1.719856214808600     2.179766593306104
    H                2.299620899152850     2.028856214808600    -0.979233406693896
    H                3.837620899152850     1.920856214808600    -0.095233406693896
    H                2.670370899152850     3.243396214808601     0.238906593306104

}
e, wfn = energy('scf', return_wfn=True)
gdma(wfn)
dmavals = variable('DMA DISTRIBUTED MULTIPOLES')
charges = np.array(dmavals)
print(charges)
np.save('SSI-020HIE-062ASP-2-dimer.npy', np.array(charges))--------------------------------------------------------------------------

*** tstart() called on ds3
*** at Mon Apr 27 22:04:13 2020

   => Loading Basis Set <=

    Name: CC-PVDZ
    Role: ORBITAL
    Keyword: BASIS
    atoms 1-4, 13-14  entry C          line   138 file /theoryfs2/ds/metcalf/miniconda2/envs/tf2gpu/share/psi4/basis/cc-pvdz.gbs
    atoms 5-6         entry N          line   168 file /theoryfs2/ds/metcalf/miniconda2/envs/tf2gpu/share/psi4/basis/cc-pvdz.gbs
    atoms 7-12, 17-19 entry H          line    22 file /theoryfs2/ds/metcalf/miniconda2/envs/tf2gpu/share/psi4/basis/cc-pvdz.gbs
    atoms 15-16       entry O          line   198 file /theoryfs2/ds/metcalf/miniconda2/envs/tf2gpu/share/psi4/basis/cc-pvdz.gbs

         ---------------------------------------------------------
                                   SCF
               by Justin Turney, Rob Parrish, Andy Simmonett
                          and Daniel G. A. Smith
                              RHF Reference
                        1 Threads,    500 MiB Core
         ---------------------------------------------------------

  ==> Geometry <==

    Molecular point group: c1
    Full point group: C1

    Geometry (in Angstrom), charge = -1, multiplicity = 1:

       Center              X                  Y                   Z               Mass
    ------------   -----------------  -----------------  -----------------  -----------------
         C           -0.391379100847    -0.085143785191    -2.368233406694    12.000000000000
         C           -1.189379100847    -0.733143785191    -1.259233406694    12.000000000000
         C           -1.843379100847    -1.133143785191     0.811766593306    12.000000000000
         C           -2.326379100847    -1.492143785191    -1.310233406694    12.000000000000
         N           -0.914379100847    -0.534143785191     0.081766593306    14.003074004430
         N           -2.710379100847    -1.724143785191    -0.011233406694    14.003074004430
         H           -1.832379100847    -1.104143785191     1.896766593306     1.007825032230
         H           -0.281379100847    -0.812143785191    -3.156233406694     1.007825032230
         H            0.598620899153     0.143856214809    -1.957233406694     1.007825032230
         H           -3.519379100847    -2.255143785191     0.269766593306     1.007825032230
         H           -2.891379100847    -1.872143785191    -2.151233406694     1.007825032230
         H           -0.893078100847     0.777666214809    -2.830683406694     1.007825032230
         C            2.780620899153     2.178856214809    -0.015233406694    12.000000000000
         C            2.124620899153     1.277856214809     1.016766593306    12.000000000000
         O            1.843620899153     0.116856214809     0.654766593306    15.994914619570
         O            1.964620899153     1.719856214809     2.179766593306    15.994914619570
         H            2.299620899153     2.028856214809    -0.979233406694     1.007825032230
         H            3.837620899153     1.920856214809    -0.095233406694     1.007825032230
         H            2.670370899153     3.243396214809     0.238906593306     1.007825032230

  Running in c1 symmetry.

  Rotational constants: A =      0.08381  B =      0.01951  C =      0.01646 [cm^-1]
  Rotational constants: A =   2512.59436  B =    584.86785  C =    493.49174 [MHz]
  Nuclear repulsion =  487.130520958138618

  Charge       = -1
  Multiplicity = 1
  Electrons    = 76
  Nalpha       = 38
  Nbeta        = 38

  ==> Algorithm <==

  SCF Algorithm Type is PK.
  DIIS enabled.
  MOM disabled.
  Fractional occupation disabled.
  Guess Type is SAD.
  Energy threshold   = 1.00e-06
  Density threshold  = 1.00e-10
  Integral threshold = 0.00e+00

  ==> Primary Basis <==

  Basis Set: CC-PVDZ
    Blend: CC-PVDZ
    Number of shells: 87
    Number of basis function: 185
    Number of Cartesian functions: 195
    Spherical Harmonics?: true
    Max angular momentum: 2

  ==> Pre-Iterations <==

   -------------------------------------------------------
    Irrep   Nso     Nmo     Nalpha   Nbeta   Ndocc  Nsocc
   -------------------------------------------------------
     A        185     185       0       0       0       0
   -------------------------------------------------------
    Total     185     185      38      38      38       0
   -------------------------------------------------------

  ==> Integral Setup <==

  Using integral reordering PK algorithm.
  Sizing the integral batches needed.
  Building batch lookup table.
   Calculation information:
      Number of atoms:                  19
      Number of AO shells:              87
      Number of primitives:            265
      Number of atomic orbitals:       195
      Number of basis functions:       185

      Integral cutoff                 1.00e-12
      Number of threads:                 1

	Batch   1 pq = [       0,    9405] index = [             0,44231715] size =     44231715
	Batch   2 pq = [    9405,   13301] index = [      44231715,88464951] size =     44233236
	Batch   3 pq = [   13301,   16290] index = [      88464951,132690195] size =     44225244
	Batch   4 pq = [   16290,   17205] index = [     132690195,148014615] size =     15324420
  Task number: 14
  Buffer size: 11059200
  Buffer per thread: 2
  We computed 5618377 shell quartets total.
  Whereas there are 7328706 unique shell quartets.

  ==> DiskJK: Disk-Based J/K Matrices <==

    J tasked:                  Yes
    K tasked:                  Yes
    wK tasked:                  No
    Memory [MiB]:              375
    Schwarz Cutoff:          1E-12

    OpenMP threads:              1

  Minimum eigenvalue in the overlap matrix is 1.2152579684E-03.
  Using Symmetric Orthogonalization.

  SCF Guess: Superposition of Atomic Densities via on-the-fly atomic UHF.

  ==> Iterations <==

                        Total Energy        Delta E     RMS |[F,P]|

   @RHF iter SAD:  -489.66528698227467   -4.89665e+02   0.00000e+00
   @RHF iter   1:  -490.74844901963826   -1.08316e+00   4.36524e-03 DIIS
   @RHF iter   2:  -490.99344936645099   -2.45000e-01   2.62175e-03 DIIS
   @RHF iter   3:  -491.08430856635869   -9.08592e-02   4.42746e-04 DIIS
   @RHF iter   4:  -491.08840517683490   -4.09661e-03   1.84862e-04 DIIS
   @RHF iter   5:  -491.08913785058985   -7.32674e-04   4.22739e-05 DIIS
   @RHF iter   6:  -491.08918286967804   -4.50191e-05   1.78583e-05 DIIS
   @RHF iter   7:  -491.08919197139835   -9.10172e-06   5.12080e-06 DIIS
   @RHF iter   8:  -491.08919332453888   -1.35314e-06   2.23365e-06 DIIS
   @RHF iter   9:  -491.08919359399300   -2.69454e-07   1.00373e-06 DIIS
   @RHF iter  10:  -491.08919365356223   -5.95692e-08   3.21825e-07 DIIS
   @RHF iter  11:  -491.08919365916461   -5.60237e-09   1.42859e-07 DIIS
   @RHF iter  12:  -491.08919366009053   -9.25922e-10   5.46113e-08 DIIS
   @RHF iter  13:  -491.08919366024344   -1.52909e-10   1.65906e-08 DIIS
   @RHF iter  14:  -491.08919366025560   -1.21645e-11   5.02145e-09 DIIS
   @RHF iter  15:  -491.08919366025521    3.97904e-13   2.15017e-09 DIIS
   @RHF iter  16:  -491.08919366026123   -6.02540e-12   8.13331e-10 DIIS
   @RHF iter  17:  -491.08919366025998    1.25056e-12   3.46799e-10 DIIS
   @RHF iter  18:  -491.08919366025725    2.72848e-12   1.01773e-10 DIIS
   @RHF iter  19:  -491.08919366025754   -2.84217e-13   3.61428e-11 DIIS
  Energy and wave function converged.

  ==> Post-Iterations <==

    Orbital Energies [Eh]
    ---------------------

    Doubly Occupied:

       1A    -20.238174     2A    -20.238068     3A    -15.509787
       4A    -15.402057     5A    -11.171716     6A    -11.142084
       7A    -11.130598     8A    -11.108676     9A    -11.095434
      10A    -11.034777    11A     -1.226403    12A     -1.126796
      13A     -1.035479    14A     -1.016122    15A     -0.913961
      16A     -0.826771    17A     -0.781022    18A     -0.702330
      19A     -0.652305    20A     -0.624520    21A     -0.494479
      22A     -0.489045    23A     -0.488029    24A     -0.481746
      25A     -0.439874    26A     -0.417914    27A     -0.407481
      28A     -0.399390    29A     -0.388169    30A     -0.382438
      31A     -0.323814    32A     -0.291147    33A     -0.268568
      34A     -0.256477    35A     -0.196382    36A     -0.160498
      37A     -0.152502    38A     -0.137852

    Virtual:

      39A      0.267191    40A      0.293973    41A      0.300295
      42A      0.331158    43A      0.339062    44A      0.351660
      45A      0.365146    46A      0.395962    47A      0.405744
      48A      0.421571    49A      0.467621    50A      0.492109
      51A      0.502829    52A      0.512522    53A      0.528040
      54A      0.581648    55A      0.599144    56A      0.601370
      57A      0.706883    58A      0.714815    59A      0.736717
      60A      0.756279    61A      0.769215    62A      0.788531
      63A      0.809846    64A      0.827146    65A      0.834114
      66A      0.849598    67A      0.869186    68A      0.871186
      69A      0.882344    70A      0.923805    71A      0.947077
      72A      0.963019    73A      0.976140    74A      0.988358
      75A      0.997259    76A      1.024332    77A      1.027925
      78A      1.047365    79A      1.053328    80A      1.061746
      81A      1.068018    82A      1.077522    83A      1.098605
      84A      1.118234    85A      1.149294    86A      1.155608
      87A      1.171303    88A      1.199088    89A      1.227825
      90A      1.237744    91A      1.256070    92A      1.270344
      93A      1.300407    94A      1.341230    95A      1.359013
      96A      1.372391    97A      1.392048    98A      1.414902
      99A      1.432533   100A      1.434122   101A      1.448270
     102A      1.531394   103A      1.557275   104A      1.572882
     105A      1.588987   106A      1.603234   107A      1.613010
     108A      1.647561   109A      1.648373   110A      1.686762
     111A      1.705777   112A      1.731210   113A      1.758703
     114A      1.761410   115A      1.795366   116A      1.805283
     117A      1.826950   118A      1.855618   119A      1.868386
     120A      1.892982   121A      1.908984   122A      1.949893
     123A      1.976903   124A      2.010862   125A      2.020497
     126A      2.056041   127A      2.061543   128A      2.068804
     129A      2.077277   130A      2.084666   131A      2.092423
     132A      2.117647   133A      2.139587   134A      2.168845
     135A      2.171701   136A      2.206979   137A      2.231319
     138A      2.264302   139A      2.281188   140A      2.305974
     141A      2.332879   142A      2.370036   143A      2.380655
     144A      2.390719   145A      2.428070   146A      2.439836
     147A      2.461360   148A      2.492854   149A      2.535304
     150A      2.565795   151A      2.587556   152A      2.602559
     153A      2.690534   154A      2.704657   155A      2.722531
     156A      2.735624   157A      2.782829   158A      2.800863
     159A      2.847208   160A      2.884977   161A      2.902720
     162A      2.917804   163A      2.924599   164A      2.934567
     165A      2.992757   166A      2.998228   167A      2.999150
     168A      3.011770   169A      3.026589   170A      3.076790
     171A      3.207082   172A      3.265915   173A      3.270895
     174A      3.296649   175A      3.321604   176A      3.349741
     177A      3.385026   178A      3.583880   179A      3.646782
     180A      3.804499   181A      3.879569   182A      3.904205
     183A      4.072827   184A      4.114891   185A      4.209875

    Final Occupation by Irrep:
              A
    DOCC [    38 ]

  @RHF Final Energy:  -491.08919366025754

   => Energetics <=

    Nuclear Repulsion Energy =            487.1305209581386180
    One-Electron Energy =               -1650.1336591534518448
    Two-Electron Energy =                 671.9139445350556343
    Total Energy =                       -491.0891936602574788

Computation Completed

Properties will be evaluated at   0.000000,   0.000000,   0.000000 [a0]

Properties computed using the SCF density matrix

  Nuclear Dipole Moment: [e a0]
     X:     0.0182      Y:     1.9569      Z:    -8.2030

  Electronic Dipole Moment: [e a0]
     X:    -4.1618      Y:    -4.1218      Z:     5.6992

  Dipole Moment: [e a0]
     X:    -4.1436      Y:    -2.1648      Z:    -2.5038     Total:     5.3033

  Dipole Moment: [D]
     X:   -10.5320      Y:    -5.5024      Z:    -6.3639     Total:    13.4796

*** tstop() called on ds3 at Mon Apr 27 22:05:24 2020
Module time:
	user time   =      49.15 seconds =       0.82 minutes
	system time =      23.84 seconds =       0.40 minutes
	total time  =         71 seconds =       1.18 minutes
Total time:
	user time   =      49.15 seconds =       0.82 minutes
	system time =      23.84 seconds =       0.40 minutes
	total time  =         71 seconds =       1.18 minutes
                                     G D M A

                                 by Anthony Stone

                           version 2.2.06, 22 June 2011

               Distributed Multipoles from Gaussian wavefunctions

Starting at 22:5:24 on 27 Apr 2020

Using SCF density matrix from file ./SSI/SSI-020HIE-062ASP-2-dimer.test.30509.fchk

                         Distributed Multipole Analysis

Standard DMA

Positions and radii in angstrom
Multipole moments in atomic units, ea_0^k for rank k

C          x = -0.391379  y = -0.085144  z = -2.368233 angstrom
           Maximum rank =  0   Radius =  0.650 angstrom
                   Q00  =  -0.187760

C          x = -1.189379  y = -0.733144  z = -1.259233 angstrom
           Maximum rank =  0   Radius =  0.650 angstrom
                   Q00  =   0.264860

C          x = -1.843379  y = -1.133144  z =  0.811767 angstrom
           Maximum rank =  0   Radius =  0.650 angstrom
                   Q00  =   0.423911

C          x = -2.326379  y = -1.492144  z = -1.310233 angstrom
           Maximum rank =  0   Radius =  0.650 angstrom
                   Q00  =  -0.058062

N          x = -0.914379  y = -0.534144  z =  0.081767 angstrom
           Maximum rank =  0   Radius =  0.650 angstrom
                   Q00  =  -0.709407

N          x = -2.710379  y = -1.724144  z = -0.011233 angstrom
           Maximum rank =  0   Radius =  0.650 angstrom
                   Q00  =  -0.426059

H          x = -1.832379  y = -1.104144  z =  1.896767 angstrom
           Maximum rank =  0   Radius =  0.325 angstrom
                   Q00  =   0.122080

H          x = -0.281379  y = -0.812144  z = -3.156233 angstrom
           Maximum rank =  0   Radius =  0.325 angstrom
                   Q00  =   0.068851

H          x =  0.598621  y =  0.143856  z = -1.957233 angstrom
           Maximum rank =  0   Radius =  0.325 angstrom
                   Q00  =   0.146785

H          x = -3.519379  y = -2.255144  z =  0.269767 angstrom
           Maximum rank =  0   Radius =  0.325 angstrom
                   Q00  =   0.186996

H          x = -2.891379  y = -1.872144  z = -2.151233 angstrom
           Maximum rank =  0   Radius =  0.325 angstrom
                   Q00  =   0.076553

H          x = -0.893078  y =  0.777666  z = -2.830683 angstrom
           Maximum rank =  0   Radius =  0.325 angstrom
                   Q00  =   0.079970

C          x =  2.780621  y =  2.178856  z = -0.015233 angstrom
           Maximum rank =  0   Radius =  0.650 angstrom
                   Q00  =  -0.280126

C          x =  2.124621  y =  1.277856  z =  1.016767 angstrom
           Maximum rank =  0   Radius =  0.650 angstrom
                   Q00  =   0.975709

O          x =  1.843621  y =  0.116856  z =  0.654767 angstrom
           Maximum rank =  0   Radius =  0.650 angstrom
                   Q00  =  -0.905183

O          x =  1.964621  y =  1.719856  z =  2.179767 angstrom
           Maximum rank =  0   Radius =  0.650 angstrom
                   Q00  =  -0.942781

H          x =  2.299621  y =  2.028856  z = -0.979233 angstrom
           Maximum rank =  0   Radius =  0.325 angstrom
                   Q00  =   0.051176

H          x =  3.837621  y =  1.920856  z = -0.095233 angstrom
           Maximum rank =  0   Radius =  0.325 angstrom
                   Q00  =   0.073517

H          x =  2.670371  y =  3.243396  z =  0.238907 angstrom
           Maximum rank =  0   Radius =  0.325 angstrom
                   Q00  =   0.038971

Total multipoles referred to origin at
           x =   0.000000,  y =    0.000000,  z =    0.000000 angstrom
                   Q00  =  -1.000000

Finished at 22:5:24 on 27 Apr 2020

  DMA results are available in the Python driver through the
	  variable('DMA DISTRIBUTED MULTIPOLES')
  and
	  variable('DMA TOTAL MULTIPOLES')
  commands.

    Psi4 stopped on: Monday, 27 April 2020 10:05PM
    Psi4 wall time for execution: 0:01:11.77

*** Psi4 exiting successfully. Buy a developer a beer!
