                               Psi4 1.3.2 release

  ==> Input File <==

--------------------------------------------------------------------------
import numpy as np
set {scf_type pk
basis cc-pvdz
d_convergence 10
gdma_switch   0
gdma_limit    0
gdma_origin   [ 0.0,  0.0,  0.0 ]
}
molecule test {
    units Angstrom
    0 1
    --
    0 1
    C                4.821283993297475     1.167330547907339    -0.974019151885437
    C                1.361283993297475    -1.292669452092661    -1.543019151885437
    C                1.957283993297475    -0.681669452092661    -2.628019151885437
    C                1.885283993297475    -1.105669452092661    -0.271019151885437
    C                3.080283993297475     0.116330547907339    -2.452019151885436
    C                3.006283993297476    -0.303669452092661    -0.088019151885437
    C                3.618283993297475     0.297330547907339    -1.178019151885437
    H                0.493283993297475    -1.921669452092661    -1.684019151885437
    H                1.551283993297475    -0.834669452092661    -3.617019151885437
    H                1.421283993297475    -1.582669452092661     0.580980848114563
    H                3.540283993297475     0.588330547907339    -3.309019151885436
    H                3.402283993297476    -0.155669452092661     0.904980848114563
    H                5.550283993297476     0.959330547907339    -1.756019151885437
    H                5.281283993297475     0.896330547907339    -0.022019151885437
    H                4.584599993297476     2.241400547907339    -0.955319151885437
    C               -4.029716006702524     0.265330547907339     3.438980848114563
    C               -1.935716006702525     0.231330547907339    -0.310019151885437
    C               -1.680716006702525    -0.741669452092661     0.632980848114563
    C               -2.888716006702524     1.199330547907339    -0.049019151885437
    C               -2.373716006702525    -0.748669452092661     1.837980848114563
    C               -3.582716006702525     1.202330547907339     1.160980848114563
    C               -3.343716006702524     0.216330547907339     2.106980848114563
    H               -1.388716006702525     0.249330547907339    -1.243019151885437
    H               -0.945716006702525    -1.506669452092661     0.432980848114563
    H               -3.103716006702525     1.950330547907339    -0.796019151885437
    H               -2.162716006702524    -1.521669452092661     2.560980848114563
    H               -4.321716006702525     1.959330547907339     1.350980848114563
    H               -4.180716006702524    -0.752669452092661     3.800980848114563
    H               -5.016716006702524     0.716330547907339     3.323980848114563
    H               -3.454072006702524     0.838820547907339     4.180430848114564

}
e, wfn = energy('scf', return_wfn=True)
gdma(wfn)
dmavals = variable('DMA DISTRIBUTED MULTIPOLES')
charges = np.array(dmavals)
print(charges)
np.save('SSI-052PHE-111PHE-1-dimer.npy', np.array(charges))--------------------------------------------------------------------------

*** tstart() called on ds3
*** at Sun Apr 26 18:25:07 2020

   => Loading Basis Set <=

    Name: CC-PVDZ
    Role: ORBITAL
    Keyword: BASIS
    atoms 1-7, 16-22  entry C          line   138 file /theoryfs2/ds/metcalf/miniconda2/envs/tf2gpu/share/psi4/basis/cc-pvdz.gbs
    atoms 8-15, 23-30 entry H          line    22 file /theoryfs2/ds/metcalf/miniconda2/envs/tf2gpu/share/psi4/basis/cc-pvdz.gbs

         ---------------------------------------------------------
                                   SCF
               by Justin Turney, Rob Parrish, Andy Simmonett
                          and Daniel G. A. Smith
                              RHF Reference
                        1 Threads,    500 MiB Core
         ---------------------------------------------------------

  ==> Geometry <==

    Molecular point group: c1
    Full point group: C1

    Geometry (in Angstrom), charge = 0, multiplicity = 1:

       Center              X                  Y                   Z               Mass
    ------------   -----------------  -----------------  -----------------  -----------------
         C            4.821283993297     1.167330547907    -0.974019151885    12.000000000000
         C            1.361283993297    -1.292669452093    -1.543019151885    12.000000000000
         C            1.957283993297    -0.681669452093    -2.628019151885    12.000000000000
         C            1.885283993297    -1.105669452093    -0.271019151885    12.000000000000
         C            3.080283993297     0.116330547907    -2.452019151885    12.000000000000
         C            3.006283993297    -0.303669452093    -0.088019151885    12.000000000000
         C            3.618283993297     0.297330547907    -1.178019151885    12.000000000000
         H            0.493283993297    -1.921669452093    -1.684019151885     1.007825032230
         H            1.551283993297    -0.834669452093    -3.617019151885     1.007825032230
         H            1.421283993297    -1.582669452093     0.580980848115     1.007825032230
         H            3.540283993297     0.588330547907    -3.309019151885     1.007825032230
         H            3.402283993297    -0.155669452093     0.904980848115     1.007825032230
         H            5.550283993297     0.959330547907    -1.756019151885     1.007825032230
         H            5.281283993297     0.896330547907    -0.022019151885     1.007825032230
         H            4.584599993297     2.241400547907    -0.955319151885     1.007825032230
         C           -4.029716006703     0.265330547907     3.438980848115    12.000000000000
         C           -1.935716006703     0.231330547907    -0.310019151885    12.000000000000
         C           -1.680716006703    -0.741669452093     0.632980848115    12.000000000000
         C           -2.888716006703     1.199330547907    -0.049019151885    12.000000000000
         C           -2.373716006703    -0.748669452093     1.837980848115    12.000000000000
         C           -3.582716006703     1.202330547907     1.160980848115    12.000000000000
         C           -3.343716006703     0.216330547907     2.106980848115    12.000000000000
         H           -1.388716006703     0.249330547907    -1.243019151885     1.007825032230
         H           -0.945716006703    -1.506669452093     0.432980848115     1.007825032230
         H           -3.103716006703     1.950330547907    -0.796019151885     1.007825032230
         H           -2.162716006703    -1.521669452093     2.560980848115     1.007825032230
         H           -4.321716006703     1.959330547907     1.350980848115     1.007825032230
         H           -4.180716006703    -0.752669452093     3.800980848115     1.007825032230
         H           -5.016716006703     0.716330547907     3.323980848115     1.007825032230
         H           -3.454072006703     0.838820547907     4.180430848115     1.007825032230

  Running in c1 symmetry.

  Rotational constants: A =      0.05087  B =      0.00768  C =      0.00746 [cm^-1]
  Rotational constants: A =   1525.15294  B =    230.11342  C =    223.67470 [MHz]
  Nuclear repulsion =  754.087264970204728

  Charge       = 0
  Multiplicity = 1
  Electrons    = 100
  Nalpha       = 50
  Nbeta        = 50

  ==> Algorithm <==

  SCF Algorithm Type is PK.
  DIIS enabled.
  MOM disabled.
  Fractional occupation disabled.
  Guess Type is SAD.
  Energy threshold   = 1.00e-06
  Density threshold  = 1.00e-10
  Integral threshold = 0.00e+00

  ==> Primary Basis <==

  Basis Set: CC-PVDZ
    Blend: CC-PVDZ
    Number of shells: 132
    Number of basis function: 276
    Number of Cartesian functions: 290
    Spherical Harmonics?: true
    Max angular momentum: 2

  ==> Pre-Iterations <==

   -------------------------------------------------------
    Irrep   Nso     Nmo     Nalpha   Nbeta   Ndocc  Nsocc
   -------------------------------------------------------
     A        276     276       0       0       0       0
   -------------------------------------------------------
    Total     276     276      50      50      50       0
   -------------------------------------------------------

  ==> Integral Setup <==

  Using integral reordering PK algorithm.
  Sizing the integral batches needed.
  Building batch lookup table.
   Calculation information:
      Number of atoms:                  30
      Number of AO shells:             132
      Number of primitives:            388
      Number of atomic orbitals:       290
      Number of basis functions:       276

      Integral cutoff                 1.00e-12
      Number of threads:                 1

	Batch   1 pq = [       0,    9405] index = [             0,44231715] size =     44231715
	Batch   2 pq = [    9405,   13301] index = [      44231715,88464951] size =     44233236
	Batch   3 pq = [   13301,   16290] index = [      88464951,132690195] size =     44225244
	Batch   4 pq = [   16290,   18810] index = [     132690195,176917455] size =     44227260
	Batch   5 pq = [   18810,   21030] index = [     176917455,221140965] size =     44223510
	Batch   6 pq = [   21030,   23037] index = [     221140965,265363203] size =     44222238
	Batch   7 pq = [   23037,   24883] index = [     265363203,309594286] size =     44231083
	Batch   8 pq = [   24883,   26601] index = [     309594286,353819901] size =     44225615
	Batch   9 pq = [   26601,   28214] index = [     353819901,398029005] size =     44209104
	Batch  10 pq = [   28214,   29740] index = [     398029005,442248670] size =     44219665
	Batch  11 pq = [   29740,   31191] index = [     442248670,486454836] size =     44206166
	Batch  12 pq = [   31191,   32578] index = [     486454836,530679331] size =     44224495
	Batch  13 pq = [   32578,   33908] index = [     530679331,574893186] size =     44213855
	Batch  14 pq = [   33908,   35188] index = [     574893186,619115266] size =     44222080
	Batch  15 pq = [   35188,   36423] index = [     619115266,663335676] size =     44220410
	Batch  16 pq = [   36423,   37617] index = [     663335676,707538153] size =     44202477
	Batch  17 pq = [   37617,   38226] index = [     707538153,730632651] size =     23094498
  Task number: 67
  Buffer size: 11059200
  Buffer per thread: 2
  We computed 31147526 shell quartets total.
  Whereas there are 38531031 unique shell quartets.

  ==> DiskJK: Disk-Based J/K Matrices <==

    J tasked:                  Yes
    K tasked:                  Yes
    wK tasked:                  No
    Memory [MiB]:              375
    Schwarz Cutoff:          1E-12

    OpenMP threads:              1

  Minimum eigenvalue in the overlap matrix is 2.9878963036E-04.
  Using Symmetric Orthogonalization.

  SCF Guess: Superposition of Atomic Densities via on-the-fly atomic UHF.

  ==> Iterations <==

                        Total Energy        Delta E     RMS |[F,P]|

   @RHF iter SAD:  -538.51967684820306   -5.38520e+02   0.00000e+00
   @RHF iter   1:  -539.22220847174719   -7.02532e-01   2.32909e-03 DIIS
   @RHF iter   2:  -539.47754941555968   -2.55341e-01   9.58358e-04 DIIS
   @RHF iter   3:  -539.51573543754625   -3.81860e-02   2.17499e-04 DIIS
   @RHF iter   4:  -539.51892594036008   -3.19050e-03   4.99035e-05 DIIS
   @RHF iter   5:  -539.51904907715198   -1.23137e-04   1.54191e-05 DIIS
   @RHF iter   6:  -539.51906013423275   -1.10571e-05   4.53863e-06 DIIS
   @RHF iter   7:  -539.51906128310975   -1.14888e-06   1.10926e-06 DIIS
   @RHF iter   8:  -539.51906136742446   -8.43147e-08   2.85811e-07 DIIS
   @RHF iter   9:  -539.51906137714786   -9.72341e-09   1.23097e-07 DIIS
   @RHF iter  10:  -539.51906137891399   -1.76613e-09   5.74843e-08 DIIS
   @RHF iter  11:  -539.51906137955052   -6.36533e-10   2.44570e-08 DIIS
   @RHF iter  12:  -539.51906137968524   -1.34719e-10   1.17898e-08 DIIS
   @RHF iter  13:  -539.51906137970650   -2.12594e-11   3.96732e-09 DIIS
   @RHF iter  14:  -539.51906137971400   -7.50333e-12   1.00098e-09 DIIS
   @RHF iter  15:  -539.51906137971071    3.29692e-12   3.59753e-10 DIIS
   @RHF iter  16:  -539.51906137971105   -3.41061e-13   1.39386e-10 DIIS
   @RHF iter  17:  -539.51906137971446   -3.41061e-12   6.95979e-11 DIIS
  Energy and wave function converged.

  ==> Post-Iterations <==

    Orbital Energies [Eh]
    ---------------------

    Doubly Occupied:

       1A    -11.239251     2A    -11.236153     3A    -11.235031
       4A    -11.234542     5A    -11.230553     6A    -11.230118
       7A    -11.229954     8A    -11.229946     9A    -11.229014
      10A    -11.228118    11A    -11.227243    12A    -11.226777
      13A    -11.225907    14A    -11.224275    15A     -1.155918
      16A     -1.152275    17A     -1.047452    18A     -1.044392
      19A     -1.013272    20A     -1.008504    21A     -0.932150
      22A     -0.929657    23A     -0.827554    24A     -0.822990
      25A     -0.795864    26A     -0.792055    27A     -0.695014
      28A     -0.687519    29A     -0.634037    30A     -0.631535
      31A     -0.629668    32A     -0.625330    33A     -0.584595
      34A     -0.579112    35A     -0.577567    36A     -0.576514
      37A     -0.564263    38A     -0.560288    39A     -0.534116
      40A     -0.533006    41A     -0.489878    42A     -0.486126
      43A     -0.485598    44A     -0.482477    45A     -0.480423
      46A     -0.477475    47A     -0.333944    48A     -0.328866
      49A     -0.323736    50A     -0.319196

    Virtual:

      51A      0.131759    52A      0.140736    53A      0.142889
      54A      0.145645    55A      0.177016    56A      0.190680
      57A      0.199552    58A      0.211348    59A      0.215509
      60A      0.231264    61A      0.238547    62A      0.247935
      63A      0.257086    64A      0.262141    65A      0.273875
      66A      0.278656    67A      0.282577    68A      0.289228
      69A      0.302504    70A      0.344770    71A      0.365893
      72A      0.373195    73A      0.377693    74A      0.379707
      75A      0.441835    76A      0.452924    77A      0.466008
      78A      0.473683    79A      0.481370    80A      0.485700
      81A      0.496436    82A      0.512403    83A      0.559457
      84A      0.574301    85A      0.594740    86A      0.603843
      87A      0.637183    88A      0.638650    89A      0.667543
      90A      0.676052    91A      0.685328    92A      0.694567
      93A      0.696353    94A      0.707140    95A      0.716500
      96A      0.717927    97A      0.726088    98A      0.739248
      99A      0.743330   100A      0.745442   101A      0.748635
     102A      0.749694   103A      0.754435   104A      0.761193
     105A      0.769435   106A      0.774073   107A      0.778679
     108A      0.782597   109A      0.790183   110A      0.814151
     111A      0.831322   112A      0.847417   113A      0.851981
     114A      0.865685   115A      0.873510   116A      0.875844
     117A      0.879295   118A      0.886839   119A      0.889191
     120A      0.897896   121A      0.899340   122A      0.902770
     123A      0.918517   124A      0.924707   125A      0.929846
     126A      0.935537   127A      0.939160   128A      0.940749
     129A      0.946714   130A      0.964311   131A      0.993639
     132A      1.007394   133A      1.010823   134A      1.029826
     135A      1.048708   136A      1.067520   137A      1.113617
     138A      1.124960   139A      1.136861   140A      1.147836
     141A      1.155050   142A      1.161603   143A      1.163997
     144A      1.179130   145A      1.204962   146A      1.220240
     147A      1.225727   148A      1.240669   149A      1.252534
     150A      1.253301   151A      1.258448   152A      1.264780
     153A      1.266753   154A      1.286895   155A      1.301900
     156A      1.302822   157A      1.308916   158A      1.311625
     159A      1.324536   160A      1.328847   161A      1.334258
     162A      1.356017   163A      1.415008   164A      1.418775
     165A      1.508323   166A      1.518123   167A      1.521931
     168A      1.536390   169A      1.560349   170A      1.569277
     171A      1.606736   172A      1.619907   173A      1.664998
     174A      1.676385   175A      1.699336   176A      1.705119
     177A      1.738442   178A      1.743946   179A      1.747434
     180A      1.749670   181A      1.765321   182A      1.767524
     183A      1.792987   184A      1.793941   185A      1.815761
     186A      1.817016   187A      1.870205   188A      1.872780
     189A      1.886819   190A      1.888264   191A      1.897312
     192A      1.902536   193A      1.907749   194A      1.917982
     195A      1.920072   196A      1.922255   197A      1.925774
     198A      1.932095   199A      1.943361   200A      1.952170
     201A      1.952579   202A      1.956542   203A      1.971511
     204A      1.981190   205A      1.985663   206A      1.988912
     207A      2.001653   208A      2.020784   209A      2.042130
     210A      2.050675   211A      2.063342   212A      2.072181
     213A      2.073901   214A      2.079458   215A      2.110290
     216A      2.122918   217A      2.141322   218A      2.148730
     219A      2.156699   220A      2.166275   221A      2.170331
     222A      2.177376   223A      2.182450   224A      2.190939
     225A      2.197202   226A      2.221477   227A      2.254648
     228A      2.270948   229A      2.279336   230A      2.287426
     231A      2.294112   232A      2.296705   233A      2.303092
     234A      2.307866   235A      2.316683   236A      2.325587
     237A      2.343130   238A      2.350077   239A      2.466789
     240A      2.469377   241A      2.481029   242A      2.493887
     243A      2.501793   244A      2.509389   245A      2.545535
     246A      2.548042   247A      2.628140   248A      2.632543
     249A      2.742246   250A      2.750068   251A      2.759021
     252A      2.769013   253A      2.770117   254A      2.776730
     255A      2.796893   256A      2.804123   257A      2.812560
     258A      2.828565   259A      2.846060   260A      2.850650
     261A      2.878836   262A      2.892097   263A      2.990176
     264A      2.998429   265A      3.013064   266A      3.024847
     267A      3.027477   268A      3.036485   269A      3.158913
     270A      3.164845   271A      3.211013   272A      3.217464
     273A      3.309153   274A      3.319728   275A      3.986976
     276A      3.991451

    Final Occupation by Irrep:
              A
    DOCC [    50 ]

  @RHF Final Energy:  -539.51906137971446

   => Energetics <=

    Nuclear Repulsion Energy =            754.0872649702047283
    One-Electron Energy =               -2224.4741564081082288
    Two-Electron Energy =                 930.8678300581891563
    Total Energy =                       -539.5190613797144579

Computation Completed

Properties will be evaluated at   0.000000,   0.000000,   0.000000 [a0]

Properties computed using the SCF density matrix

  Nuclear Dipole Moment: [e a0]
     X:     1.1723      Y:     1.9910      Z:     3.5191

  Electronic Dipole Moment: [e a0]
     X:    -1.0493      Y:    -1.8699      Z:    -3.4223

  Dipole Moment: [e a0]
     X:     0.1230      Y:     0.1211      Z:     0.0968     Total:     0.1979

  Dipole Moment: [D]
     X:     0.3127      Y:     0.3079      Z:     0.2460     Total:     0.5031

*** tstop() called on ds3 at Sun Apr 26 18:35:44 2020
Module time:
	user time   =     258.50 seconds =       4.31 minutes
	system time =     104.80 seconds =       1.75 minutes
	total time  =        637 seconds =      10.62 minutes
Total time:
	user time   =     258.50 seconds =       4.31 minutes
	system time =     104.80 seconds =       1.75 minutes
	total time  =        637 seconds =      10.62 minutes
                                     G D M A

                                 by Anthony Stone

                           version 2.2.06, 22 June 2011

               Distributed Multipoles from Gaussian wavefunctions

Starting at 18:35:44 on 26 Apr 2020

Using SCF density matrix from file ./SSI/SSI-052PHE-111PHE-1-dimer.test.9454.fchk

                         Distributed Multipole Analysis

Standard DMA

Positions and radii in angstrom
Multipole moments in atomic units, ea_0^k for rank k

C          x =  4.821284  y =  1.167331  z = -0.974019 angstrom
           Maximum rank =  0   Radius =  0.650 angstrom
                   Q00  =  -0.202064

C          x =  1.361284  y = -1.292669  z = -1.543019 angstrom
           Maximum rank =  0   Radius =  0.650 angstrom
                   Q00  =  -0.090794

C          x =  1.957284  y = -0.681669  z = -2.628019 angstrom
           Maximum rank =  0   Radius =  0.650 angstrom
                   Q00  =  -0.034412

C          x =  1.885284  y = -1.105669  z = -0.271019 angstrom
           Maximum rank =  0   Radius =  0.650 angstrom
                   Q00  =  -0.040444

C          x =  3.080284  y =  0.116331  z = -2.452019 angstrom
           Maximum rank =  0   Radius =  0.650 angstrom
                   Q00  =  -0.053258

C          x =  3.006284  y = -0.303669  z = -0.088019 angstrom
           Maximum rank =  0   Radius =  0.650 angstrom
                   Q00  =  -0.083310

C          x =  3.618284  y =  0.297331  z = -1.178019 angstrom
           Maximum rank =  0   Radius =  0.650 angstrom
                   Q00  =  -0.093183

H          x =  0.493284  y = -1.921669  z = -1.684019 angstrom
           Maximum rank =  0   Radius =  0.325 angstrom
                   Q00  =   0.057685

H          x =  1.551284  y = -0.834669  z = -3.617019 angstrom
           Maximum rank =  0   Radius =  0.325 angstrom
                   Q00  =   0.063277

H          x =  1.421284  y = -1.582669  z =  0.580981 angstrom
           Maximum rank =  0   Radius =  0.325 angstrom
                   Q00  =   0.062558

H          x =  3.540284  y =  0.588331  z = -3.309019 angstrom
           Maximum rank =  0   Radius =  0.325 angstrom
                   Q00  =   0.055946

H          x =  3.402284  y = -0.155669  z =  0.904981 angstrom
           Maximum rank =  0   Radius =  0.325 angstrom
                   Q00  =   0.058445

H          x =  5.550284  y =  0.959331  z = -1.756019 angstrom
           Maximum rank =  0   Radius =  0.325 angstrom
                   Q00  =   0.099263

H          x =  5.281284  y =  0.896331  z = -0.022019 angstrom
           Maximum rank =  0   Radius =  0.325 angstrom
                   Q00  =   0.094827

H          x =  4.584600  y =  2.241401  z = -0.955319 angstrom
           Maximum rank =  0   Radius =  0.325 angstrom
                   Q00  =   0.105420

C          x = -4.029716  y =  0.265331  z =  3.438981 angstrom
           Maximum rank =  0   Radius =  0.650 angstrom
                   Q00  =  -0.203364

C          x = -1.935716  y =  0.231331  z = -0.310019 angstrom
           Maximum rank =  0   Radius =  0.650 angstrom
                   Q00  =  -0.070210

C          x = -1.680716  y = -0.741669  z =  0.632981 angstrom
           Maximum rank =  0   Radius =  0.650 angstrom
                   Q00  =  -0.072618

C          x = -2.888716  y =  1.199331  z = -0.049019 angstrom
           Maximum rank =  0   Radius =  0.650 angstrom
                   Q00  =  -0.022507

C          x = -2.373716  y = -0.748669  z =  1.837981 angstrom
           Maximum rank =  0   Radius =  0.650 angstrom
                   Q00  =  -0.030784

C          x = -3.582716  y =  1.202331  z =  1.160981 angstrom
           Maximum rank =  0   Radius =  0.650 angstrom
                   Q00  =  -0.089144

C          x = -3.343716  y =  0.216331  z =  2.106981 angstrom
           Maximum rank =  0   Radius =  0.650 angstrom
                   Q00  =  -0.097918

H          x = -1.388716  y =  0.249331  z = -1.243019 angstrom
           Maximum rank =  0   Radius =  0.325 angstrom
                   Q00  =   0.063542

H          x = -0.945716  y = -1.506669  z =  0.432981 angstrom
           Maximum rank =  0   Radius =  0.325 angstrom
                   Q00  =   0.055060

H          x = -3.103716  y =  1.950331  z = -0.796019 angstrom
           Maximum rank =  0   Radius =  0.325 angstrom
                   Q00  =   0.062071

H          x = -2.162716  y = -1.521669  z =  2.560981 angstrom
           Maximum rank =  0   Radius =  0.325 angstrom
                   Q00  =   0.052526

H          x = -4.321716  y =  1.959331  z =  1.350981 angstrom
           Maximum rank =  0   Radius =  0.325 angstrom
                   Q00  =   0.054898

H          x = -4.180716  y = -0.752669  z =  3.800981 angstrom
           Maximum rank =  0   Radius =  0.325 angstrom
                   Q00  =   0.096919

H          x = -5.016716  y =  0.716331  z =  3.323981 angstrom
           Maximum rank =  0   Radius =  0.325 angstrom
                   Q00  =   0.096767

H          x = -3.454072  y =  0.838821  z =  4.180431 angstrom
           Maximum rank =  0   Radius =  0.325 angstrom
                   Q00  =   0.104806

Total multipoles referred to origin at
           x =   0.000000,  y =    0.000000,  z =    0.000000 angstrom
                   Q00  =  -0.000000

Finished at 18:35:44 on 26 Apr 2020

  DMA results are available in the Python driver through the
	  variable('DMA DISTRIBUTED MULTIPOLES')
  and
	  variable('DMA TOTAL MULTIPOLES')
  commands.

    Psi4 stopped on: Sunday, 26 April 2020 06:35PM
    Psi4 wall time for execution: 0:10:37.43

*** Psi4 exiting successfully. Buy a developer a beer!
