                               Psi4 1.3.2 release

  ==> Input File <==

--------------------------------------------------------------------------
import numpy as np
set {scf_type pk
basis cc-pvdz
d_convergence 10
gdma_switch   0
gdma_limit    0
gdma_origin   [ 0.0,  0.0,  0.0 ]
}
molecule test {
    units Angstrom
    0 1
    --
    0 1
    C                0.893097466507828    -1.986409287553069    -0.737357127057418
    C                1.534097466507828    -1.643409287553070    -2.074357127057417
    H                1.416097466507829    -1.486409287553070     0.079642872942582
    H               -0.135902533492172    -1.640409287553070    -0.774357127057418
    H                0.884097466507828    -3.062409287553070    -0.565357127057418
    H                1.029097466507828    -2.218409287553070    -2.850357127057418
    H                2.605707466507829    -1.891700287553070    -2.071477127057418
    H                1.388107466507828    -0.578109287553070    -2.306357127057418
    C                0.051097466507828     0.693590712446930     1.981642872942582
    C               -0.672902533492172     0.887590712446930     0.669642872942582
    O               -1.562902533492172     0.116590712446930     0.318642872942582
    N               -0.304902533492172     1.927590712446930    -0.064357127057418
    H                0.329097466507828     1.671590712446930     2.381642872942582
    H                0.968097466507828     0.137590712446930     1.785642872942582
    H               -0.792902533492172     2.107590712446930    -0.927357127057418
    H                0.411097466507828     2.557590712446930     0.267642872942582
    H               -0.558242533492172     0.162855712446930     2.727992872942583

}
e, wfn = energy('scf', return_wfn=True)
gdma(wfn)
dmavals = variable('DMA DISTRIBUTED MULTIPOLES')
charges = np.array(dmavals)
print(charges)
np.save('SSI-013VAL-154ASN-1-dimer.npy', np.array(charges))--------------------------------------------------------------------------

*** tstart() called on ds3
*** at Mon Apr 27 19:26:30 2020

   => Loading Basis Set <=

    Name: CC-PVDZ
    Role: ORBITAL
    Keyword: BASIS
    atoms 1-2, 9-10  entry C          line   138 file /theoryfs2/ds/metcalf/miniconda2/envs/tf2gpu/share/psi4/basis/cc-pvdz.gbs
    atoms 3-8, 13-17 entry H          line    22 file /theoryfs2/ds/metcalf/miniconda2/envs/tf2gpu/share/psi4/basis/cc-pvdz.gbs
    atoms 11         entry O          line   198 file /theoryfs2/ds/metcalf/miniconda2/envs/tf2gpu/share/psi4/basis/cc-pvdz.gbs
    atoms 12         entry N          line   168 file /theoryfs2/ds/metcalf/miniconda2/envs/tf2gpu/share/psi4/basis/cc-pvdz.gbs

         ---------------------------------------------------------
                                   SCF
               by Justin Turney, Rob Parrish, Andy Simmonett
                          and Daniel G. A. Smith
                              RHF Reference
                        1 Threads,    500 MiB Core
         ---------------------------------------------------------

  ==> Geometry <==

    Molecular point group: c1
    Full point group: C1

    Geometry (in Angstrom), charge = 0, multiplicity = 1:

       Center              X                  Y                   Z               Mass
    ------------   -----------------  -----------------  -----------------  -----------------
         C            0.893097466508    -1.986409287553    -0.737357127057    12.000000000000
         C            1.534097466508    -1.643409287553    -2.074357127057    12.000000000000
         H            1.416097466508    -1.486409287553     0.079642872943     1.007825032230
         H           -0.135902533492    -1.640409287553    -0.774357127057     1.007825032230
         H            0.884097466508    -3.062409287553    -0.565357127057     1.007825032230
         H            1.029097466508    -2.218409287553    -2.850357127057     1.007825032230
         H            2.605707466508    -1.891700287553    -2.071477127057     1.007825032230
         H            1.388107466508    -0.578109287553    -2.306357127057     1.007825032230
         C            0.051097466508     0.693590712447     1.981642872943    12.000000000000
         C           -0.672902533492     0.887590712447     0.669642872943    12.000000000000
         O           -1.562902533492     0.116590712447     0.318642872943    15.994914619570
         N           -0.304902533492     1.927590712447    -0.064357127057    14.003074004430
         H            0.329097466508     1.671590712447     2.381642872943     1.007825032230
         H            0.968097466508     0.137590712447     1.785642872943     1.007825032230
         H           -0.792902533492     2.107590712447    -0.927357127057     1.007825032230
         H            0.411097466508     2.557590712447     0.267642872943     1.007825032230
         H           -0.558242533492     0.162855712447     2.727992872943     1.007825032230

  Running in c1 symmetry.

  Rotational constants: A =      0.14952  B =      0.04611  C =      0.04383 [cm^-1]
  Rotational constants: A =   4482.56903  B =   1382.44929  C =   1313.86716 [MHz]
  Nuclear repulsion =  238.510486066993167

  Charge       = 0
  Multiplicity = 1
  Electrons    = 50
  Nalpha       = 25
  Nbeta        = 25

  ==> Algorithm <==

  SCF Algorithm Type is PK.
  DIIS enabled.
  MOM disabled.
  Fractional occupation disabled.
  Guess Type is SAD.
  Energy threshold   = 1.00e-06
  Density threshold  = 1.00e-10
  Integral threshold = 0.00e+00

  ==> Primary Basis <==

  Basis Set: CC-PVDZ
    Blend: CC-PVDZ
    Number of shells: 69
    Number of basis function: 139
    Number of Cartesian functions: 145
    Spherical Harmonics?: true
    Max angular momentum: 2

  ==> Pre-Iterations <==

   -------------------------------------------------------
    Irrep   Nso     Nmo     Nalpha   Nbeta   Ndocc  Nsocc
   -------------------------------------------------------
     A        139     139       0       0       0       0
   -------------------------------------------------------
    Total     139     139      25      25      25       0
   -------------------------------------------------------

  ==> Integral Setup <==

  Using integral reordering PK algorithm.
  Sizing the integral batches needed.
  Building batch lookup table.
   Calculation information:
      Number of atoms:                  17
      Number of AO shells:              69
      Number of primitives:            187
      Number of atomic orbitals:       145
      Number of basis functions:       139

      Integral cutoff                 1.00e-12
      Number of threads:                 1

	Batch   1 pq = [       0,    9730] index = [             0,47341315] size =     47341315
  Task number: 5
  Buffer size: 11059200
  Buffer per thread: 2
  We computed 2687590 shell quartets total.
  Whereas there are 2917320 unique shell quartets.

  ==> DiskJK: Disk-Based J/K Matrices <==

    J tasked:                  Yes
    K tasked:                  Yes
    wK tasked:                  No
    Memory [MiB]:              375
    Schwarz Cutoff:          1E-12

    OpenMP threads:              1

  Minimum eigenvalue in the overlap matrix is 4.4776007094E-03.
  Using Symmetric Orthogonalization.

  SCF Guess: Superposition of Atomic Densities via on-the-fly atomic UHF.

  ==> Iterations <==

                        Total Energy        Delta E     RMS |[F,P]|

   @RHF iter SAD:  -285.96974950849540   -2.85970e+02   0.00000e+00
   @RHF iter   1:  -286.99614427933182   -1.02639e+00   4.62846e-03 DIIS
   @RHF iter   2:  -287.17243517082818   -1.76291e-01   2.57359e-03 DIIS
   @RHF iter   3:  -287.22171499535352   -4.92798e-02   5.39699e-04 DIIS
   @RHF iter   4:  -287.22504194011651   -3.32694e-03   2.19030e-04 DIIS
   @RHF iter   5:  -287.22563613294994   -5.94193e-04   3.36660e-05 DIIS
   @RHF iter   6:  -287.22566511245680   -2.89795e-05   1.50536e-05 DIIS
   @RHF iter   7:  -287.22566963831770   -4.52586e-06   6.02563e-06 DIIS
   @RHF iter   8:  -287.22567064827348   -1.00996e-06   2.10825e-06 DIIS
   @RHF iter   9:  -287.22567077843632   -1.30163e-07   5.29727e-07 DIIS
   @RHF iter  10:  -287.22567078445269   -6.01636e-09   1.66760e-07 DIIS
   @RHF iter  11:  -287.22567078510832   -6.55632e-10   3.71635e-08 DIIS
   @RHF iter  12:  -287.22567078514146   -3.31397e-11   8.21894e-09 DIIS
   @RHF iter  13:  -287.22567078514442   -2.95586e-12   1.58243e-09 DIIS
   @RHF iter  14:  -287.22567078514368    7.38964e-13   6.19387e-10 DIIS
   @RHF iter  15:  -287.22567078514453   -8.52651e-13   2.06208e-10 DIIS
   @RHF iter  16:  -287.22567078514516   -6.25278e-13   5.25350e-11 DIIS
  Energy and wave function converged.

  ==> Post-Iterations <==

    Orbital Energies [Eh]
    ---------------------

    Doubly Occupied:

       1A    -20.504035     2A    -15.591611     3A    -11.348559
       4A    -11.242753     5A    -11.211234     6A    -11.202158
       7A     -1.368976     8A     -1.219967     9A     -1.010428
      10A     -1.001734    11A     -0.826030    12A     -0.801411
      13A     -0.730721    14A     -0.655736    15A     -0.617554
      16A     -0.591548    17A     -0.586170    18A     -0.571194
      19A     -0.558607    20A     -0.523926    21A     -0.491723
      22A     -0.475958    23A     -0.473025    24A     -0.410448
      25A     -0.404122

    Virtual:

      26A      0.157502    27A      0.188261    28A      0.204979
      29A      0.210463    30A      0.228973    31A      0.256782
      32A      0.259099    33A      0.265394    34A      0.274717
      35A      0.290976    36A      0.315582    37A      0.364396
      38A      0.396638    39A      0.406101    40A      0.477160
      41A      0.537664    42A      0.599686    43A      0.606881
      44A      0.614115    45A      0.634516    46A      0.652391
      47A      0.685491    48A      0.695653    49A      0.709907
      50A      0.729398    51A      0.749461    52A      0.813875
      53A      0.848042    54A      0.870063    55A      0.878175
      56A      0.891543    57A      0.896541    58A      0.901965
      59A      0.916245    60A      0.925074    61A      0.940488
      62A      0.949111    63A      0.968799    64A      0.997293
      65A      1.019541    66A      1.037213    67A      1.057995
      68A      1.122768    69A      1.132463    70A      1.138453
      71A      1.186500    72A      1.254232    73A      1.323784
      74A      1.348171    75A      1.394154    76A      1.403056
      77A      1.448693    78A      1.462283    79A      1.484500
      80A      1.491934    81A      1.507376    82A      1.591810
      83A      1.651598    84A      1.668712    85A      1.689246
      86A      1.725937    87A      1.736826    88A      1.816848
      89A      1.858247    90A      1.868183    91A      1.879747
      92A      1.884956    93A      1.902386    94A      1.909905
      95A      1.925832    96A      1.952291    97A      1.955564
      98A      1.959938    99A      1.967161   100A      1.979224
     101A      1.990507   102A      2.018940   103A      2.045904
     104A      2.075631   105A      2.116920   106A      2.141977
     107A      2.194537   108A      2.216916   109A      2.265309
     110A      2.307618   111A      2.324583   112A      2.434264
     113A      2.454899   114A      2.467290   115A      2.475774
     116A      2.503516   117A      2.554749   118A      2.566103
     119A      2.574960   120A      2.595262   121A      2.618490
     122A      2.717797   123A      2.756240   124A      2.770795
     125A      2.799933   126A      2.811345   127A      2.862975
     128A      2.863636   129A      2.871076   130A      2.967260
     131A      2.987420   132A      2.995181   133A      3.100866
     134A      3.135829   135A      3.284634   136A      3.505702
     137A      3.539783   138A      3.866693   139A      3.912873

    Final Occupation by Irrep:
              A
    DOCC [    25 ]

  @RHF Final Energy:  -287.22567078514516

   => Energetics <=

    Nuclear Repulsion Energy =            238.5104860669931668
    One-Electron Energy =                -862.6330571816359907
    Two-Electron Energy =                 336.8969003294976687
    Total Energy =                       -287.2256707851451552

Computation Completed

Properties will be evaluated at   0.000000,   0.000000,   0.000000 [a0]

Properties computed using the SCF density matrix

  Nuclear Dipole Moment: [e a0]
     X:     7.0660      Y:    -3.9801      Z:    -2.1101

  Electronic Dipole Moment: [e a0]
     X:    -6.0442      Y:     5.2484      Z:     2.3646

  Dipole Moment: [e a0]
     X:     1.0218      Y:     1.2682      Z:     0.2545     Total:     1.6484

  Dipole Moment: [D]
     X:     2.5972      Y:     3.2236      Z:     0.6468     Total:     4.1899

*** tstop() called on ds3 at Mon Apr 27 19:26:58 2020
Module time:
	user time   =      17.59 seconds =       0.29 minutes
	system time =       6.50 seconds =       0.11 minutes
	total time  =         28 seconds =       0.47 minutes
Total time:
	user time   =      17.59 seconds =       0.29 minutes
	system time =       6.50 seconds =       0.11 minutes
	total time  =         28 seconds =       0.47 minutes
                                     G D M A

                                 by Anthony Stone

                           version 2.2.06, 22 June 2011

               Distributed Multipoles from Gaussian wavefunctions

Starting at 19:26:58 on 27 Apr 2020

Using SCF density matrix from file ./SSI/SSI-013VAL-154ASN-1-dimer.test.6379.fchk

                         Distributed Multipole Analysis

Standard DMA

Positions and radii in angstrom
Multipole moments in atomic units, ea_0^k for rank k

C          x =  0.893097  y = -1.986409  z = -0.737357 angstrom
           Maximum rank =  0   Radius =  0.650 angstrom
                   Q00  =  -0.237408

C          x =  1.534097  y = -1.643409  z = -2.074357 angstrom
           Maximum rank =  0   Radius =  0.650 angstrom
                   Q00  =  -0.227673

H          x =  1.416097  y = -1.486409  z =  0.079643 angstrom
           Maximum rank =  0   Radius =  0.325 angstrom
                   Q00  =   0.058630

H          x = -0.135903  y = -1.640409  z = -0.774357 angstrom
           Maximum rank =  0   Radius =  0.325 angstrom
                   Q00  =   0.105821

H          x =  0.884097  y = -3.062409  z = -0.565357 angstrom
           Maximum rank =  0   Radius =  0.325 angstrom
                   Q00  =   0.076678

H          x =  1.029097  y = -2.218409  z = -2.850357 angstrom
           Maximum rank =  0   Radius =  0.325 angstrom
                   Q00  =   0.079111

H          x =  2.605707  y = -1.891700  z = -2.071477 angstrom
           Maximum rank =  0   Radius =  0.325 angstrom
                   Q00  =   0.069672

H          x =  1.388107  y = -0.578109  z = -2.306357 angstrom
           Maximum rank =  0   Radius =  0.325 angstrom
                   Q00  =   0.069583

C          x =  0.051097  y =  0.693591  z =  1.981643 angstrom
           Maximum rank =  0   Radius =  0.650 angstrom
                   Q00  =  -0.262762

C          x = -0.672903  y =  0.887591  z =  0.669643 angstrom
           Maximum rank =  0   Radius =  0.650 angstrom
                   Q00  =   0.824825

O          x = -1.562903  y =  0.116591  z =  0.318643 angstrom
           Maximum rank =  0   Radius =  0.650 angstrom
                   Q00  =  -0.792005

N          x = -0.304903  y =  1.927591  z = -0.064357 angstrom
           Maximum rank =  0   Radius =  0.650 angstrom
                   Q00  =  -0.531594

H          x =  0.329097  y =  1.671591  z =  2.381643 angstrom
           Maximum rank =  0   Radius =  0.325 angstrom
                   Q00  =   0.078379

H          x =  0.968097  y =  0.137591  z =  1.785643 angstrom
           Maximum rank =  0   Radius =  0.325 angstrom
                   Q00  =   0.126845

H          x = -0.792903  y =  2.107591  z = -0.927357 angstrom
           Maximum rank =  0   Radius =  0.325 angstrom
                   Q00  =   0.223082

H          x =  0.411097  y =  2.557591  z =  0.267643 angstrom
           Maximum rank =  0   Radius =  0.325 angstrom
                   Q00  =   0.205966

H          x = -0.558243  y =  0.162856  z =  2.727993 angstrom
           Maximum rank =  0   Radius =  0.325 angstrom
                   Q00  =   0.132850

Total multipoles referred to origin at
           x =   0.000000,  y =    0.000000,  z =    0.000000 angstrom
                   Q00  =  -0.000000

Finished at 19:26:58 on 27 Apr 2020

  DMA results are available in the Python driver through the
	  variable('DMA DISTRIBUTED MULTIPOLES')
  and
	  variable('DMA TOTAL MULTIPOLES')
  commands.

    Psi4 stopped on: Monday, 27 April 2020 07:26PM
    Psi4 wall time for execution: 0:00:27.34

*** Psi4 exiting successfully. Buy a developer a beer!
