                               Psi4 1.3.2 release

  ==> Input File <==

--------------------------------------------------------------------------
import numpy as np
set {scf_type pk
basis cc-pvdz
d_convergence 10
gdma_switch   0
gdma_limit    0
gdma_origin   [ 0.0,  0.0,  0.0 ]
}
molecule test {
    units Angstrom
    0 1
    --
    0 1
    C               -1.813954828738407     1.782141118583855     1.749437785099964
    C               -3.077954828738407     0.918141118583855     1.553437785099964
    C               -2.015954828738407     3.076141118583855     2.551437785099965
    H               -1.047954828738407     1.179141118583855     2.240437785099965
    H               -1.434954828738407     2.058141118583855     0.764437785099964
    H               -3.911954828738407     1.525141118583855     1.218437785099964
    H               -2.422954828738407     2.852141118583855     3.528437785099964
    H               -3.356211828738407     0.383555718583855     2.473650785099964
    H               -2.899478828738407     0.165217688583855     0.771611385099964
    H               -1.059539628738407     3.603597118583855     2.682052785099964
    H               -2.749708828738407     3.731666118583855     2.059612785099964
    C                2.140045171261593    -3.095858881416145    -0.538562214900036
    C                0.333045171261593     0.732141118583855    -1.243562214900036
    C                0.198045171261593    -0.302858881416145    -2.145562214900035
    C                1.036045171261593     0.514141118583855    -0.079562214900036
    C                0.782045171261593    -1.535858881416145    -1.932562214900036
    C                1.617045171261593    -0.730858881416145     0.134437785099964
    C                1.534045171261593    -1.753858881416145    -0.800562214900036
    H               -0.147954828738407     1.682141118583855    -1.428562214900036
    H               -0.411954828738407    -0.181858881416145    -3.021562214900035
    H                1.130045171261593     1.295141118583855     0.661437785099964
    H                0.622045171261593    -2.326858881416145    -2.648562214900036
    H                2.136045171261593    -0.906858881416145     1.060437785099964
    H                1.393045171261593    -3.834858881416145    -0.726562214900036
    H                2.449045171261593    -3.163858881416145     0.505437785099964
    H                2.991265171261593    -3.339473881416145    -1.191307214900036

}
e, wfn = energy('scf', return_wfn=True)
gdma(wfn)
dmavals = variable('DMA DISTRIBUTED MULTIPOLES')
charges = np.array(dmavals)
print(charges)
np.save('SSI-045LEU-054PHE-1-dimer.npy', np.array(charges))--------------------------------------------------------------------------

*** tstart() called on ds3
*** at Tue Apr 28 14:09:46 2020

   => Loading Basis Set <=

    Name: CC-PVDZ
    Role: ORBITAL
    Keyword: BASIS
    atoms 1-3, 12-18  entry C          line   138 file /theoryfs2/ds/metcalf/miniconda2/envs/tf2gpu/share/psi4/basis/cc-pvdz.gbs
    atoms 4-11, 19-26 entry H          line    22 file /theoryfs2/ds/metcalf/miniconda2/envs/tf2gpu/share/psi4/basis/cc-pvdz.gbs

         ---------------------------------------------------------
                                   SCF
               by Justin Turney, Rob Parrish, Andy Simmonett
                          and Daniel G. A. Smith
                              RHF Reference
                        1 Threads,    500 MiB Core
         ---------------------------------------------------------

  ==> Geometry <==

    Molecular point group: c1
    Full point group: C1

    Geometry (in Angstrom), charge = 0, multiplicity = 1:

       Center              X                  Y                   Z               Mass
    ------------   -----------------  -----------------  -----------------  -----------------
         C           -1.813954828738     1.782141118584     1.749437785100    12.000000000000
         C           -3.077954828738     0.918141118584     1.553437785100    12.000000000000
         C           -2.015954828738     3.076141118584     2.551437785100    12.000000000000
         H           -1.047954828738     1.179141118584     2.240437785100     1.007825032230
         H           -1.434954828738     2.058141118584     0.764437785100     1.007825032230
         H           -3.911954828738     1.525141118584     1.218437785100     1.007825032230
         H           -2.422954828738     2.852141118584     3.528437785100     1.007825032230
         H           -3.356211828738     0.383555718584     2.473650785100     1.007825032230
         H           -2.899478828738     0.165217688584     0.771611385100     1.007825032230
         H           -1.059539628738     3.603597118584     2.682052785100     1.007825032230
         H           -2.749708828738     3.731666118584     2.059612785100     1.007825032230
         C            2.140045171262    -3.095858881416    -0.538562214900    12.000000000000
         C            0.333045171262     0.732141118584    -1.243562214900    12.000000000000
         C            0.198045171262    -0.302858881416    -2.145562214900    12.000000000000
         C            1.036045171262     0.514141118584    -0.079562214900    12.000000000000
         C            0.782045171262    -1.535858881416    -1.932562214900    12.000000000000
         C            1.617045171262    -0.730858881416     0.134437785100    12.000000000000
         C            1.534045171262    -1.753858881416    -0.800562214900    12.000000000000
         H           -0.147954828738     1.682141118584    -1.428562214900     1.007825032230
         H           -0.411954828738    -0.181858881416    -3.021562214900     1.007825032230
         H            1.130045171262     1.295141118584     0.661437785100     1.007825032230
         H            0.622045171262    -2.326858881416    -2.648562214900     1.007825032230
         H            2.136045171262    -0.906858881416     1.060437785100     1.007825032230
         H            1.393045171262    -3.834858881416    -0.726562214900     1.007825032230
         H            2.449045171262    -3.163858881416     0.505437785100     1.007825032230
         H            2.991265171262    -3.339473881416    -1.191307214900     1.007825032230

  Running in c1 symmetry.

  Rotational constants: A =      0.07482  B =      0.01579  C =      0.01527 [cm^-1]
  Rotational constants: A =   2243.00124  B =    473.23763  C =    457.65540 [MHz]
  Nuclear repulsion =  481.514794586902269

  Charge       = 0
  Multiplicity = 1
  Electrons    = 76
  Nalpha       = 38
  Nbeta        = 38

  ==> Algorithm <==

  SCF Algorithm Type is PK.
  DIIS enabled.
  MOM disabled.
  Fractional occupation disabled.
  Guess Type is SAD.
  Energy threshold   = 1.00e-06
  Density threshold  = 1.00e-10
  Integral threshold = 0.00e+00

  ==> Primary Basis <==

  Basis Set: CC-PVDZ
    Blend: CC-PVDZ
    Number of shells: 108
    Number of basis function: 220
    Number of Cartesian functions: 230
    Spherical Harmonics?: true
    Max angular momentum: 2

  ==> Pre-Iterations <==

   -------------------------------------------------------
    Irrep   Nso     Nmo     Nalpha   Nbeta   Ndocc  Nsocc
   -------------------------------------------------------
     A        220     220       0       0       0       0
   -------------------------------------------------------
    Total     220     220      38      38      38       0
   -------------------------------------------------------

  ==> Integral Setup <==

  Using integral reordering PK algorithm.
  Sizing the integral batches needed.
  Building batch lookup table.
   Calculation information:
      Number of atoms:                  26
      Number of AO shells:             108
      Number of primitives:            300
      Number of atomic orbitals:       230
      Number of basis functions:       220

      Integral cutoff                 1.00e-12
      Number of threads:                 1

	Batch   1 pq = [       0,    9405] index = [             0,44231715] size =     44231715
	Batch   2 pq = [    9405,   13301] index = [      44231715,88464951] size =     44233236
	Batch   3 pq = [   13301,   16290] index = [      88464951,132690195] size =     44225244
	Batch   4 pq = [   16290,   18810] index = [     132690195,176917455] size =     44227260
	Batch   5 pq = [   18810,   21030] index = [     176917455,221140965] size =     44223510
	Batch   6 pq = [   21030,   23037] index = [     221140965,265363203] size =     44222238
	Batch   7 pq = [   23037,   24310] index = [     265363203,295500205] size =     30137002
  Task number: 27
  Buffer size: 11059200
  Buffer per thread: 2
  We computed 14357685 shell quartets total.
  Whereas there are 17325441 unique shell quartets.

  ==> DiskJK: Disk-Based J/K Matrices <==

    J tasked:                  Yes
    K tasked:                  Yes
    wK tasked:                  No
    Memory [MiB]:              375
    Schwarz Cutoff:          1E-12

    OpenMP threads:              1

  Minimum eigenvalue in the overlap matrix is 2.9283650967E-04.
  Using Symmetric Orthogonalization.

  SCF Guess: Superposition of Atomic Densities via on-the-fly atomic UHF.

  ==> Iterations <==

                        Total Energy        Delta E     RMS |[F,P]|

   @RHF iter SAD:  -386.98296965427784   -3.86983e+02   0.00000e+00
   @RHF iter   1:  -387.76750984520226   -7.84540e-01   2.76955e-03 DIIS
   @RHF iter   2:  -387.98873461780636   -2.21225e-01   1.16573e-03 DIIS
   @RHF iter   3:  -388.02438051694685   -3.56459e-02   2.50655e-04 DIIS
   @RHF iter   4:  -388.02727180800775   -2.89129e-03   5.28689e-05 DIIS
   @RHF iter   5:  -388.02736363824766   -9.18302e-05   1.64149e-05 DIIS
   @RHF iter   6:  -388.02737210572161   -8.46747e-06   4.94720e-06 DIIS
   @RHF iter   7:  -388.02737295633858   -8.50617e-07   1.19816e-06 DIIS
   @RHF iter   8:  -388.02737301326562   -5.69270e-08   2.62754e-07 DIIS
   @RHF iter   9:  -388.02737301812442   -4.85880e-09   8.94735e-08 DIIS
   @RHF iter  10:  -388.02737301879768   -6.73253e-10   3.92163e-08 DIIS
   @RHF iter  11:  -388.02737301897218   -1.74509e-10   1.48865e-08 DIIS
   @RHF iter  12:  -388.02737301900925   -3.70619e-11   6.33944e-09 DIIS
   @RHF iter  13:  -388.02737301901630   -7.04858e-12   2.51524e-09 DIIS
   @RHF iter  14:  -388.02737301901533    9.66338e-13   5.66981e-10 DIIS
   @RHF iter  15:  -388.02737301901709   -1.76215e-12   1.66154e-10 DIIS
   @RHF iter  16:  -388.02737301901612    9.66338e-13   6.59833e-11 DIIS
  Energy and wave function converged.

  ==> Post-Iterations <==

    Orbital Energies [Eh]
    ---------------------

    Doubly Occupied:

       1A    -11.236629     2A    -11.232586     3A    -11.230232
       4A    -11.227575     5A    -11.227095     6A    -11.226170
       7A    -11.225427     8A    -11.218793     9A    -11.215695
      10A    -11.214466    11A     -1.159156    12A     -1.050078
      13A     -1.044917    14A     -1.013033    15A     -0.935383
      16A     -0.922654    17A     -0.826684    18A     -0.798209
      19A     -0.795425    20A     -0.694228    21A     -0.635621
      22A     -0.628605    23A     -0.618989    24A     -0.588669
      25A     -0.581370    26A     -0.576016    27A     -0.566641
      28A     -0.546881    29A     -0.539437    30A     -0.529701
      31A     -0.491000    32A     -0.486060    33A     -0.481293
      34A     -0.470134    35A     -0.466772    36A     -0.462012
      37A     -0.332019    38A     -0.324151

    Virtual:

      39A      0.137550    40A      0.143880    41A      0.172095
      42A      0.191829    43A      0.206427    44A      0.209942
      45A      0.228244    46A      0.230642    47A      0.244097
      48A      0.256599    49A      0.262301    50A      0.265989
      51A      0.280737    52A      0.288563    53A      0.291276
      54A      0.301772    55A      0.306602    56A      0.335328
      57A      0.366500    58A      0.378274    59A      0.383516
      60A      0.429414    61A      0.461588    62A      0.467954
      63A      0.485310    64A      0.507253    65A      0.567740
      66A      0.576121    67A      0.593657    68A      0.604480
      69A      0.610509    70A      0.621994    71A      0.623633
      72A      0.647424    73A      0.692187    74A      0.695254
      75A      0.706384    76A      0.727972    77A      0.741475
      78A      0.749422    79A      0.753327    80A      0.761714
      81A      0.775240    82A      0.776276    83A      0.792470
      84A      0.802325    85A      0.814671    86A      0.829301
      87A      0.853983    88A      0.858939    89A      0.866486
      90A      0.879160    91A      0.881524    92A      0.893737
      93A      0.896509    94A      0.902179    95A      0.905043
      96A      0.911846    97A      0.915348    98A      0.922775
      99A      0.929853   100A      0.933008   101A      0.947037
     102A      0.949912   103A      0.963468   104A      0.973196
     105A      0.992058   106A      1.005044   107A      1.015819
     108A      1.059937   109A      1.112608   110A      1.121073
     111A      1.142224   112A      1.150400   113A      1.160587
     114A      1.170598   115A      1.194632   116A      1.219294
     117A      1.233257   118A      1.245434   119A      1.263322
     120A      1.269795   121A      1.309552   122A      1.316902
     123A      1.329421   124A      1.340010   125A      1.379676
     126A      1.415859   127A      1.465555   128A      1.486416
     129A      1.519738   130A      1.521182   131A      1.533291
     132A      1.553334   133A      1.607324   134A      1.653197
     135A      1.672878   136A      1.675786   137A      1.692479
     138A      1.693917   139A      1.710104   140A      1.740186
     141A      1.761294   142A      1.768175   143A      1.798942
     144A      1.819996   145A      1.856564   146A      1.862888
     147A      1.882682   148A      1.884110   149A      1.899346
     150A      1.905698   151A      1.915815   152A      1.920514
     153A      1.921957   154A      1.929021   155A      1.938487
     156A      1.952849   157A      1.955950   158A      1.960872
     159A      1.964606   160A      1.966652   161A      1.978835
     162A      1.983540   163A      1.999541   164A      2.004904
     165A      2.011378   166A      2.030937   167A      2.033998
     168A      2.044950   169A      2.060137   170A      2.090869
     171A      2.116936   172A      2.124327   173A      2.150146
     174A      2.156982   175A      2.171101   176A      2.185076
     177A      2.191569   178A      2.215527   179A      2.253900
     180A      2.275560   181A      2.279387   182A      2.296918
     183A      2.311373   184A      2.319065   185A      2.334215
     186A      2.344102   187A      2.349187   188A      2.367542
     189A      2.456718   190A      2.480588   191A      2.490493
     192A      2.530963   193A      2.542321   194A      2.550287
     195A      2.587673   196A      2.608411   197A      2.632038
     198A      2.641672   199A      2.741215   200A      2.756809
     201A      2.763290   202A      2.768746   203A      2.781760
     204A      2.788299   205A      2.807464   206A      2.812890
     207A      2.831897   208A      2.868133   209A      2.894572
     210A      2.917254   211A      2.963811   212A      2.986849
     213A      3.003130   214A      3.023432   215A      3.055578
     216A      3.068634   217A      3.186627   218A      3.231399
     219A      3.326602   220A      4.003580

    Final Occupation by Irrep:
              A
    DOCC [    38 ]

  @RHF Final Energy:  -388.02737301901612

   => Energetics <=

    Nuclear Repulsion Energy =            481.5147945869022692
    One-Electron Energy =               -1477.4447196234225430
    Two-Electron Energy =                 607.9025520175040356
    Total Energy =                       -388.0273730190161814

Computation Completed

Properties will be evaluated at   0.000000,   0.000000,   0.000000 [a0]

Properties computed using the SCF density matrix

  Nuclear Dipole Moment: [e a0]
     X:    -8.1758      Y:     4.4268      Z:     8.3898

  Electronic Dipole Moment: [e a0]
     X:     8.2111      Y:    -4.6165      Z:    -8.3971

  Dipole Moment: [e a0]
     X:     0.0353      Y:    -0.1896      Z:    -0.0073     Total:     0.1930

  Dipole Moment: [D]
     X:     0.0897      Y:    -0.4820      Z:    -0.0185     Total:     0.4906

*** tstop() called on ds3 at Tue Apr 28 14:12:10 2020
Module time:
	user time   =     105.56 seconds =       1.76 minutes
	system time =      45.57 seconds =       0.76 minutes
	total time  =        144 seconds =       2.40 minutes
Total time:
	user time   =     105.56 seconds =       1.76 minutes
	system time =      45.57 seconds =       0.76 minutes
	total time  =        144 seconds =       2.40 minutes
                                     G D M A

                                 by Anthony Stone

                           version 2.2.06, 22 June 2011

               Distributed Multipoles from Gaussian wavefunctions

Starting at 14:12:10 on 28 Apr 2020

Using SCF density matrix from file ./SSI/SSI-045LEU-054PHE-1-dimer.test.29828.fchk

                         Distributed Multipole Analysis

Standard DMA

Positions and radii in angstrom
Multipole moments in atomic units, ea_0^k for rank k

C          x = -1.813955  y =  1.782141  z =  1.749438 angstrom
           Maximum rank =  0   Radius =  0.650 angstrom
                   Q00  =  -0.066703

C          x = -3.077955  y =  0.918141  z =  1.553438 angstrom
           Maximum rank =  0   Radius =  0.650 angstrom
                   Q00  =  -0.253563

C          x = -2.015955  y =  3.076141  z =  2.551438 angstrom
           Maximum rank =  0   Radius =  0.650 angstrom
                   Q00  =  -0.251560

H          x = -1.047955  y =  1.179141  z =  2.240438 angstrom
           Maximum rank =  0   Radius =  0.325 angstrom
                   Q00  =   0.048033

H          x = -1.434955  y =  2.058141  z =  0.764438 angstrom
           Maximum rank =  0   Radius =  0.325 angstrom
                   Q00  =   0.042421

H          x = -3.911955  y =  1.525141  z =  1.218438 angstrom
           Maximum rank =  0   Radius =  0.325 angstrom
                   Q00  =   0.076792

H          x = -2.422955  y =  2.852141  z =  3.528438 angstrom
           Maximum rank =  0   Radius =  0.325 angstrom
                   Q00  =   0.077259

H          x = -3.356212  y =  0.383556  z =  2.473651 angstrom
           Maximum rank =  0   Radius =  0.325 angstrom
                   Q00  =   0.079618

H          x = -2.899479  y =  0.165218  z =  0.771611 angstrom
           Maximum rank =  0   Radius =  0.325 angstrom
                   Q00  =   0.088950

H          x = -1.059540  y =  3.603597  z =  2.682053 angstrom
           Maximum rank =  0   Radius =  0.325 angstrom
                   Q00  =   0.082692

H          x = -2.749709  y =  3.731666  z =  2.059613 angstrom
           Maximum rank =  0   Radius =  0.325 angstrom
                   Q00  =   0.076303

C          x =  2.140045  y = -3.095859  z = -0.538562 angstrom
           Maximum rank =  0   Radius =  0.650 angstrom
                   Q00  =  -0.206362

C          x =  0.333045  y =  0.732141  z = -1.243562 angstrom
           Maximum rank =  0   Radius =  0.650 angstrom
                   Q00  =  -0.093822

C          x =  0.198045  y = -0.302859  z = -2.145562 angstrom
           Maximum rank =  0   Radius =  0.650 angstrom
                   Q00  =   0.033758

C          x =  1.036045  y =  0.514141  z = -0.079562 angstrom
           Maximum rank =  0   Radius =  0.650 angstrom
                   Q00  =  -0.081678

C          x =  0.782045  y = -1.535859  z = -1.932562 angstrom
           Maximum rank =  0   Radius =  0.650 angstrom
                   Q00  =  -0.095989

C          x =  1.617045  y = -0.730859  z =  0.134438 angstrom
           Maximum rank =  0   Radius =  0.650 angstrom
                   Q00  =  -0.058439

C          x =  1.534045  y = -1.753859  z = -0.800562 angstrom
           Maximum rank =  0   Radius =  0.650 angstrom
                   Q00  =  -0.093000

H          x = -0.147955  y =  1.682141  z = -1.428562 angstrom
           Maximum rank =  0   Radius =  0.325 angstrom
                   Q00  =   0.059764

H          x = -0.411955  y = -0.181859  z = -3.021562 angstrom
           Maximum rank =  0   Radius =  0.325 angstrom
                   Q00  =   0.058943

H          x =  1.130045  y =  1.295141  z =  0.661438 angstrom
           Maximum rank =  0   Radius =  0.325 angstrom
                   Q00  =   0.066901

H          x =  0.622045  y = -2.326859  z = -2.648562 angstrom
           Maximum rank =  0   Radius =  0.325 angstrom
                   Q00  =   0.052875

H          x =  2.136045  y = -0.906859  z =  1.060438 angstrom
           Maximum rank =  0   Radius =  0.325 angstrom
                   Q00  =   0.053779

H          x =  1.393045  y = -3.834859  z = -0.726562 angstrom
           Maximum rank =  0   Radius =  0.325 angstrom
                   Q00  =   0.102303

H          x =  2.449045  y = -3.163859  z =  0.505438 angstrom
           Maximum rank =  0   Radius =  0.325 angstrom
                   Q00  =   0.097656

H          x =  2.991265  y = -3.339474  z = -1.191307 angstrom
           Maximum rank =  0   Radius =  0.325 angstrom
                   Q00  =   0.103069

Total multipoles referred to origin at
           x =   0.000000,  y =    0.000000,  z =    0.000000 angstrom
                   Q00  =  -0.000000

Finished at 14:12:11 on 28 Apr 2020

  DMA results are available in the Python driver through the
	  variable('DMA DISTRIBUTED MULTIPOLES')
  and
	  variable('DMA TOTAL MULTIPOLES')
  commands.

    Psi4 stopped on: Tuesday, 28 April 2020 02:12PM
    Psi4 wall time for execution: 0:02:24.32

*** Psi4 exiting successfully. Buy a developer a beer!
