                               Psi4 1.3.2 release

  ==> Input File <==

--------------------------------------------------------------------------
import numpy as np
set {scf_type pk
basis cc-pvdz
d_convergence 10
gdma_switch   0
gdma_limit    0
gdma_origin   [ 0.0,  0.0,  0.0 ]
}
molecule test {
    units Angstrom
    1 1
    --
    1 1
    C               -0.413586285847870     1.273183713177042    -0.991991204395418
    C                1.021413714152130     1.775183713177042    -0.921991204395418
    N               -0.706586285847870     0.723183713177042    -2.344991204395418
    H               -0.557586285847870     0.501183713177042    -0.227991204395418
    H               -1.092586285847870     2.104183713177042    -0.769991204395418
    H                1.176413714152130     2.507183713177042    -1.719991204395418
    H                1.706413714152130     0.939183713177042    -1.080991204395418
    H               -0.101586285847870    -0.059816286822958    -2.571991204395418
    H               -1.661586285847870     0.386183713177042    -2.406991204395418
    H               -0.590586285847870     1.422183713177042    -3.069991204395418
    H                1.252393714152130     2.251543713177042     0.042238795604582
    C               -0.107586285847870    -1.257816286822958     1.877008795604582
    C                0.270413714152130    -2.527816286822958     2.628008795604582
    H               -0.748586285847870    -1.508816286822958     1.030008795604582
    H               -0.647586285847870    -0.582816286822958     2.539008795604582
    H                0.796413714152130    -0.760816286822958     1.518008795604582
    H                0.952413714152130    -2.260816286822958     3.431008795604582
    H                0.779463714152130    -3.220206286822958     1.941368795604582
    H               -0.621906285847870    -2.988036286822958     3.077412795604582

}
e, wfn = energy('scf', return_wfn=True)
gdma(wfn)
dmavals = variable('DMA DISTRIBUTED MULTIPOLES')
charges = np.array(dmavals)
print(charges)
np.save('SSI-009LYS-137LEU-1-dimer.npy', np.array(charges))--------------------------------------------------------------------------

*** tstart() called on ds3
*** at Mon Apr 27 10:06:54 2020

   => Loading Basis Set <=

    Name: CC-PVDZ
    Role: ORBITAL
    Keyword: BASIS
    atoms 1-2, 12-13  entry C          line   138 file /theoryfs2/ds/metcalf/miniconda2/envs/tf2gpu/share/psi4/basis/cc-pvdz.gbs
    atoms 3           entry N          line   168 file /theoryfs2/ds/metcalf/miniconda2/envs/tf2gpu/share/psi4/basis/cc-pvdz.gbs
    atoms 4-11, 14-19 entry H          line    22 file /theoryfs2/ds/metcalf/miniconda2/envs/tf2gpu/share/psi4/basis/cc-pvdz.gbs

         ---------------------------------------------------------
                                   SCF
               by Justin Turney, Rob Parrish, Andy Simmonett
                          and Daniel G. A. Smith
                              RHF Reference
                        1 Threads,    500 MiB Core
         ---------------------------------------------------------

  ==> Geometry <==

    Molecular point group: c1
    Full point group: C1

    Geometry (in Angstrom), charge = 1, multiplicity = 1:

       Center              X                  Y                   Z               Mass
    ------------   -----------------  -----------------  -----------------  -----------------
         C           -0.413586285848     1.273183713177    -0.991991204395    12.000000000000
         C            1.021413714152     1.775183713177    -0.921991204395    12.000000000000
         N           -0.706586285848     0.723183713177    -2.344991204395    14.003074004430
         H           -0.557586285848     0.501183713177    -0.227991204395     1.007825032230
         H           -1.092586285848     2.104183713177    -0.769991204395     1.007825032230
         H            1.176413714152     2.507183713177    -1.719991204395     1.007825032230
         H            1.706413714152     0.939183713177    -1.080991204395     1.007825032230
         H           -0.101586285848    -0.059816286823    -2.571991204395     1.007825032230
         H           -1.661586285848     0.386183713177    -2.406991204395     1.007825032230
         H           -0.590586285848     1.422183713177    -3.069991204395     1.007825032230
         H            1.252393714152     2.251543713177     0.042238795605     1.007825032230
         C           -0.107586285848    -1.257816286823     1.877008795605    12.000000000000
         C            0.270413714152    -2.527816286823     2.628008795605    12.000000000000
         H           -0.748586285848    -1.508816286823     1.030008795605     1.007825032230
         H           -0.647586285848    -0.582816286823     2.539008795605     1.007825032230
         H            0.796413714152    -0.760816286823     1.518008795605     1.007825032230
         H            0.952413714152    -2.260816286823     3.431008795605     1.007825032230
         H            0.779463714152    -3.220206286823     1.941368795605     1.007825032230
         H           -0.621906285848    -2.988036286823     3.077412795605     1.007825032230

  Running in c1 symmetry.

  Rotational constants: A =      0.23296  B =      0.03558  C =      0.03279 [cm^-1]
  Rotational constants: A =   6984.02031  B =   1066.74751  C =    983.12118 [MHz]
  Nuclear repulsion =  185.614956152172994

  Charge       = 1
  Multiplicity = 1
  Electrons    = 44
  Nalpha       = 22
  Nbeta        = 22

  ==> Algorithm <==

  SCF Algorithm Type is PK.
  DIIS enabled.
  MOM disabled.
  Fractional occupation disabled.
  Guess Type is SAD.
  Energy threshold   = 1.00e-06
  Density threshold  = 1.00e-10
  Integral threshold = 0.00e+00

  ==> Primary Basis <==

  Basis Set: CC-PVDZ
    Blend: CC-PVDZ
    Number of shells: 72
    Number of basis function: 140
    Number of Cartesian functions: 145
    Spherical Harmonics?: true
    Max angular momentum: 2

  ==> Pre-Iterations <==

   -------------------------------------------------------
    Irrep   Nso     Nmo     Nalpha   Nbeta   Ndocc  Nsocc
   -------------------------------------------------------
     A        140     140       0       0       0       0
   -------------------------------------------------------
    Total     140     140      22      22      22       0
   -------------------------------------------------------

  ==> Integral Setup <==

  Using integral reordering PK algorithm.
  Sizing the integral batches needed.
  Building batch lookup table.
   Calculation information:
      Number of atoms:                  19
      Number of AO shells:              72
      Number of primitives:            180
      Number of atomic orbitals:       145
      Number of basis functions:       140

      Integral cutoff                 1.00e-12
      Number of threads:                 1

	Batch   1 pq = [       0,    9405] index = [             0,44231715] size =     44231715
	Batch   2 pq = [    9405,    9870] index = [      44231715,48713385] size =      4481670
  Task number: 5
  Buffer size: 11059200
  Buffer per thread: 2
  We computed 2698099 shell quartets total.
  Whereas there are 3454506 unique shell quartets.

  ==> DiskJK: Disk-Based J/K Matrices <==

    J tasked:                  Yes
    K tasked:                  Yes
    wK tasked:                  No
    Memory [MiB]:              375
    Schwarz Cutoff:          1E-12

    OpenMP threads:              1

  Minimum eigenvalue in the overlap matrix is 5.2163018445E-03.
  Using Symmetric Orthogonalization.

  SCF Guess: Superposition of Atomic Densities via on-the-fly atomic UHF.

  ==> Iterations <==

                        Total Energy        Delta E     RMS |[F,P]|

   @RHF iter SAD:  -213.19078479472844   -2.13191e+02   0.00000e+00
   @RHF iter   1:  -213.69170097343189   -5.00916e-01   3.56968e-03 DIIS
   @RHF iter   2:  -213.84248434620667   -1.50783e-01   1.35841e-03 DIIS
   @RHF iter   3:  -213.86276369111630   -2.02793e-02   3.43120e-04 DIIS
   @RHF iter   4:  -213.86491244648164   -2.14876e-03   4.67348e-05 DIIS
   @RHF iter   5:  -213.86495732412030   -4.48776e-05   1.24428e-05 DIIS
   @RHF iter   6:  -213.86496001988621   -2.69577e-06   3.47575e-06 DIIS
   @RHF iter   7:  -213.86496021028455   -1.90398e-07   8.88763e-07 DIIS
   @RHF iter   8:  -213.86496022751979   -1.72352e-08   2.42189e-07 DIIS
   @RHF iter   9:  -213.86496022860786   -1.08807e-09   6.82740e-08 DIIS
   @RHF iter  10:  -213.86496022867877   -7.09122e-11   1.34453e-08 DIIS
   @RHF iter  11:  -213.86496022868238   -3.60956e-12   2.36620e-09 DIIS
   @RHF iter  12:  -213.86496022868255   -1.70530e-13   4.68339e-10 DIIS
   @RHF iter  13:  -213.86496022868238    1.70530e-13   1.47926e-10 DIIS
   @RHF iter  14:  -213.86496022868204    3.41061e-13   3.71979e-11 DIIS
  Energy and wave function converged.

  ==> Post-Iterations <==

    Orbital Energies [Eh]
    ---------------------

    Doubly Occupied:

       1A    -15.908221     2A    -11.482057     3A    -11.407594
       4A    -11.330257     5A    -11.313728     6A     -1.527585
       7A     -1.222771     8A     -1.125036     9A     -1.058547
      10A     -0.983959    11A     -0.969306    12A     -0.940412
      13A     -0.864609    14A     -0.799314    15A     -0.726025
      16A     -0.705606    17A     -0.704620    18A     -0.701024
      19A     -0.687662    20A     -0.603820    21A     -0.589986
      22A     -0.587705

    Virtual:

      23A     -0.051777    24A      0.014366    25A      0.015418
      26A      0.031552    27A      0.078669    28A      0.085844
      29A      0.104533    30A      0.112778    31A      0.122431
      32A      0.143168    33A      0.154765    34A      0.163387
      35A      0.186315    36A      0.190809    37A      0.192688
      38A      0.202034    39A      0.315919    40A      0.374091
      41A      0.394538    42A      0.420874    43A      0.444145
      44A      0.446503    45A      0.497042    46A      0.500707
      47A      0.557208    48A      0.575471    49A      0.593261
      50A      0.594400    51A      0.629766    52A      0.647145
      53A      0.651704    54A      0.685676    55A      0.712829
      56A      0.715129    57A      0.739952    58A      0.756545
      59A      0.765754    60A      0.791663    61A      0.795372
      62A      0.801128    63A      0.802836    64A      0.812303
      65A      0.824891    66A      0.842191    67A      0.861446
      68A      0.879643    69A      0.924204    70A      0.931783
      71A      1.015569    72A      1.021982    73A      1.100964
      74A      1.160380    75A      1.190983    76A      1.265053
      77A      1.284144    78A      1.372201    79A      1.376242
      80A      1.394853    81A      1.459080    82A      1.461849
      83A      1.480014    84A      1.508141    85A      1.568551
      86A      1.579860    87A      1.591908    88A      1.652554
      89A      1.679130    90A      1.708518    91A      1.736560
      92A      1.742004    93A      1.755534    94A      1.770578
      95A      1.774327    96A      1.790928    97A      1.798662
      98A      1.831692    99A      1.836485   100A      1.847336
     101A      1.855532   102A      1.865881   103A      1.879279
     104A      1.891859   105A      1.909188   106A      1.925741
     107A      1.962944   108A      1.990921   109A      1.995437
     110A      2.015445   111A      2.028292   112A      2.125223
     113A      2.150483   114A      2.169650   115A      2.188032
     116A      2.244212   117A      2.292509   118A      2.320186
     119A      2.351601   120A      2.364375   121A      2.374977
     122A      2.427614   123A      2.459965   124A      2.472308
     125A      2.512344   126A      2.536307   127A      2.590646
     128A      2.626320   129A      2.657421   130A      2.672691
     131A      2.682858   132A      2.738152   133A      2.742353
     134A      2.750085   135A      2.777293   136A      2.837744
     137A      2.856794   138A      2.868898   139A      3.094519
     140A      3.127540

    Final Occupation by Irrep:
              A
    DOCC [    22 ]

  @RHF Final Energy:  -213.86496022868204

   => Energetics <=

    Nuclear Repulsion Energy =            185.6149561521729936
    One-Electron Energy =                -646.4801437565323567
    Two-Electron Energy =                 247.0002273756772979
    Total Energy =                       -213.8649602286820368

Computation Completed

Properties will be evaluated at   0.000000,   0.000000,   0.000000 [a0]

Properties computed using the SCF density matrix

  Nuclear Dipole Moment: [e a0]
     X:     0.6034      Y:    -1.1924      Z:     1.6297

  Electronic Dipole Moment: [e a0]
     X:    -1.5794      Y:     2.6743      Z:    -5.2651

  Dipole Moment: [e a0]
     X:    -0.9760      Y:     1.4819      Z:    -3.6354     Total:     4.0453

  Dipole Moment: [D]
     X:    -2.4806      Y:     3.7667      Z:    -9.2402     Total:    10.2822

*** tstop() called on ds3 at Mon Apr 27 10:07:22 2020
Module time:
	user time   =      13.41 seconds =       0.22 minutes
	system time =       5.90 seconds =       0.10 minutes
	total time  =         28 seconds =       0.47 minutes
Total time:
	user time   =      13.41 seconds =       0.22 minutes
	system time =       5.90 seconds =       0.10 minutes
	total time  =         28 seconds =       0.47 minutes
                                     G D M A

                                 by Anthony Stone

                           version 2.2.06, 22 June 2011

               Distributed Multipoles from Gaussian wavefunctions

Starting at 10:7:22 on 27 Apr 2020

Using SCF density matrix from file ./SSI/SSI-009LYS-137LEU-1-dimer.test.2345.fchk

                         Distributed Multipole Analysis

Standard DMA

Positions and radii in angstrom
Multipole moments in atomic units, ea_0^k for rank k

C          x = -0.413586  y =  1.273184  z = -0.991991 angstrom
           Maximum rank =  0   Radius =  0.650 angstrom
                   Q00  =  -0.033378

C          x =  1.021414  y =  1.775184  z = -0.921991 angstrom
           Maximum rank =  0   Radius =  0.650 angstrom
                   Q00  =  -0.225990

N          x = -0.706586  y =  0.723184  z = -2.344991 angstrom
           Maximum rank =  0   Radius =  0.650 angstrom
                   Q00  =  -0.149473

H          x = -0.557586  y =  0.501184  z = -0.227991 angstrom
           Maximum rank =  0   Radius =  0.325 angstrom
                   Q00  =   0.145218

H          x = -1.092586  y =  2.104184  z = -0.769991 angstrom
           Maximum rank =  0   Radius =  0.325 angstrom
                   Q00  =   0.130943

H          x =  1.176414  y =  2.507184  z = -1.719991 angstrom
           Maximum rank =  0   Radius =  0.325 angstrom
                   Q00  =   0.099088

H          x =  1.706414  y =  0.939184  z = -1.080991 angstrom
           Maximum rank =  0   Radius =  0.325 angstrom
                   Q00  =   0.103242

H          x = -0.101586  y = -0.059816  z = -2.571991 angstrom
           Maximum rank =  0   Radius =  0.325 angstrom
                   Q00  =   0.258614

H          x = -1.661586  y =  0.386184  z = -2.406991 angstrom
           Maximum rank =  0   Radius =  0.325 angstrom
                   Q00  =   0.258372

H          x = -0.590586  y =  1.422184  z = -3.069991 angstrom
           Maximum rank =  0   Radius =  0.325 angstrom
                   Q00  =   0.258078

H          x =  1.252394  y =  2.251544  z =  0.042239 angstrom
           Maximum rank =  0   Radius =  0.325 angstrom
                   Q00  =   0.157666

C          x = -0.107586  y = -1.257816  z =  1.877009 angstrom
           Maximum rank =  0   Radius =  0.650 angstrom
                   Q00  =  -0.274413

C          x =  0.270414  y = -2.527816  z =  2.628009 angstrom
           Maximum rank =  0   Radius =  0.650 angstrom
                   Q00  =  -0.213074

H          x = -0.748586  y = -1.508816  z =  1.030009 angstrom
           Maximum rank =  0   Radius =  0.325 angstrom
                   Q00  =   0.046848

H          x = -0.647586  y = -0.582816  z =  2.539009 angstrom
           Maximum rank =  0   Radius =  0.325 angstrom
                   Q00  =   0.096911

H          x =  0.796414  y = -0.760816  z =  1.518009 angstrom
           Maximum rank =  0   Radius =  0.325 angstrom
                   Q00  =   0.062507

H          x =  0.952414  y = -2.260816  z =  3.431009 angstrom
           Maximum rank =  0   Radius =  0.325 angstrom
                   Q00  =   0.098450

H          x =  0.779464  y = -3.220206  z =  1.941369 angstrom
           Maximum rank =  0   Radius =  0.325 angstrom
                   Q00  =   0.082862

H          x = -0.621906  y = -2.988036  z =  3.077413 angstrom
           Maximum rank =  0   Radius =  0.325 angstrom
                   Q00  =   0.097529

Total multipoles referred to origin at
           x =   0.000000,  y =    0.000000,  z =    0.000000 angstrom
                   Q00  =   1.000000

Finished at 10:7:22 on 27 Apr 2020

  DMA results are available in the Python driver through the
	  variable('DMA DISTRIBUTED MULTIPOLES')
  and
	  variable('DMA TOTAL MULTIPOLES')
  commands.

    Psi4 stopped on: Monday, 27 April 2020 10:07AM
    Psi4 wall time for execution: 0:00:28.33

*** Psi4 exiting successfully. Buy a developer a beer!
