                               Psi4 1.3.2 release

  ==> Input File <==

--------------------------------------------------------------------------
import numpy as np
set {scf_type pk
basis cc-pvdz
d_convergence 10
gdma_switch   0
gdma_limit    0
gdma_origin   [ 0.0,  0.0,  0.0 ]
}
molecule test {
    units Angstrom
    0 1
    --
    0 1
    C               -2.293251901177273    -2.849984039513942    -2.524926275102919
    C                0.574748098822727    -0.126984039513942    -0.758926275102919
    C                0.202748098822728    -1.279984039513942    -0.074926275102919
    C                0.056748098822728     0.123015960486058    -2.020926275102919
    C               -0.728251901177272    -2.147984039513942    -0.629926275102919
    C               -0.846251901177272    -0.770984039513942    -2.586926275102919
    C               -1.269251901177272    -1.909984039513942    -1.893926275102919
    O                1.465748098822728     0.724015960486058    -0.165926275102919
    H                1.858748098822728     0.337015960486058     0.621073724897081
    H                0.614748098822728    -1.496984039513942     0.902073724897081
    H                0.376748098822728     1.000015960486058    -2.565926275102918
    H               -1.004251901177272    -3.028984039513942    -0.070926275102919
    H               -1.194251901177272    -0.596984039513942    -3.588926275102919
    H               -1.791251901177272    -3.733984039513942    -2.897926275102919
    H               -2.754251901177272    -2.353984039513942    -3.380926275102919
    H               -3.085011901177272    -3.151914039513942    -1.823531275102919
    C                0.938748098822728     2.269015960486058     2.544073724897082
    C               -0.488251901177272     1.997015960486058     3.044073724897081
    O                1.767748098822728     2.754015960486058     3.588073724897081
    H                1.362748098822728     1.326015960486058     2.210073724897081
    H                0.921748098822728     2.973015960486058     1.709073724897081
    H               -1.020251901177272     1.509015960486058     2.226073724897081
    H                1.694748098822728     3.726015960486058     3.563073724897081
    H               -0.998641901177272     2.941625960486058     3.283273724897081
    H               -0.431221901177272     1.275885960486058     3.872763724897081

}
e, wfn = energy('scf', return_wfn=True)
gdma(wfn)
dmavals = variable('DMA DISTRIBUTED MULTIPOLES')
charges = np.array(dmavals)
print(charges)
np.save('SSI-137TYR-166SER-1-dimer.npy', np.array(charges))--------------------------------------------------------------------------

*** tstart() called on ds3
*** at Mon Apr 27 03:23:36 2020

   => Loading Basis Set <=

    Name: CC-PVDZ
    Role: ORBITAL
    Keyword: BASIS
    atoms 1-7, 17-18  entry C          line   138 file /theoryfs2/ds/metcalf/miniconda2/envs/tf2gpu/share/psi4/basis/cc-pvdz.gbs
    atoms 8, 19       entry O          line   198 file /theoryfs2/ds/metcalf/miniconda2/envs/tf2gpu/share/psi4/basis/cc-pvdz.gbs
    atoms 9-16, 20-25 entry H          line    22 file /theoryfs2/ds/metcalf/miniconda2/envs/tf2gpu/share/psi4/basis/cc-pvdz.gbs

         ---------------------------------------------------------
                                   SCF
               by Justin Turney, Rob Parrish, Andy Simmonett
                          and Daniel G. A. Smith
                              RHF Reference
                        1 Threads,    500 MiB Core
         ---------------------------------------------------------

  ==> Geometry <==

    Molecular point group: c1
    Full point group: C1

    Geometry (in Angstrom), charge = 0, multiplicity = 1:

       Center              X                  Y                   Z               Mass
    ------------   -----------------  -----------------  -----------------  -----------------
         C           -2.293251901177    -2.849984039514    -2.524926275103    12.000000000000
         C            0.574748098823    -0.126984039514    -0.758926275103    12.000000000000
         C            0.202748098823    -1.279984039514    -0.074926275103    12.000000000000
         C            0.056748098823     0.123015960486    -2.020926275103    12.000000000000
         C           -0.728251901177    -2.147984039514    -0.629926275103    12.000000000000
         C           -0.846251901177    -0.770984039514    -2.586926275103    12.000000000000
         C           -1.269251901177    -1.909984039514    -1.893926275103    12.000000000000
         O            1.465748098823     0.724015960486    -0.165926275103    15.994914619570
         H            1.858748098823     0.337015960486     0.621073724897     1.007825032230
         H            0.614748098823    -1.496984039514     0.902073724897     1.007825032230
         H            0.376748098823     1.000015960486    -2.565926275103     1.007825032230
         H           -1.004251901177    -3.028984039514    -0.070926275103     1.007825032230
         H           -1.194251901177    -0.596984039514    -3.588926275103     1.007825032230
         H           -1.791251901177    -3.733984039514    -2.897926275103     1.007825032230
         H           -2.754251901177    -2.353984039514    -3.380926275103     1.007825032230
         H           -3.085011901177    -3.151914039514    -1.823531275103     1.007825032230
         C            0.938748098823     2.269015960486     2.544073724897    12.000000000000
         C           -0.488251901177     1.997015960486     3.044073724897    12.000000000000
         O            1.767748098823     2.754015960486     3.588073724897    15.994914619570
         H            1.362748098823     1.326015960486     2.210073724897     1.007825032230
         H            0.921748098823     2.973015960486     1.709073724897     1.007825032230
         H           -1.020251901177     1.509015960486     2.226073724897     1.007825032230
         H            1.694748098823     3.726015960486     3.563073724897     1.007825032230
         H           -0.998641901177     2.941625960486     3.283273724897     1.007825032230
         H           -0.431221901177     1.275885960486     3.872763724897     1.007825032230

  Running in c1 symmetry.

  Rotational constants: A =      0.07956  B =      0.01220  C =      0.01151 [cm^-1]
  Rotational constants: A =   2385.14268  B =    365.86429  C =    344.93281 [MHz]
  Nuclear repulsion =  570.054920707553265

  Charge       = 0
  Multiplicity = 1
  Electrons    = 84
  Nalpha       = 42
  Nbeta        = 42

  ==> Algorithm <==

  SCF Algorithm Type is PK.
  DIIS enabled.
  MOM disabled.
  Fractional occupation disabled.
  Guess Type is SAD.
  Energy threshold   = 1.00e-06
  Density threshold  = 1.00e-10
  Integral threshold = 0.00e+00

  ==> Primary Basis <==

  Basis Set: CC-PVDZ
    Blend: CC-PVDZ
    Number of shells: 108
    Number of basis function: 224
    Number of Cartesian functions: 235
    Spherical Harmonics?: true
    Max angular momentum: 2

  ==> Pre-Iterations <==

   -------------------------------------------------------
    Irrep   Nso     Nmo     Nalpha   Nbeta   Ndocc  Nsocc
   -------------------------------------------------------
     A        224     224       0       0       0       0
   -------------------------------------------------------
    Total     224     224      42      42      42       0
   -------------------------------------------------------

  ==> Integral Setup <==

  Using integral reordering PK algorithm.
  Sizing the integral batches needed.
  Building batch lookup table.
   Calculation information:
      Number of atoms:                  25
      Number of AO shells:             108
      Number of primitives:            312
      Number of atomic orbitals:       235
      Number of basis functions:       224

      Integral cutoff                 1.00e-12
      Number of threads:                 1

	Batch   1 pq = [       0,    9405] index = [             0,44231715] size =     44231715
	Batch   2 pq = [    9405,   13301] index = [      44231715,88464951] size =     44233236
	Batch   3 pq = [   13301,   16290] index = [      88464951,132690195] size =     44225244
	Batch   4 pq = [   16290,   18810] index = [     132690195,176917455] size =     44227260
	Batch   5 pq = [   18810,   21030] index = [     176917455,221140965] size =     44223510
	Batch   6 pq = [   21030,   23037] index = [     221140965,265363203] size =     44222238
	Batch   7 pq = [   23037,   24883] index = [     265363203,309594286] size =     44231083
	Batch   8 pq = [   24883,   25200] index = [     309594286,317532600] size =      7938314
  Task number: 29
  Buffer size: 11059200
  Buffer per thread: 2
  We computed 13403842 shell quartets total.
  Whereas there are 17325441 unique shell quartets.

  ==> DiskJK: Disk-Based J/K Matrices <==

    J tasked:                  Yes
    K tasked:                  Yes
    wK tasked:                  No
    Memory [MiB]:              375
    Schwarz Cutoff:          1E-12

    OpenMP threads:              1

  Minimum eigenvalue in the overlap matrix is 3.2031689862E-04.
  Using Symmetric Orthogonalization.

  SCF Guess: Superposition of Atomic Densities via on-the-fly atomic UHF.

  ==> Iterations <==

                        Total Energy        Delta E     RMS |[F,P]|

   @RHF iter SAD:  -497.39299754459682   -4.97393e+02   0.00000e+00
   @RHF iter   1:  -498.43501748972977   -1.04202e+00   2.98993e-03 DIIS
   @RHF iter   2:  -498.66682352612617   -2.31806e-01   1.32910e-03 DIIS
   @RHF iter   3:  -498.70603970800875   -3.92162e-02   2.94412e-04 DIIS
   @RHF iter   4:  -498.70923990337394   -3.20020e-03   1.12614e-04 DIIS
   @RHF iter   5:  -498.70960431343724   -3.64410e-04   2.17787e-05 DIIS
   @RHF iter   6:  -498.70962425761036   -1.99442e-05   8.11115e-06 DIIS
   @RHF iter   7:  -498.70962687851858   -2.62091e-06   2.55391e-06 DIIS
   @RHF iter   8:  -498.70962722496029   -3.46442e-07   7.67646e-07 DIIS
   @RHF iter   9:  -498.70962726928792   -4.43276e-08   2.74599e-07 DIIS
   @RHF iter  10:  -498.70962727555178   -6.26386e-09   1.22769e-07 DIIS
   @RHF iter  11:  -498.70962727752851   -1.97673e-09   5.56812e-08 DIIS
   @RHF iter  12:  -498.70962727793744   -4.08932e-10   2.81142e-08 DIIS
   @RHF iter  13:  -498.70962727802350   -8.60609e-11   8.67451e-09 DIIS
   @RHF iter  14:  -498.70962727802828   -4.77485e-12   2.10858e-09 DIIS
   @RHF iter  15:  -498.70962727803050   -2.21689e-12   7.53958e-10 DIIS
   @RHF iter  16:  -498.70962727802635    4.14957e-12   2.31357e-10 DIIS
   @RHF iter  17:  -498.70962727802839   -2.04636e-12   9.50603e-11 DIIS
  Energy and wave function converged.

  ==> Post-Iterations <==

    Orbital Energies [Eh]
    ---------------------

    Doubly Occupied:

       1A    -20.585654     2A    -20.547349     3A    -11.301091
       4A    -11.273399     5A    -11.240661     6A    -11.240207
       7A    -11.238129     8A    -11.234969     9A    -11.232941
      10A    -11.231333    11A    -11.218849    12A     -1.401934
      13A     -1.348722    14A     -1.153097    15A     -1.037315
      16A     -1.021122    17A     -1.003751    18A     -0.929241
      19A     -0.845968    20A     -0.834233    21A     -0.805783
      22A     -0.736251    23A     -0.687845    24A     -0.669548
      25A     -0.643660    26A     -0.623326    27A     -0.611888
      28A     -0.589291    29A     -0.586303    30A     -0.576947
      31A     -0.572187    32A     -0.566520    33A     -0.546677
      34A     -0.530057    35A     -0.515063    36A     -0.499767
      37A     -0.486144    38A     -0.477457    39A     -0.470242
      40A     -0.427238    41A     -0.341552    42A     -0.305174

    Virtual:

      43A      0.128131    44A      0.153312    45A      0.165124
      46A      0.185635    47A      0.186528    48A      0.213534
      49A      0.218576    50A      0.227467    51A      0.250530
      52A      0.260390    53A      0.267789    54A      0.271098
      55A      0.275041    56A      0.282877    57A      0.290318
      58A      0.328807    59A      0.364972    60A      0.371110
      61A      0.389894    62A      0.402546    63A      0.436747
      64A      0.452573    65A      0.486100    66A      0.488800
      67A      0.508353    68A      0.605746    69A      0.617721
      70A      0.619168    71A      0.628841    72A      0.649747
      73A      0.654353    74A      0.670676    75A      0.690489
      76A      0.692547    77A      0.708566    78A      0.726818
      79A      0.728037    80A      0.732382    81A      0.737870
      82A      0.752378    83A      0.773450    84A      0.775889
      85A      0.785221    86A      0.798062    87A      0.806830
      88A      0.827321    89A      0.847890    90A      0.849903
      91A      0.868076    92A      0.872639    93A      0.883290
      94A      0.890680    95A      0.892764    96A      0.895362
      97A      0.901787    98A      0.912530    99A      0.930419
     100A      0.935670   101A      0.943223   102A      0.945993
     103A      0.951214   104A      0.967211   105A      1.007058
     106A      1.031371   107A      1.053764   108A      1.122884
     109A      1.124506   110A      1.131834   111A      1.139060
     112A      1.143148   113A      1.166425   114A      1.200000
     115A      1.211958   116A      1.237587   117A      1.245820
     118A      1.270546   119A      1.274449   120A      1.282467
     121A      1.305305   122A      1.311004   123A      1.319373
     124A      1.339689   125A      1.347947   126A      1.368126
     127A      1.380087   128A      1.427823   129A      1.472537
     130A      1.485498   131A      1.506326   132A      1.513757
     133A      1.549689   134A      1.555347   135A      1.613910
     136A      1.622150   137A      1.644907   138A      1.665955
     139A      1.668692   140A      1.678761   141A      1.693429
     142A      1.730666   143A      1.738899   144A      1.746899
     145A      1.779639   146A      1.797262   147A      1.805653
     148A      1.847776   149A      1.864038   150A      1.874087
     151A      1.886474   152A      1.888894   153A      1.902092
     154A      1.908263   155A      1.914089   156A      1.927316
     157A      1.935452   158A      1.941204   159A      1.953276
     160A      1.956040   161A      1.960328   162A      1.972893
     163A      1.980533   164A      2.005448   165A      2.037694
     166A      2.047620   167A      2.061474   168A      2.067907
     169A      2.073394   170A      2.081165   171A      2.105762
     172A      2.117599   173A      2.146553   174A      2.167088
     175A      2.180286   176A      2.206635   177A      2.218175
     178A      2.250912   179A      2.255650   180A      2.271825
     181A      2.300638   182A      2.307498   183A      2.344472
     184A      2.369112   185A      2.382230   186A      2.392587
     187A      2.430610   188A      2.463019   189A      2.470792
     190A      2.481699   191A      2.506179   192A      2.531944
     193A      2.541969   194A      2.550610   195A      2.553694
     196A      2.608452   197A      2.647524   198A      2.737819
     199A      2.759981   200A      2.767926   201A      2.775422
     202A      2.781331   203A      2.803229   204A      2.809888
     205A      2.849666   206A      2.888806   207A      2.900239
     208A      2.917708   209A      2.971525   210A      2.998593
     211A      3.087426   212A      3.120434   213A      3.259023
     214A      3.279241   215A      3.327799   216A      3.353043
     217A      3.391079   218A      3.477826   219A      3.574159
     220A      3.632243   221A      3.664710   222A      3.977650
     223A      4.084280   224A      4.190747

    Final Occupation by Irrep:
              A
    DOCC [    42 ]

  @RHF Final Energy:  -498.70962727802839

   => Energetics <=

    Nuclear Repulsion Energy =            570.0549207075532649
    One-Electron Energy =               -1809.1513291701726303
    Two-Electron Energy =                 740.3867811845909728
    Total Energy =                       -498.7096272780283925

Computation Completed

Properties will be evaluated at   0.000000,   0.000000,   0.000000 [a0]

Properties computed using the SCF density matrix

  Nuclear Dipole Moment: [e a0]
     X:    -5.0933      Y:     0.6971      Z:     3.8219

  Electronic Dipole Moment: [e a0]
     X:     4.6561      Y:    -0.8328      Z:    -4.0791

  Dipole Moment: [e a0]
     X:    -0.4372      Y:    -0.1357      Z:    -0.2571     Total:     0.5250

  Dipole Moment: [D]
     X:    -1.1112      Y:    -0.3449      Z:    -0.6536     Total:     1.3345

*** tstop() called on ds3 at Mon Apr 27 03:25:55 2020
Module time:
	user time   =      99.99 seconds =       1.67 minutes
	system time =      45.33 seconds =       0.76 minutes
	total time  =        139 seconds =       2.32 minutes
Total time:
	user time   =      99.99 seconds =       1.67 minutes
	system time =      45.33 seconds =       0.76 minutes
	total time  =        139 seconds =       2.32 minutes
                                     G D M A

                                 by Anthony Stone

                           version 2.2.06, 22 June 2011

               Distributed Multipoles from Gaussian wavefunctions

Starting at 3:25:55 on 27 Apr 2020

Using SCF density matrix from file ./SSI/SSI-137TYR-166SER-1-dimer.test.17998.fchk

                         Distributed Multipole Analysis

Standard DMA

Positions and radii in angstrom
Multipole moments in atomic units, ea_0^k for rank k

C          x = -2.293252  y = -2.849984  z = -2.524926 angstrom
           Maximum rank =  0   Radius =  0.650 angstrom
                   Q00  =  -0.208402

C          x =  0.574748  y = -0.126984  z = -0.758926 angstrom
           Maximum rank =  0   Radius =  0.650 angstrom
                   Q00  =   0.279675

C          x =  0.202748  y = -1.279984  z = -0.074926 angstrom
           Maximum rank =  0   Radius =  0.650 angstrom
                   Q00  =  -0.176690

C          x =  0.056748  y =  0.123016  z = -2.020926 angstrom
           Maximum rank =  0   Radius =  0.650 angstrom
                   Q00  =  -0.118609

C          x = -0.728252  y = -2.147984  z = -0.629926 angstrom
           Maximum rank =  0   Radius =  0.650 angstrom
                   Q00  =  -0.018553

C          x = -0.846252  y = -0.770984  z = -2.586926 angstrom
           Maximum rank =  0   Radius =  0.650 angstrom
                   Q00  =   0.042744

C          x = -1.269252  y = -1.909984  z = -1.893926 angstrom
           Maximum rank =  0   Radius =  0.650 angstrom
                   Q00  =  -0.140442

O          x =  1.465748  y =  0.724016  z = -0.165926 angstrom
           Maximum rank =  0   Radius =  0.650 angstrom
                   Q00  =  -0.645896

H          x =  1.858748  y =  0.337016  z =  0.621074 angstrom
           Maximum rank =  0   Radius =  0.325 angstrom
                   Q00  =   0.409723

H          x =  0.614748  y = -1.496984  z =  0.902074 angstrom
           Maximum rank =  0   Radius =  0.325 angstrom
                   Q00  =   0.070919

H          x =  0.376748  y =  1.000016  z = -2.565926 angstrom
           Maximum rank =  0   Radius =  0.325 angstrom
                   Q00  =   0.080169

H          x = -1.004252  y = -3.028984  z = -0.070926 angstrom
           Maximum rank =  0   Radius =  0.325 angstrom
                   Q00  =   0.068106

H          x = -1.194252  y = -0.596984  z = -3.588926 angstrom
           Maximum rank =  0   Radius =  0.325 angstrom
                   Q00  =   0.065332

H          x = -1.791252  y = -3.733984  z = -2.897926 angstrom
           Maximum rank =  0   Radius =  0.325 angstrom
                   Q00  =   0.102737

H          x = -2.754252  y = -2.353984  z = -3.380926 angstrom
           Maximum rank =  0   Radius =  0.325 angstrom
                   Q00  =   0.097349

H          x = -3.085012  y = -3.151914  z = -1.823531 angstrom
           Maximum rank =  0   Radius =  0.325 angstrom
                   Q00  =   0.101058

C          x =  0.938748  y =  2.269016  z =  2.544074 angstrom
           Maximum rank =  0   Radius =  0.650 angstrom
                   Q00  =   0.110158

C          x = -0.488252  y =  1.997016  z =  3.044074 angstrom
           Maximum rank =  0   Radius =  0.650 angstrom
                   Q00  =  -0.230374

O          x =  1.767748  y =  2.754016  z =  3.588074 angstrom
           Maximum rank =  0   Radius =  0.650 angstrom
                   Q00  =  -0.605712

H          x =  1.362748  y =  1.326016  z =  2.210074 angstrom
           Maximum rank =  0   Radius =  0.325 angstrom
                   Q00  =   0.042952

H          x =  0.921748  y =  2.973016  z =  1.709074 angstrom
           Maximum rank =  0   Radius =  0.325 angstrom
                   Q00  =   0.048273

H          x = -1.020252  y =  1.509016  z =  2.226074 angstrom
           Maximum rank =  0   Radius =  0.325 angstrom
                   Q00  =   0.084104

H          x =  1.694748  y =  3.726016  z =  3.563074 angstrom
           Maximum rank =  0   Radius =  0.325 angstrom
                   Q00  =   0.393286

H          x = -0.998642  y =  2.941626  z =  3.283274 angstrom
           Maximum rank =  0   Radius =  0.325 angstrom
                   Q00  =   0.070677

H          x = -0.431222  y =  1.275886  z =  3.872764 angstrom
           Maximum rank =  0   Radius =  0.325 angstrom
                   Q00  =   0.077414

Total multipoles referred to origin at
           x =   0.000000,  y =    0.000000,  z =    0.000000 angstrom
                   Q00  =  -0.000000

Finished at 3:25:55 on 27 Apr 2020

  DMA results are available in the Python driver through the
	  variable('DMA DISTRIBUTED MULTIPOLES')
  and
	  variable('DMA TOTAL MULTIPOLES')
  commands.

    Psi4 stopped on: Monday, 27 April 2020 03:25AM
    Psi4 wall time for execution: 0:02:19.90

*** Psi4 exiting successfully. Buy a developer a beer!
