                               Psi4 1.3.2 release

  ==> Input File <==

--------------------------------------------------------------------------
import numpy as np
set {scf_type pk
basis cc-pvdz
d_convergence 10
gdma_switch   0
gdma_limit    0
gdma_origin   [ 0.0,  0.0,  0.0 ]
}
molecule test {
    units Angstrom
    0 1
    --
    0 1
    C                0.396724565862397    -3.575791949609013     1.061025371891066
    C                1.873724565862397    -3.599791949609013     1.421025371891067
    H               -0.145275434137603    -2.940791949609013     1.762025371891066
    H                0.270724565862397    -3.183791949609013     0.050025371891066
    H               -0.030275434137603    -4.578791949609013     1.081025371891066
    H                2.344724565862397    -4.328791949609013     0.761025371891066
    H                2.039824565862397    -3.929103949609013     2.457345371891066
    H                2.349574565862397    -2.632979949609013     1.200015371891066
    C                1.215724565862397     1.330208050390987    -2.262974628108934
    C               -0.958275434137603    -0.085791949609013     0.529025371891066
    C               -1.600275434137603     1.051208050390987     0.989025371891066
    C               -0.018275434137603     0.021208050390987    -0.497974628108934
    C                0.278724565862397     1.242208050390987    -1.084974628108933
    C               -1.313275434137603     2.269208050390987     0.389025371891066
    C               -0.379275434137603     2.357208050390987    -0.629974628108934
    H               -1.197275434137603    -1.048791949609013     0.954025371891066
    H               -2.339275434137603     0.982208050390987     1.773025371891066
    H                0.459724565862397    -0.874791949609013    -0.865974628108934
    H               -1.822275434137603     3.164208050390987     0.716025371891067
    H                0.684724565862397     1.849208050390987    -3.062974628108933
    H                1.442724565862397     0.327208050390987    -2.626974628108933
    H               -0.206275434137603     3.305208050390987    -1.103974628108934
    H                2.155374565862397     1.865417050390987    -2.061464628108934

}
e, wfn = energy('scf', return_wfn=True)
gdma(wfn)
dmavals = variable('DMA DISTRIBUTED MULTIPOLES')
charges = np.array(dmavals)
print(charges)
np.save('SSI-107VAL-147PHE-1-dimer.npy', np.array(charges))--------------------------------------------------------------------------

*** tstart() called on ds3
*** at Tue Apr 28 09:22:57 2020

   => Loading Basis Set <=

    Name: CC-PVDZ
    Role: ORBITAL
    Keyword: BASIS
    atoms 1-2, 9-15  entry C          line   138 file /theoryfs2/ds/metcalf/miniconda2/envs/tf2gpu/share/psi4/basis/cc-pvdz.gbs
    atoms 3-8, 16-23 entry H          line    22 file /theoryfs2/ds/metcalf/miniconda2/envs/tf2gpu/share/psi4/basis/cc-pvdz.gbs

         ---------------------------------------------------------
                                   SCF
               by Justin Turney, Rob Parrish, Andy Simmonett
                          and Daniel G. A. Smith
                              RHF Reference
                        1 Threads,    500 MiB Core
         ---------------------------------------------------------

  ==> Geometry <==

    Molecular point group: c1
    Full point group: C1

    Geometry (in Angstrom), charge = 0, multiplicity = 1:

       Center              X                  Y                   Z               Mass
    ------------   -----------------  -----------------  -----------------  -----------------
         C            0.396724565862    -3.575791949609     1.061025371891    12.000000000000
         C            1.873724565862    -3.599791949609     1.421025371891    12.000000000000
         H           -0.145275434138    -2.940791949609     1.762025371891     1.007825032230
         H            0.270724565862    -3.183791949609     0.050025371891     1.007825032230
         H           -0.030275434138    -4.578791949609     1.081025371891     1.007825032230
         H            2.344724565862    -4.328791949609     0.761025371891     1.007825032230
         H            2.039824565862    -3.929103949609     2.457345371891     1.007825032230
         H            2.349574565862    -2.632979949609     1.200015371891     1.007825032230
         C            1.215724565862     1.330208050391    -2.262974628109    12.000000000000
         C           -0.958275434138    -0.085791949609     0.529025371891    12.000000000000
         C           -1.600275434138     1.051208050391     0.989025371891    12.000000000000
         C           -0.018275434138     0.021208050391    -0.497974628109    12.000000000000
         C            0.278724565862     1.242208050391    -1.084974628109    12.000000000000
         C           -1.313275434138     2.269208050391     0.389025371891    12.000000000000
         C           -0.379275434138     2.357208050391    -0.629974628109    12.000000000000
         H           -1.197275434138    -1.048791949609     0.954025371891     1.007825032230
         H           -2.339275434138     0.982208050391     1.773025371891     1.007825032230
         H            0.459724565862    -0.874791949609    -0.865974628109     1.007825032230
         H           -1.822275434138     3.164208050391     0.716025371891     1.007825032230
         H            0.684724565862     1.849208050391    -3.062974628109     1.007825032230
         H            1.442724565862     0.327208050391    -2.626974628109     1.007825032230
         H           -0.206275434138     3.305208050391    -1.103974628109     1.007825032230
         H            2.155374565862     1.865417050391    -2.061464628109     1.007825032230

  Running in c1 symmetry.

  Rotational constants: A =      0.07451  B =      0.02288  C =      0.01836 [cm^-1]
  Rotational constants: A =   2233.84345  B =    685.78317  C =    550.30466 [MHz]
  Nuclear repulsion =  402.805236314978913

  Charge       = 0
  Multiplicity = 1
  Electrons    = 68
  Nalpha       = 34
  Nbeta        = 34

  ==> Algorithm <==

  SCF Algorithm Type is PK.
  DIIS enabled.
  MOM disabled.
  Fractional occupation disabled.
  Guess Type is SAD.
  Energy threshold   = 1.00e-06
  Density threshold  = 1.00e-10
  Integral threshold = 0.00e+00

  ==> Primary Basis <==

  Basis Set: CC-PVDZ
    Blend: CC-PVDZ
    Number of shells: 96
    Number of basis function: 196
    Number of Cartesian functions: 205
    Spherical Harmonics?: true
    Max angular momentum: 2

  ==> Pre-Iterations <==

   -------------------------------------------------------
    Irrep   Nso     Nmo     Nalpha   Nbeta   Ndocc  Nsocc
   -------------------------------------------------------
     A        196     196       0       0       0       0
   -------------------------------------------------------
    Total     196     196      34      34      34       0
   -------------------------------------------------------

  ==> Integral Setup <==

  Using integral reordering PK algorithm.
  Sizing the integral batches needed.
  Building batch lookup table.
   Calculation information:
      Number of atoms:                  23
      Number of AO shells:              96
      Number of primitives:            268
      Number of atomic orbitals:       205
      Number of basis functions:       196

      Integral cutoff                 1.00e-12
      Number of threads:                 1

	Batch   1 pq = [       0,    9405] index = [             0,44231715] size =     44231715
	Batch   2 pq = [    9405,   13301] index = [      44231715,88464951] size =     44233236
	Batch   3 pq = [   13301,   16290] index = [      88464951,132690195] size =     44225244
	Batch   4 pq = [   16290,   18810] index = [     132690195,176917455] size =     44227260
	Batch   5 pq = [   18810,   19306] index = [     176917455,186370471] size =      9453016
  Task number: 17
  Buffer size: 11059200
  Buffer per thread: 2
  We computed 8852050 shell quartets total.
  Whereas there are 10841496 unique shell quartets.

  ==> DiskJK: Disk-Based J/K Matrices <==

    J tasked:                  Yes
    K tasked:                  Yes
    wK tasked:                  No
    Memory [MiB]:              375
    Schwarz Cutoff:          1E-12

    OpenMP threads:              1

  Minimum eigenvalue in the overlap matrix is 2.8861974681E-04.
  Using Symmetric Orthogonalization.

  SCF Guess: Superposition of Atomic Densities via on-the-fly atomic UHF.

  ==> Iterations <==

                        Total Energy        Delta E     RMS |[F,P]|

   @RHF iter SAD:  -347.96885942488689   -3.47969e+02   0.00000e+00
   @RHF iter   1:  -348.76287861122319   -7.94019e-01   2.91732e-03 DIIS
   @RHF iter   2:  -348.95747179891941   -1.94593e-01   1.22002e-03 DIIS
   @RHF iter   3:  -348.98852046685823   -3.10487e-02   2.61722e-04 DIIS
   @RHF iter   4:  -348.99102394494361   -2.50348e-03   5.81548e-05 DIIS
   @RHF iter   5:  -348.99110891421668   -8.49693e-05   1.97793e-05 DIIS
   @RHF iter   6:  -348.99111841205604   -9.49784e-06   5.01921e-06 DIIS
   @RHF iter   7:  -348.99111913229700   -7.20241e-07   1.17403e-06 DIIS
   @RHF iter   8:  -348.99111918072458   -4.84276e-08   2.92484e-07 DIIS
   @RHF iter   9:  -348.99111918662373   -5.89915e-09   1.24073e-07 DIIS
   @RHF iter  10:  -348.99111918791544   -1.29171e-09   5.74806e-08 DIIS
   @RHF iter  11:  -348.99111918837497   -4.59522e-10   2.15091e-08 DIIS
   @RHF iter  12:  -348.99111918843209   -5.71276e-11   9.21806e-09 DIIS
   @RHF iter  13:  -348.99111918843801   -5.91172e-12   3.63927e-09 DIIS
   @RHF iter  14:  -348.99111918843744    5.68434e-13   8.09672e-10 DIIS
   @RHF iter  15:  -348.99111918843801   -5.68434e-13   3.37327e-10 DIIS
   @RHF iter  16:  -348.99111918843613    1.87583e-12   1.40936e-10 DIIS
   @RHF iter  17:  -348.99111918843744   -1.30740e-12   5.88669e-11 DIIS
  Energy and wave function converged.

  ==> Post-Iterations <==

    Orbital Energies [Eh]
    ---------------------

    Doubly Occupied:

       1A    -11.236552     2A    -11.232712     3A    -11.232398
       4A    -11.229690     5A    -11.228837     6A    -11.228216
       7A    -11.224852     8A    -11.219721     9A    -11.218794
      10A     -1.156301    11A     -1.046222    12A     -1.022045
      13A     -1.010469    14A     -0.932504    15A     -0.838340
      16A     -0.825953    17A     -0.796130    18A     -0.692556
      19A     -0.632273    20A     -0.628506    21A     -0.602428
      22A     -0.598944    23A     -0.578562    24A     -0.576778
      25A     -0.564551    26A     -0.535052    27A     -0.505289
      28A     -0.490000    29A     -0.488715    30A     -0.486394
      31A     -0.481859    32A     -0.476963    33A     -0.330665
      34A     -0.324374

    Virtual:

      35A      0.137725    36A      0.143770    37A      0.172410
      38A      0.195711    39A      0.203158    40A      0.223689
      41A      0.231780    42A      0.239074    43A      0.252733
      44A      0.263565    45A      0.266420    46A      0.275224
      47A      0.278266    48A      0.285251    49A      0.330340
      50A      0.350158    51A      0.372821    52A      0.391603
      53A      0.402250    54A      0.460349    55A      0.467145
      56A      0.480531    57A      0.498976    58A      0.561571
      59A      0.596201    60A      0.597878    61A      0.614463
      62A      0.620307    63A      0.632238    64A      0.675857
      65A      0.685512    66A      0.691793    67A      0.698450
      68A      0.716887    69A      0.729017    70A      0.740322
      71A      0.748506    72A      0.752127    73A      0.762661
      74A      0.773685    75A      0.788859    76A      0.814861
      77A      0.825487    78A      0.846496    79A      0.855623
      80A      0.870336    81A      0.875289    82A      0.884249
      83A      0.886735    84A      0.893338    85A      0.898557
      86A      0.910159    87A      0.916583    88A      0.925650
      89A      0.937433    90A      0.939470    91A      0.948078
      92A      0.963084    93A      0.983523    94A      1.008673
      95A      1.024192    96A      1.049161    97A      1.109080
      98A      1.116763    99A      1.137965   100A      1.154810
     101A      1.162357   102A      1.182672   103A      1.193585
     104A      1.239291   105A      1.246120   106A      1.254973
     107A      1.265909   108A      1.282257   109A      1.304703
     110A      1.322007   111A      1.329650   112A      1.351107
     113A      1.416082   114A      1.469070   115A      1.487065
     116A      1.512713   117A      1.528833   118A      1.546087
     119A      1.586895   120A      1.606157   121A      1.677303
     122A      1.683591   123A      1.686243   124A      1.705924
     125A      1.740096   126A      1.752421   127A      1.763944
     128A      1.798053   129A      1.818778   130A      1.857515
     131A      1.865297   132A      1.882306   133A      1.893402
     134A      1.899568   135A      1.903804   136A      1.907207
     137A      1.921162   138A      1.930702   139A      1.942329
     140A      1.947007   141A      1.951834   142A      1.955916
     143A      1.960746   144A      1.970323   145A      1.978601
     146A      1.988797   147A      1.993560   148A      2.020128
     149A      2.034352   150A      2.051271   151A      2.083237
     152A      2.084141   153A      2.117690   154A      2.134769
     155A      2.148159   156A      2.175851   157A      2.178070
     158A      2.187702   159A      2.211368   160A      2.248448
     161A      2.275952   162A      2.297302   163A      2.303072
     164A      2.311424   165A      2.319557   166A      2.330418
     167A      2.357481   168A      2.444095   169A      2.448063
     170A      2.475791   171A      2.495843   172A      2.528073
     173A      2.543439   174A      2.552004   175A      2.588548
     176A      2.637692   177A      2.744586   178A      2.758264
     179A      2.761540   180A      2.772767   181A      2.789861
     182A      2.802632   183A      2.840586   184A      2.848064
     185A      2.853270   186A      2.867384   187A      2.872044
     188A      2.945435   189A      2.973488   190A      2.995952
     191A      3.023840   192A      3.039440   193A      3.175716
     194A      3.221934   195A      3.320191   196A      3.987048

    Final Occupation by Irrep:
              A
    DOCC [    34 ]

  @RHF Final Energy:  -348.99111918843744

   => Energetics <=

    Nuclear Repulsion Energy =            402.8052363149789130
    One-Electron Energy =               -1268.2454303649781195
    Two-Electron Energy =                 516.4490748615618259
    Total Energy =                       -348.9911191884374375

Computation Completed

Properties will be evaluated at   0.000000,   0.000000,   0.000000 [a0]

Properties computed using the SCF density matrix

  Nuclear Dipole Moment: [e a0]
     X:     5.6311      Y:   -11.2725      Z:     0.9686

  Electronic Dipole Moment: [e a0]
     X:    -5.5917      Y:    11.2657      Z:    -1.0997

  Dipole Moment: [e a0]
     X:     0.0395      Y:    -0.0068      Z:    -0.1311     Total:     0.1371

  Dipole Moment: [D]
     X:     0.1003      Y:    -0.0172      Z:    -0.3333     Total:     0.3485

*** tstop() called on ds3 at Tue Apr 28 09:24:32 2020
Module time:
	user time   =      66.84 seconds =       1.11 minutes
	system time =      33.19 seconds =       0.55 minutes
	total time  =         95 seconds =       1.58 minutes
Total time:
	user time   =      66.84 seconds =       1.11 minutes
	system time =      33.19 seconds =       0.55 minutes
	total time  =         95 seconds =       1.58 minutes
                                     G D M A

                                 by Anthony Stone

                           version 2.2.06, 22 June 2011

               Distributed Multipoles from Gaussian wavefunctions

Starting at 9:24:32 on 28 Apr 2020

Using SCF density matrix from file ./SSI/SSI-107VAL-147PHE-1-dimer.test.10371.fchk

                         Distributed Multipole Analysis

Standard DMA

Positions and radii in angstrom
Multipole moments in atomic units, ea_0^k for rank k

C          x =  0.396725  y = -3.575792  z =  1.061025 angstrom
           Maximum rank =  0   Radius =  0.650 angstrom
                   Q00  =  -0.237312

C          x =  1.873725  y = -3.599792  z =  1.421025 angstrom
           Maximum rank =  0   Radius =  0.650 angstrom
                   Q00  =  -0.232270

H          x = -0.145275  y = -2.940792  z =  1.762025 angstrom
           Maximum rank =  0   Radius =  0.325 angstrom
                   Q00  =   0.076401

H          x =  0.270725  y = -3.183792  z =  0.050025 angstrom
           Maximum rank =  0   Radius =  0.325 angstrom
                   Q00  =   0.075240

H          x = -0.030275  y = -4.578792  z =  1.081025 angstrom
           Maximum rank =  0   Radius =  0.325 angstrom
                   Q00  =   0.080343

H          x =  2.344725  y = -4.328792  z =  0.761025 angstrom
           Maximum rank =  0   Radius =  0.325 angstrom
                   Q00  =   0.072077

H          x =  2.039825  y = -3.929104  z =  2.457345 angstrom
           Maximum rank =  0   Radius =  0.325 angstrom
                   Q00  =   0.083081

H          x =  2.349575  y = -2.632980  z =  1.200015 angstrom
           Maximum rank =  0   Radius =  0.325 angstrom
                   Q00  =   0.081808

C          x =  1.215725  y =  1.330208  z = -2.262975 angstrom
           Maximum rank =  0   Radius =  0.650 angstrom
                   Q00  =  -0.204214

C          x = -0.958275  y = -0.085792  z =  0.529025 angstrom
           Maximum rank =  0   Radius =  0.650 angstrom
                   Q00  =  -0.076165

C          x = -1.600275  y =  1.051208  z =  0.989025 angstrom
           Maximum rank =  0   Radius =  0.650 angstrom
                   Q00  =  -0.088150

C          x = -0.018275  y =  0.021208  z = -0.497975 angstrom
           Maximum rank =  0   Radius =  0.650 angstrom
                   Q00  =  -0.030361

C          x =  0.278725  y =  1.242208  z = -1.084975 angstrom
           Maximum rank =  0   Radius =  0.650 angstrom
                   Q00  =  -0.101233

C          x = -1.313275  y =  2.269208  z =  0.389025 angstrom
           Maximum rank =  0   Radius =  0.650 angstrom
                   Q00  =  -0.006337

C          x = -0.379275  y =  2.357208  z = -0.629975 angstrom
           Maximum rank =  0   Radius =  0.650 angstrom
                   Q00  =  -0.088495

H          x = -1.197275  y = -1.048792  z =  0.954025 angstrom
           Maximum rank =  0   Radius =  0.325 angstrom
                   Q00  =   0.066744

H          x = -2.339275  y =  0.982208  z =  1.773025 angstrom
           Maximum rank =  0   Radius =  0.325 angstrom
                   Q00  =   0.060368

H          x =  0.459725  y = -0.874792  z = -0.865975 angstrom
           Maximum rank =  0   Radius =  0.325 angstrom
                   Q00  =   0.053605

H          x = -1.822275  y =  3.164208  z =  0.716025 angstrom
           Maximum rank =  0   Radius =  0.325 angstrom
                   Q00  =   0.061421

H          x =  0.684725  y =  1.849208  z = -3.062975 angstrom
           Maximum rank =  0   Radius =  0.325 angstrom
                   Q00  =   0.098777

H          x =  1.442725  y =  0.327208  z = -2.626975 angstrom
           Maximum rank =  0   Radius =  0.325 angstrom
                   Q00  =   0.098332

H          x = -0.206275  y =  3.305208  z = -1.103975 angstrom
           Maximum rank =  0   Radius =  0.325 angstrom
                   Q00  =   0.051413

H          x =  2.155375  y =  1.865417  z = -2.061465 angstrom
           Maximum rank =  0   Radius =  0.325 angstrom
                   Q00  =   0.104928

Total multipoles referred to origin at
           x =   0.000000,  y =    0.000000,  z =    0.000000 angstrom
                   Q00  =  -0.000000

Finished at 9:24:32 on 28 Apr 2020

  DMA results are available in the Python driver through the
	  variable('DMA DISTRIBUTED MULTIPOLES')
  and
	  variable('DMA TOTAL MULTIPOLES')
  commands.

    Psi4 stopped on: Tuesday, 28 April 2020 09:24AM
    Psi4 wall time for execution: 0:01:35.53

*** Psi4 exiting successfully. Buy a developer a beer!
