                               Psi4 1.3.2 release

  ==> Input File <==

--------------------------------------------------------------------------
import numpy as np
set {scf_type pk
basis cc-pvdz
d_convergence 10
gdma_switch   0
gdma_limit    0
gdma_origin   [ 0.0,  0.0,  0.0 ]
}
molecule test {
    units Angstrom
    0 1
    --
    0 1
    C                2.535017604073304     1.259172786128843    -1.564297998983857
    C                0.085017604073304    -0.988827213871157     1.145702001016143
    C                0.607017604073304    -1.614827213871157     0.007702001016143
    C                0.386017604073304     0.372172786128843     1.411702001016143
    C                1.419017604073304    -0.876827213871157    -0.854297998983857
    C                1.214017604073304     1.090172786128843     0.539702001016143
    C                1.721017604073304     0.465172786128843    -0.597297998983857
    H               -0.548982395926696    -1.551827213871157     1.821702001016144
    H                0.383017604073304    -2.651827213871157    -0.200297998983857
    H               -0.018982395926696     0.866172786128843     2.286702001016143
    H                1.825017604073304    -1.341827213871157    -1.740297998983857
    H                1.456017604073304     2.124172786128843     0.742702001016143
    H                3.275017604073304     0.583172786128843    -1.984297998983857
    H                3.042017604073304     2.032172786128843    -0.988297998983857
    H                1.946732604073304     1.682542786128843    -2.391747998983857
    C               -3.329982395926696    -0.036827213871157     0.768702001016143
    C               -3.790982395926696     0.157172786128843    -0.679297998983857
    H               -4.128982395926696     0.266172786128843     1.437702001016143
    H               -3.093982395926696    -1.086827213871157     0.944702001016143
    H               -2.444982395926696     0.569172786128843     0.960702001016143
    H               -4.720982395926697    -0.388827213871157    -0.817297998983857
    H               -4.014671395926696     1.222392786128843    -0.838257998983857
    H               -3.031318395926696    -0.259657213871157    -1.356917998983857

}
e, wfn = energy('scf', return_wfn=True)
gdma(wfn)
dmavals = variable('DMA DISTRIBUTED MULTIPOLES')
charges = np.array(dmavals)
print(charges)
np.save('SSI-088PHE-092LEU-1-dimer.npy', np.array(charges))--------------------------------------------------------------------------

*** tstart() called on ds3
*** at Tue Apr 28 11:26:50 2020

   => Loading Basis Set <=

    Name: CC-PVDZ
    Role: ORBITAL
    Keyword: BASIS
    atoms 1-7, 16-17  entry C          line   138 file /theoryfs2/ds/metcalf/miniconda2/envs/tf2gpu/share/psi4/basis/cc-pvdz.gbs
    atoms 8-15, 18-23 entry H          line    22 file /theoryfs2/ds/metcalf/miniconda2/envs/tf2gpu/share/psi4/basis/cc-pvdz.gbs

         ---------------------------------------------------------
                                   SCF
               by Justin Turney, Rob Parrish, Andy Simmonett
                          and Daniel G. A. Smith
                              RHF Reference
                        1 Threads,    500 MiB Core
         ---------------------------------------------------------

  ==> Geometry <==

    Molecular point group: c1
    Full point group: C1

    Geometry (in Angstrom), charge = 0, multiplicity = 1:

       Center              X                  Y                   Z               Mass
    ------------   -----------------  -----------------  -----------------  -----------------
         C            2.535017604073     1.259172786129    -1.564297998984    12.000000000000
         C            0.085017604073    -0.988827213871     1.145702001016    12.000000000000
         C            0.607017604073    -1.614827213871     0.007702001016    12.000000000000
         C            0.386017604073     0.372172786129     1.411702001016    12.000000000000
         C            1.419017604073    -0.876827213871    -0.854297998984    12.000000000000
         C            1.214017604073     1.090172786129     0.539702001016    12.000000000000
         C            1.721017604073     0.465172786129    -0.597297998984    12.000000000000
         H           -0.548982395927    -1.551827213871     1.821702001016     1.007825032230
         H            0.383017604073    -2.651827213871    -0.200297998984     1.007825032230
         H           -0.018982395927     0.866172786129     2.286702001016     1.007825032230
         H            1.825017604073    -1.341827213871    -1.740297998984     1.007825032230
         H            1.456017604073     2.124172786129     0.742702001016     1.007825032230
         H            3.275017604073     0.583172786129    -1.984297998984     1.007825032230
         H            3.042017604073     2.032172786129    -0.988297998984     1.007825032230
         H            1.946732604073     1.682542786129    -2.391747998984     1.007825032230
         C           -3.329982395927    -0.036827213871     0.768702001016    12.000000000000
         C           -3.790982395927     0.157172786129    -0.679297998984    12.000000000000
         H           -4.128982395927     0.266172786129     1.437702001016     1.007825032230
         H           -3.093982395927    -1.086827213871     0.944702001016     1.007825032230
         H           -2.444982395927     0.569172786129     0.960702001016     1.007825032230
         H           -4.720982395927    -0.388827213871    -0.817297998984     1.007825032230
         H           -4.014671395927     1.222392786129    -0.838257998984     1.007825032230
         H           -3.031318395927    -0.259657213871    -1.356917998984     1.007825032230

  Running in c1 symmetry.

  Rotational constants: A =      0.07369  B =      0.02437  C =      0.02325 [cm^-1]
  Rotational constants: A =   2209.17369  B =    730.71196  C =    696.89052 [MHz]
  Nuclear repulsion =  408.401358428193021

  Charge       = 0
  Multiplicity = 1
  Electrons    = 68
  Nalpha       = 34
  Nbeta        = 34

  ==> Algorithm <==

  SCF Algorithm Type is PK.
  DIIS enabled.
  MOM disabled.
  Fractional occupation disabled.
  Guess Type is SAD.
  Energy threshold   = 1.00e-06
  Density threshold  = 1.00e-10
  Integral threshold = 0.00e+00

  ==> Primary Basis <==

  Basis Set: CC-PVDZ
    Blend: CC-PVDZ
    Number of shells: 96
    Number of basis function: 196
    Number of Cartesian functions: 205
    Spherical Harmonics?: true
    Max angular momentum: 2

  ==> Pre-Iterations <==

   -------------------------------------------------------
    Irrep   Nso     Nmo     Nalpha   Nbeta   Ndocc  Nsocc
   -------------------------------------------------------
     A        196     196       0       0       0       0
   -------------------------------------------------------
    Total     196     196      34      34      34       0
   -------------------------------------------------------

  ==> Integral Setup <==

  Using integral reordering PK algorithm.
  Sizing the integral batches needed.
  Building batch lookup table.
   Calculation information:
      Number of atoms:                  23
      Number of AO shells:              96
      Number of primitives:            268
      Number of atomic orbitals:       205
      Number of basis functions:       196

      Integral cutoff                 1.00e-12
      Number of threads:                 1

	Batch   1 pq = [       0,    9405] index = [             0,44231715] size =     44231715
	Batch   2 pq = [    9405,   13301] index = [      44231715,88464951] size =     44233236
	Batch   3 pq = [   13301,   16290] index = [      88464951,132690195] size =     44225244
	Batch   4 pq = [   16290,   18810] index = [     132690195,176917455] size =     44227260
	Batch   5 pq = [   18810,   19306] index = [     176917455,186370471] size =      9453016
  Task number: 17
  Buffer size: 11059200
  Buffer per thread: 2
  We computed 9675178 shell quartets total.
  Whereas there are 10841496 unique shell quartets.

  ==> DiskJK: Disk-Based J/K Matrices <==

    J tasked:                  Yes
    K tasked:                  Yes
    wK tasked:                  No
    Memory [MiB]:              375
    Schwarz Cutoff:          1E-12

    OpenMP threads:              1

  Minimum eigenvalue in the overlap matrix is 3.3140174835E-04.
  Using Symmetric Orthogonalization.

  SCF Guess: Superposition of Atomic Densities via on-the-fly atomic UHF.

  ==> Iterations <==

                        Total Energy        Delta E     RMS |[F,P]|

   @RHF iter SAD:  -347.81200497373084   -3.47812e+02   0.00000e+00
   @RHF iter   1:  -348.76411536757223   -9.52110e-01   2.88452e-03 DIIS
   @RHF iter   2:  -348.95538237502348   -1.91267e-01   1.19888e-03 DIIS
   @RHF iter   3:  -348.98550477941956   -3.01224e-02   2.62566e-04 DIIS
   @RHF iter   4:  -348.98799487541612   -2.49010e-03   6.41179e-05 DIIS
   @RHF iter   5:  -348.98809521751099   -1.00342e-04   2.08597e-05 DIIS
   @RHF iter   6:  -348.98810594936958   -1.07319e-05   5.13805e-06 DIIS
   @RHF iter   7:  -348.98810671631685   -7.66947e-07   1.18354e-06 DIIS
   @RHF iter   8:  -348.98810676622850   -4.99116e-08   3.13988e-07 DIIS
   @RHF iter   9:  -348.98810677194314   -5.71464e-09   1.30627e-07 DIIS
   @RHF iter  10:  -348.98810677317266   -1.22952e-09   6.08703e-08 DIIS
   @RHF iter  11:  -348.98810677361951   -4.46846e-10   2.48121e-08 DIIS
   @RHF iter  12:  -348.98810677369283   -7.33280e-11   1.23910e-08 DIIS
   @RHF iter  13:  -348.98810677370801   -1.51772e-11   4.22196e-09 DIIS
   @RHF iter  14:  -348.98810677370841   -3.97904e-13   1.33200e-09 DIIS
   @RHF iter  15:  -348.98810677370818    2.27374e-13   4.18332e-10 DIIS
   @RHF iter  16:  -348.98810677370966   -1.47793e-12   1.51397e-10 DIIS
   @RHF iter  17:  -348.98810677370938    2.84217e-13   7.29864e-11 DIIS
  Energy and wave function converged.

  ==> Post-Iterations <==

    Orbital Energies [Eh]
    ---------------------

    Doubly Occupied:

       1A    -11.240428     2A    -11.239236     3A    -11.238581
       4A    -11.236117     5A    -11.232278     6A    -11.231499
       7A    -11.227543     8A    -11.212924     9A    -11.208341
      10A     -1.149156    11A     -1.044007    12A     -1.012123
      13A     -1.010407    14A     -0.928949    15A     -0.829239
      16A     -0.824331    17A     -0.793835    18A     -0.688001
      19A     -0.632537    20A     -0.630556    21A     -0.597167
      22A     -0.589958    23A     -0.584576    24A     -0.579184
      25A     -0.558188    26A     -0.536426    27A     -0.492302
      28A     -0.485972    29A     -0.485361    30A     -0.481494
      31A     -0.480922    32A     -0.473430    33A     -0.332795
      34A     -0.317704

    Virtual:

      35A      0.131272    36A      0.138682    37A      0.177988
      38A      0.194938    39A      0.206427    40A      0.214216
      41A      0.233710    42A      0.244462    43A      0.255198
      44A      0.262308    45A      0.270584    46A      0.279873
      47A      0.282972    48A      0.292478    49A      0.300483
      50A      0.322713    51A      0.366786    52A      0.375722
      53A      0.395751    54A      0.448982    55A      0.456374
      56A      0.482403    57A      0.485502    58A      0.565906
      59A      0.584752    60A      0.599990    61A      0.603752
      62A      0.619064    63A      0.638427    64A      0.657765
      65A      0.670869    66A      0.679348    67A      0.686541
      68A      0.709615    69A      0.723117    70A      0.738526
      71A      0.741121    72A      0.750790    73A      0.761377
      74A      0.769338    75A      0.772052    76A      0.827690
      77A      0.847826    78A      0.849456    79A      0.865594
      80A      0.869601    81A      0.879588    82A      0.885965
      83A      0.896880    84A      0.899050    85A      0.900607
      86A      0.907332    87A      0.917388    88A      0.925707
      89A      0.933008    90A      0.939868    91A      0.942796
      92A      0.973026    93A      0.988498    94A      0.998518
      95A      1.020528    96A      1.051437    97A      1.108082
      98A      1.127482    99A      1.131086   100A      1.147611
     101A      1.151132   102A      1.170868   103A      1.200651
     104A      1.223605   105A      1.243038   106A      1.244608
     107A      1.251903   108A      1.276771   109A      1.299422
     110A      1.307335   111A      1.315384   112A      1.331601
     113A      1.408729   114A      1.489770   115A      1.495836
     116A      1.507367   117A      1.517004   118A      1.564755
     119A      1.579624   120A      1.606667   121A      1.675740
     122A      1.679801   123A      1.691154   124A      1.699158
     125A      1.737073   126A      1.746426   127A      1.771260
     128A      1.792038   129A      1.802853   130A      1.854033
     131A      1.865120   132A      1.869834   133A      1.881843
     134A      1.897703   135A      1.898106   136A      1.909943
     137A      1.918812   138A      1.928733   139A      1.935192
     140A      1.943333   141A      1.953443   142A      1.958730
     143A      1.961721   144A      1.973667   145A      1.976524
     146A      1.983145   147A      1.992266   148A      2.000290
     149A      2.047966   150A      2.058657   151A      2.070931
     152A      2.102159   153A      2.120038   154A      2.130862
     155A      2.141796   156A      2.150635   157A      2.152222
     158A      2.166674   159A      2.180238   160A      2.246482
     161A      2.270699   162A      2.281669   163A      2.287851
     164A      2.300090   165A      2.308773   166A      2.313157
     167A      2.338791   168A      2.452524   169A      2.464014
     170A      2.481891   171A      2.486981   172A      2.497642
     173A      2.539234   174A      2.580995   175A      2.582863
     176A      2.615193   177A      2.734625   178A      2.745720
     179A      2.774182   180A      2.776429   181A      2.779835
     182A      2.797983   183A      2.808347   184A      2.841005
     185A      2.845758   186A      2.853744   187A      2.877931
     188A      2.950180   189A      2.971695   190A      2.988195
     191A      2.991055   192A      3.013924   193A      3.133699
     194A      3.187593   195A      3.280118   196A      3.941962

    Final Occupation by Irrep:
              A
    DOCC [    34 ]

  @RHF Final Energy:  -348.98810677370938

   => Energetics <=

    Nuclear Repulsion Energy =            408.4013584281930207
    One-Electron Energy =               -1279.5677940811715416
    Two-Electron Energy =                 522.1783288792690882
    Total Energy =                       -348.9881067737094327

Computation Completed

Properties will be evaluated at   0.000000,   0.000000,   0.000000 [a0]

Properties computed using the SCF density matrix

  Nuclear Dipole Moment: [e a0]
     X:    -9.4451      Y:     1.9360      Z:    -1.9904

  Electronic Dipole Moment: [e a0]
     X:     9.5568      Y:    -1.8771      Z:     1.9068

  Dipole Moment: [e a0]
     X:     0.1117      Y:     0.0589      Z:    -0.0836     Total:     0.1515

  Dipole Moment: [D]
     X:     0.2839      Y:     0.1497      Z:    -0.2126     Total:     0.3850

*** tstop() called on ds3 at Tue Apr 28 11:28:48 2020
Module time:
	user time   =      67.05 seconds =       1.12 minutes
	system time =      25.52 seconds =       0.43 minutes
	total time  =        118 seconds =       1.97 minutes
Total time:
	user time   =      67.05 seconds =       1.12 minutes
	system time =      25.52 seconds =       0.43 minutes
	total time  =        118 seconds =       1.97 minutes
                                     G D M A

                                 by Anthony Stone

                           version 2.2.06, 22 June 2011

               Distributed Multipoles from Gaussian wavefunctions

Starting at 11:28:49 on 28 Apr 2020

Using SCF density matrix from file ./SSI/SSI-088PHE-092LEU-1-dimer.test.17391.fchk

                         Distributed Multipole Analysis

Standard DMA

Positions and radii in angstrom
Multipole moments in atomic units, ea_0^k for rank k

C          x =  2.535018  y =  1.259173  z = -1.564298 angstrom
           Maximum rank =  0   Radius =  0.650 angstrom
                   Q00  =  -0.183834

C          x =  0.085018  y = -0.988827  z =  1.145702 angstrom
           Maximum rank =  0   Radius =  0.650 angstrom
                   Q00  =  -0.099872

C          x =  0.607018  y = -1.614827  z =  0.007702 angstrom
           Maximum rank =  0   Radius =  0.650 angstrom
                   Q00  =  -0.074540

C          x =  0.386018  y =  0.372173  z =  1.411702 angstrom
           Maximum rank =  0   Radius =  0.650 angstrom
                   Q00  =  -0.070231

C          x =  1.419018  y = -0.876827  z = -0.854298 angstrom
           Maximum rank =  0   Radius =  0.650 angstrom
                   Q00  =   0.000963

C          x =  1.214018  y =  1.090173  z =  0.539702 angstrom
           Maximum rank =  0   Radius =  0.650 angstrom
                   Q00  =  -0.082224

C          x =  1.721018  y =  0.465173  z = -0.597298 angstrom
           Maximum rank =  0   Radius =  0.650 angstrom
                   Q00  =  -0.108204

H          x = -0.548982  y = -1.551827  z =  1.821702 angstrom
           Maximum rank =  0   Radius =  0.325 angstrom
                   Q00  =   0.066883

H          x =  0.383018  y = -2.651827  z = -0.200298 angstrom
           Maximum rank =  0   Radius =  0.325 angstrom
                   Q00  =   0.068602

H          x = -0.018982  y =  0.866173  z =  2.286702 angstrom
           Maximum rank =  0   Radius =  0.325 angstrom
                   Q00  =   0.069979

H          x =  1.825018  y = -1.341827  z = -1.740298 angstrom
           Maximum rank =  0   Radius =  0.325 angstrom
                   Q00  =   0.056072

H          x =  1.456018  y =  2.124173  z =  0.742702 angstrom
           Maximum rank =  0   Radius =  0.325 angstrom
                   Q00  =   0.060010

H          x =  3.275018  y =  0.583173  z = -1.984298 angstrom
           Maximum rank =  0   Radius =  0.325 angstrom
                   Q00  =   0.094948

H          x =  3.042018  y =  2.032173  z = -0.988298 angstrom
           Maximum rank =  0   Radius =  0.325 angstrom
                   Q00  =   0.095166

H          x =  1.946733  y =  1.682543  z = -2.391748 angstrom
           Maximum rank =  0   Radius =  0.325 angstrom
                   Q00  =   0.105129

C          x = -3.329982  y = -0.036827  z =  0.768702 angstrom
           Maximum rank =  0   Radius =  0.650 angstrom
                   Q00  =  -0.222381

C          x = -3.790982  y =  0.157173  z = -0.679298 angstrom
           Maximum rank =  0   Radius =  0.650 angstrom
                   Q00  =  -0.218215

H          x = -4.128982  y =  0.266173  z =  1.437702 angstrom
           Maximum rank =  0   Radius =  0.325 angstrom
                   Q00  =   0.071286

H          x = -3.093982  y = -1.086827  z =  0.944702 angstrom
           Maximum rank =  0   Radius =  0.325 angstrom
                   Q00  =   0.074276

H          x = -2.444982  y =  0.569173  z =  0.960702 angstrom
           Maximum rank =  0   Radius =  0.325 angstrom
                   Q00  =   0.087856

H          x = -4.720982  y = -0.388827  z = -0.817298 angstrom
           Maximum rank =  0   Radius =  0.325 angstrom
                   Q00  =   0.072660

H          x = -4.014671  y =  1.222393  z = -0.838258 angstrom
           Maximum rank =  0   Radius =  0.325 angstrom
                   Q00  =   0.064565

H          x = -3.031318  y = -0.259657  z = -1.356918 angstrom
           Maximum rank =  0   Radius =  0.325 angstrom
                   Q00  =   0.071107

Total multipoles referred to origin at
           x =   0.000000,  y =    0.000000,  z =    0.000000 angstrom
                   Q00  =  -0.000000

Finished at 11:28:49 on 28 Apr 2020

  DMA results are available in the Python driver through the
	  variable('DMA DISTRIBUTED MULTIPOLES')
  and
	  variable('DMA TOTAL MULTIPOLES')
  commands.

    Psi4 stopped on: Tuesday, 28 April 2020 11:28AM
    Psi4 wall time for execution: 0:01:58.28

*** Psi4 exiting successfully. Buy a developer a beer!
