                               Psi4 1.3.2 release

  ==> Input File <==

--------------------------------------------------------------------------
import numpy as np
set {scf_type pk
basis cc-pvdz
d_convergence 10
gdma_switch   0
gdma_limit    0
gdma_origin   [ 0.0,  0.0,  0.0 ]
}
molecule test {
    units Angstrom
    0 1
    --
    0 1
    C                0.121185178033718    -3.695923152320188    -0.423189730565687
    C               -0.172814821966282    -5.153923152320188    -0.089189730565687
    H                1.192185178033718    -3.512923152320188    -0.461189730565687
    H               -0.303814821966282    -3.461923152320188    -1.399189730565687
    H               -0.333814821966282    -3.042923152320188     0.321810269434313
    H                0.317185178033718    -5.789923152320189    -0.829189730565687
    H               -1.247814821966282    -5.295923152320190    -0.203189730565687
    H                0.133069178033718    -5.464105152320188     0.920870269434313
    C               -0.439814821966282    -0.271923152320188    -2.035189730565687
    C               -1.004814821966282     0.612076847679812    -3.161189730565688
    C               -0.138814821966282     0.463076847679812    -0.737189730565687
    C               -1.141814821966282     0.686076847679812     0.210810269434313
    C                1.154185178033718     0.917076847679812    -0.459189730565687
    C               -0.861814821966282     1.353076847679812     1.409810269434313
    C                1.440185178033718     1.587076847679812     0.735810269434313
    C                0.430185178033718     1.804076847679812     1.671810269434313
    O                0.704185178033718     2.459076847679812     2.838810269434312
    H               -1.157814821966282    -1.065923152320188    -1.824189730565687
    H                0.475185178033718    -0.751923152320188    -2.383189730565687
    H               -1.960814821966282     1.019076847679812    -2.829189730565687
    H               -2.145814821966283     0.333076847679812     0.019810269434313
    H                1.941185178033718     0.763076847679812    -1.183189730565687
    H               -1.633814821966282     1.500076847679812     2.145810269434313
    H                2.440185178033718     1.941076847679812     0.938810269434313
    H               -0.075814821966282     2.555076847679812     3.396810269434312
    H               -1.168258821966282     0.017531847679812    -4.072129730565687
    H               -0.334589821966282     1.461698847679812    -3.358529730565688

}
e, wfn = energy('scf', return_wfn=True)
gdma(wfn)
dmavals = variable('DMA DISTRIBUTED MULTIPOLES')
charges = np.array(dmavals)
print(charges)
np.save('SSI-008ILE-041TYR-1-dimer.npy', np.array(charges))--------------------------------------------------------------------------

*** tstart() called on ds3
*** at Tue Apr 28 16:44:00 2020

   => Loading Basis Set <=

    Name: CC-PVDZ
    Role: ORBITAL
    Keyword: BASIS
    atoms 1-2, 9-16  entry C          line   138 file /theoryfs2/ds/metcalf/miniconda2/envs/tf2gpu/share/psi4/basis/cc-pvdz.gbs
    atoms 3-8, 18-27 entry H          line    22 file /theoryfs2/ds/metcalf/miniconda2/envs/tf2gpu/share/psi4/basis/cc-pvdz.gbs
    atoms 17         entry O          line   198 file /theoryfs2/ds/metcalf/miniconda2/envs/tf2gpu/share/psi4/basis/cc-pvdz.gbs

         ---------------------------------------------------------
                                   SCF
               by Justin Turney, Rob Parrish, Andy Simmonett
                          and Daniel G. A. Smith
                              RHF Reference
                        1 Threads,    500 MiB Core
         ---------------------------------------------------------

  ==> Geometry <==

    Molecular point group: c1
    Full point group: C1

    Geometry (in Angstrom), charge = 0, multiplicity = 1:

       Center              X                  Y                   Z               Mass
    ------------   -----------------  -----------------  -----------------  -----------------
         C            0.121185178034    -3.695923152320    -0.423189730566    12.000000000000
         C           -0.172814821966    -5.153923152320    -0.089189730566    12.000000000000
         H            1.192185178034    -3.512923152320    -0.461189730566     1.007825032230
         H           -0.303814821966    -3.461923152320    -1.399189730566     1.007825032230
         H           -0.333814821966    -3.042923152320     0.321810269434     1.007825032230
         H            0.317185178034    -5.789923152320    -0.829189730566     1.007825032230
         H           -1.247814821966    -5.295923152320    -0.203189730566     1.007825032230
         H            0.133069178034    -5.464105152320     0.920870269434     1.007825032230
         C           -0.439814821966    -0.271923152320    -2.035189730566    12.000000000000
         C           -1.004814821966     0.612076847680    -3.161189730566    12.000000000000
         C           -0.138814821966     0.463076847680    -0.737189730566    12.000000000000
         C           -1.141814821966     0.686076847680     0.210810269434    12.000000000000
         C            1.154185178034     0.917076847680    -0.459189730566    12.000000000000
         C           -0.861814821966     1.353076847680     1.409810269434    12.000000000000
         C            1.440185178034     1.587076847680     0.735810269434    12.000000000000
         C            0.430185178034     1.804076847680     1.671810269434    12.000000000000
         O            0.704185178034     2.459076847680     2.838810269434    15.994914619570
         H           -1.157814821966    -1.065923152320    -1.824189730566     1.007825032230
         H            0.475185178034    -0.751923152320    -2.383189730566     1.007825032230
         H           -1.960814821966     1.019076847680    -2.829189730566     1.007825032230
         H           -2.145814821966     0.333076847680     0.019810269434     1.007825032230
         H            1.941185178034     0.763076847680    -1.183189730566     1.007825032230
         H           -1.633814821966     1.500076847680     2.145810269434     1.007825032230
         H            2.440185178034     1.941076847680     0.938810269434     1.007825032230
         H           -0.075814821966     2.555076847680     3.396810269434     1.007825032230
         H           -1.168258821966     0.017531847680    -4.072129730566     1.007825032230
         H           -0.334589821966     1.461698847680    -3.358529730566     1.007825032230

  Running in c1 symmetry.

  Rotational constants: A =      0.03605  B =      0.01642  C =      0.01294 [cm^-1]
  Rotational constants: A =   1080.60691  B =    492.11901  C =    387.92710 [MHz]
  Nuclear repulsion =  570.500440740612362

  Charge       = 0
  Multiplicity = 1
  Electrons    = 84
  Nalpha       = 42
  Nbeta        = 42

  ==> Algorithm <==

  SCF Algorithm Type is PK.
  DIIS enabled.
  MOM disabled.
  Fractional occupation disabled.
  Guess Type is SAD.
  Energy threshold   = 1.00e-06
  Density threshold  = 1.00e-10
  Integral threshold = 0.00e+00

  ==> Primary Basis <==

  Basis Set: CC-PVDZ
    Blend: CC-PVDZ
    Number of shells: 114
    Number of basis function: 234
    Number of Cartesian functions: 245
    Spherical Harmonics?: true
    Max angular momentum: 2

  ==> Pre-Iterations <==

   -------------------------------------------------------
    Irrep   Nso     Nmo     Nalpha   Nbeta   Ndocc  Nsocc
   -------------------------------------------------------
     A        234     234       0       0       0       0
   -------------------------------------------------------
    Total     234     234      42      42      42       0
   -------------------------------------------------------

  ==> Integral Setup <==

  Using integral reordering PK algorithm.
  Sizing the integral batches needed.
  Building batch lookup table.
   Calculation information:
      Number of atoms:                  27
      Number of AO shells:             114
      Number of primitives:            322
      Number of atomic orbitals:       245
      Number of basis functions:       234

      Integral cutoff                 1.00e-12
      Number of threads:                 1

	Batch   1 pq = [       0,    9405] index = [             0,44231715] size =     44231715
	Batch   2 pq = [    9405,   13301] index = [      44231715,88464951] size =     44233236
	Batch   3 pq = [   13301,   16290] index = [      88464951,132690195] size =     44225244
	Batch   4 pq = [   16290,   18810] index = [     132690195,176917455] size =     44227260
	Batch   5 pq = [   18810,   21030] index = [     176917455,221140965] size =     44223510
	Batch   6 pq = [   21030,   23037] index = [     221140965,265363203] size =     44222238
	Batch   7 pq = [   23037,   24883] index = [     265363203,309594286] size =     44231083
	Batch   8 pq = [   24883,   26601] index = [     309594286,353819901] size =     44225615
	Batch   9 pq = [   26601,   27495] index = [     353819901,378001260] size =     24181359
  Task number: 35
  Buffer size: 11059200
  Buffer per thread: 2
  We computed 18433734 shell quartets total.
  Whereas there are 21487290 unique shell quartets.

  ==> DiskJK: Disk-Based J/K Matrices <==

    J tasked:                  Yes
    K tasked:                  Yes
    wK tasked:                  No
    Memory [MiB]:              375
    Schwarz Cutoff:          1E-12

    OpenMP threads:              1

  Minimum eigenvalue in the overlap matrix is 3.3068622547E-04.
  Using Symmetric Orthogonalization.

  SCF Guess: Superposition of Atomic Densities via on-the-fly atomic UHF.

  ==> Iterations <==

                        Total Energy        Delta E     RMS |[F,P]|

   @RHF iter SAD:  -461.58693161320673   -4.61587e+02   0.00000e+00
   @RHF iter   1:  -462.61315722411069   -1.02623e+00   2.79405e-03 DIIS
   @RHF iter   2:  -462.85117387883065   -2.38017e-01   1.18467e-03 DIIS
   @RHF iter   3:  -462.89005112946234   -3.88773e-02   2.70954e-04 DIIS
   @RHF iter   4:  -462.89328835502232   -3.23723e-03   1.14211e-04 DIIS
   @RHF iter   5:  -462.89370311735502   -4.14762e-04   1.93731e-05 DIIS
   @RHF iter   6:  -462.89372255132827   -1.94340e-05   5.44390e-06 DIIS
   @RHF iter   7:  -462.89372402141305   -1.47008e-06   1.94999e-06 DIIS
   @RHF iter   8:  -462.89372422311897   -2.01706e-07   6.70911e-07 DIIS
   @RHF iter   9:  -462.89372425135917   -2.82402e-08   2.02116e-07 DIIS
   @RHF iter  10:  -462.89372425425972   -2.90055e-09   6.99342e-08 DIIS
   @RHF iter  11:  -462.89372425479263   -5.32907e-10   3.22334e-08 DIIS
   @RHF iter  12:  -462.89372425492070   -1.28068e-10   1.72122e-08 DIIS
   @RHF iter  13:  -462.89372425496788   -4.71800e-11   7.26200e-09 DIIS
   @RHF iter  14:  -462.89372425497879   -1.09139e-11   1.82002e-09 DIIS
   @RHF iter  15:  -462.89372425497595    2.84217e-12   6.26447e-10 DIIS
   @RHF iter  16:  -462.89372425497936   -3.41061e-12   2.26771e-10 DIIS
   @RHF iter  17:  -462.89372425497771    1.64846e-12   9.56762e-11 DIIS
  Energy and wave function converged.

  ==> Post-Iterations <==

    Orbital Energies [Eh]
    ---------------------

    Doubly Occupied:

       1A    -20.583234     2A    -11.300348     3A    -11.240861
       4A    -11.239478     5A    -11.234012     6A    -11.232758
       7A    -11.231184     8A    -11.229267     9A    -11.222892
      10A    -11.216087    11A    -11.213426    12A     -1.397996
      13A     -1.148706    14A     -1.054232    15A     -1.017327
      16A     -1.015251    17A     -0.975916    18A     -0.859534
      19A     -0.843133    20A     -0.834862    21A     -0.790930
      22A     -0.731134    23A     -0.669016    24A     -0.644973
      25A     -0.612845    26A     -0.596570    27A     -0.595734
      28A     -0.593671    29A     -0.585384    30A     -0.582212
      31A     -0.568999    32A     -0.546130    33A     -0.519568
      34A     -0.500257    35A     -0.495430    36A     -0.483286
      37A     -0.482039    38A     -0.477182    39A     -0.473108
      40A     -0.462235    41A     -0.336696    42A     -0.301957

    Virtual:

      43A      0.128800    44A      0.152007    45A      0.178223
      46A      0.179961    47A      0.193288    48A      0.210807
      49A      0.215507    50A      0.224124    51A      0.245471
      52A      0.253230    53A      0.259400    54A      0.261856
      55A      0.273965    56A      0.287435    57A      0.288174
      58A      0.294450    59A      0.304691    60A      0.314952
      61A      0.347273    62A      0.380110    63A      0.393602
      64A      0.422255    65A      0.425870    66A      0.470383
      67A      0.483375    68A      0.495751    69A      0.518079
      70A      0.575076    71A      0.592938    72A      0.597966
      73A      0.604470    74A      0.619203    75A      0.643413
      76A      0.648127    77A      0.666475    78A      0.678289
      79A      0.686559    80A      0.697157    81A      0.712138
      82A      0.717863    83A      0.727472    84A      0.736665
      85A      0.740434    86A      0.751542    87A      0.764850
      88A      0.787524    89A      0.803048    90A      0.816839
      91A      0.826169    92A      0.848136    93A      0.865536
      94A      0.875426    95A      0.878991    96A      0.892497
      97A      0.894667    98A      0.896079    99A      0.897381
     100A      0.905127   101A      0.907213   102A      0.919133
     103A      0.927132   104A      0.932619   105A      0.940981
     106A      0.944646   107A      0.951422   108A      0.962379
     109A      0.968565   110A      0.974249   111A      1.002247
     112A      1.019575   113A      1.034274   114A      1.083174
     115A      1.115843   116A      1.131469   117A      1.137920
     118A      1.144359   119A      1.150651   120A      1.165264
     121A      1.187524   122A      1.215887   123A      1.244301
     124A      1.246613   125A      1.262331   126A      1.283469
     127A      1.289190   128A      1.302218   129A      1.309117
     130A      1.349277   131A      1.353809   132A      1.377210
     133A      1.412380   134A      1.430197   135A      1.459040
     136A      1.486829   137A      1.493599   138A      1.504285
     139A      1.547244   140A      1.589297   141A      1.601686
     142A      1.620674   143A      1.633047   144A      1.676472
     145A      1.683101   146A      1.686017   147A      1.698679
     148A      1.728530   149A      1.731697   150A      1.770413
     151A      1.798799   152A      1.837261   153A      1.846095
     154A      1.863051   155A      1.869686   156A      1.878098
     157A      1.880783   158A      1.883674   159A      1.895179
     160A      1.901763   161A      1.912356   162A      1.916521
     163A      1.924572   164A      1.935732   165A      1.946416
     166A      1.951135   167A      1.956539   168A      1.959714
     169A      1.965637   170A      1.967927   171A      1.974354
     172A      1.994022   173A      2.000742   174A      2.012942
     175A      2.031709   176A      2.041870   177A      2.057752
     178A      2.070250   179A      2.089033   180A      2.091617
     181A      2.107984   182A      2.127721   183A      2.133786
     184A      2.144269   185A      2.151834   186A      2.190412
     187A      2.227212   188A      2.251923   189A      2.269482
     190A      2.305544   191A      2.306847   192A      2.308326
     193A      2.325556   194A      2.363537   195A      2.373521
     196A      2.441188   197A      2.451519   198A      2.458059
     199A      2.462074   200A      2.477661   201A      2.480701
     202A      2.496879   203A      2.528796   204A      2.540139
     205A      2.558349   206A      2.561397   207A      2.584828
     208A      2.624855   209A      2.639648   210A      2.752265
     211A      2.761393   212A      2.770866   213A      2.783639
     214A      2.796058   215A      2.809653   216A      2.852172
     217A      2.861983   218A      2.872103   219A      2.875148
     220A      2.902712   221A      2.950759   222A      2.953345
     223A      2.962500   224A      2.979767   225A      3.008606
     226A      3.081830   227A      3.158957   228A      3.245955
     229A      3.281067   230A      3.345723   231A      3.566940
     232A      3.661244   233A      3.964519   234A      4.187100

    Final Occupation by Irrep:
              A
    DOCC [    42 ]

  @RHF Final Energy:  -462.89372425497771

   => Energetics <=

    Nuclear Repulsion Energy =            570.5004407406123619
    One-Electron Energy =               -1758.5086074315636324
    Two-Electron Energy =                 725.1144424359736149
    Total Energy =                       -462.8937242549777693

Computation Completed

Properties will be evaluated at   0.000000,   0.000000,   0.000000 [a0]

Properties computed using the SCF density matrix

  Nuclear Dipole Moment: [e a0]
     X:    -3.6184      Y:   -17.6078      Z:   -10.1103

  Electronic Dipole Moment: [e a0]
     X:     3.0725      Y:    17.4960      Z:    10.1124

  Dipole Moment: [e a0]
     X:    -0.5460      Y:    -0.1118      Z:     0.0021     Total:     0.5573

  Dipole Moment: [D]
     X:    -1.3877      Y:    -0.2843      Z:     0.0054     Total:     1.4165

*** tstop() called on ds3 at Tue Apr 28 16:48:58 2020
Module time:
	user time   =     131.80 seconds =       2.20 minutes
	system time =      52.64 seconds =       0.88 minutes
	total time  =        298 seconds =       4.97 minutes
Total time:
	user time   =     131.80 seconds =       2.20 minutes
	system time =      52.64 seconds =       0.88 minutes
	total time  =        298 seconds =       4.97 minutes
                                     G D M A

                                 by Anthony Stone

                           version 2.2.06, 22 June 2011

               Distributed Multipoles from Gaussian wavefunctions

Starting at 16:48:58 on 28 Apr 2020

Using SCF density matrix from file ./SSI/SSI-008ILE-041TYR-1-dimer.test.17434.fchk

                         Distributed Multipole Analysis

Standard DMA

Positions and radii in angstrom
Multipole moments in atomic units, ea_0^k for rank k

C          x =  0.121185  y = -3.695923  z = -0.423190 angstrom
           Maximum rank =  0   Radius =  0.650 angstrom
                   Q00  =  -0.230618

C          x = -0.172815  y = -5.153923  z = -0.089190 angstrom
           Maximum rank =  0   Radius =  0.650 angstrom
                   Q00  =  -0.238626

H          x =  1.192185  y = -3.512923  z = -0.461190 angstrom
           Maximum rank =  0   Radius =  0.325 angstrom
                   Q00  =   0.080054

H          x = -0.303815  y = -3.461923  z = -1.399190 angstrom
           Maximum rank =  0   Radius =  0.325 angstrom
                   Q00  =   0.074658

H          x = -0.333815  y = -3.042923  z =  0.321810 angstrom
           Maximum rank =  0   Radius =  0.325 angstrom
                   Q00  =   0.082369

H          x =  0.317185  y = -5.789923  z = -0.829190 angstrom
           Maximum rank =  0   Radius =  0.325 angstrom
                   Q00  =   0.075984

H          x = -1.247815  y = -5.295923  z = -0.203190 angstrom
           Maximum rank =  0   Radius =  0.325 angstrom
                   Q00  =   0.073592

H          x =  0.133069  y = -5.464105  z =  0.920870 angstrom
           Maximum rank =  0   Radius =  0.325 angstrom
                   Q00  =   0.082942

C          x = -0.439815  y = -0.271923  z = -2.035190 angstrom
           Maximum rank =  0   Radius =  0.650 angstrom
                   Q00  =  -0.027255

C          x = -1.004815  y =  0.612077  z = -3.161190 angstrom
           Maximum rank =  0   Radius =  0.650 angstrom
                   Q00  =  -0.238623

C          x = -0.138815  y =  0.463077  z = -0.737190 angstrom
           Maximum rank =  0   Radius =  0.650 angstrom
                   Q00  =  -0.151645

C          x = -1.141815  y =  0.686077  z =  0.210810 angstrom
           Maximum rank =  0   Radius =  0.650 angstrom
                   Q00  =  -0.030979

C          x =  1.154185  y =  0.917077  z = -0.459190 angstrom
           Maximum rank =  0   Radius =  0.650 angstrom
                   Q00  =   0.039731

C          x = -0.861815  y =  1.353077  z =  1.409810 angstrom
           Maximum rank =  0   Radius =  0.650 angstrom
                   Q00  =  -0.198288

C          x =  1.440185  y =  1.587077  z =  0.735810 angstrom
           Maximum rank =  0   Radius =  0.650 angstrom
                   Q00  =  -0.123238

C          x =  0.430185  y =  1.804077  z =  1.671810 angstrom
           Maximum rank =  0   Radius =  0.650 angstrom
                   Q00  =   0.336767

O          x =  0.704185  y =  2.459077  z =  2.838810 angstrom
           Maximum rank =  0   Radius =  0.650 angstrom
                   Q00  =  -0.677391

H          x = -1.157815  y = -1.065923  z = -1.824190 angstrom
           Maximum rank =  0   Radius =  0.325 angstrom
                   Q00  =   0.064544

H          x =  0.475185  y = -0.751923  z = -2.383190 angstrom
           Maximum rank =  0   Radius =  0.325 angstrom
                   Q00  =   0.065069

H          x = -1.960815  y =  1.019077  z = -2.829190 angstrom
           Maximum rank =  0   Radius =  0.325 angstrom
                   Q00  =   0.079987

H          x = -2.145815  y =  0.333077  z =  0.019810 angstrom
           Maximum rank =  0   Radius =  0.325 angstrom
                   Q00  =   0.068473

H          x =  1.941185  y =  0.763077  z = -1.183190 angstrom
           Maximum rank =  0   Radius =  0.325 angstrom
                   Q00  =   0.064228

H          x = -1.633815  y =  1.500077  z =  2.145810 angstrom
           Maximum rank =  0   Radius =  0.325 angstrom
                   Q00  =   0.071446

H          x =  2.440185  y =  1.941077  z =  0.938810 angstrom
           Maximum rank =  0   Radius =  0.325 angstrom
                   Q00  =   0.081284

H          x = -0.075815  y =  2.555077  z =  3.396810 angstrom
           Maximum rank =  0   Radius =  0.325 angstrom
                   Q00  =   0.407187

H          x = -1.168259  y =  0.017532  z = -4.072130 angstrom
           Maximum rank =  0   Radius =  0.325 angstrom
                   Q00  =   0.083888

H          x = -0.334590  y =  1.461699  z = -3.358530 angstrom
           Maximum rank =  0   Radius =  0.325 angstrom
                   Q00  =   0.084461

Total multipoles referred to origin at
           x =   0.000000,  y =    0.000000,  z =    0.000000 angstrom
                   Q00  =  -0.000000

Finished at 16:48:58 on 28 Apr 2020

  DMA results are available in the Python driver through the
	  variable('DMA DISTRIBUTED MULTIPOLES')
  and
	  variable('DMA TOTAL MULTIPOLES')
  commands.

    Psi4 stopped on: Tuesday, 28 April 2020 04:48PM
    Psi4 wall time for execution: 0:04:58.33

*** Psi4 exiting successfully. Buy a developer a beer!
