                               Psi4 1.3.2 release

  ==> Input File <==

--------------------------------------------------------------------------
import numpy as np
set {scf_type pk
basis cc-pvdz
d_convergence 10
gdma_switch   0
gdma_limit    0
gdma_origin   [ 0.0,  0.0,  0.0 ]
}
molecule test {
    units Angstrom
    0 1
    --
    0 1
    C                0.162543057726182    -3.184450287707480    -1.688028121746104
    C               -0.298456942273818    -3.256450287707480    -3.148028121746104
    H                0.025543057726182    -4.156450287707480    -1.212028121746104
    H                1.219543057726182    -2.919450287707479    -1.649028121746104
    H               -0.404456942273818    -2.454450287707480    -1.122028121746104
    H                0.021543057726182    -2.339450287707479    -3.646028121746104
    H               -1.393056942273818    -3.342399287707480    -3.214828121746104
    H                0.201363057726182    -4.098854287707479    -3.648528121746104
    C               -1.378456942273818     2.162549712292520    -0.894028121746104
    C               -0.168456942273818     0.158549712292520    -0.013028121746104
    C               -0.526456942273818     1.495549712292520     0.156971878253896
    C                0.630543057726182    -0.497450287707480     0.926971878253896
    C               -0.051456942273818     2.184549712292521     1.281971878253896
    C                1.078543057726182     0.188549712292520     2.052971878253897
    C                0.735543057726182     1.529549712292520     2.232971878253896
    H               -0.505456942273818    -0.356450287707480    -0.897028121746104
    H                0.905543057726182    -1.533450287707480     0.780971878253896
    H               -2.127456942273818     1.449549712292520    -1.242028121746104
    H               -0.732456942273818     2.401549712292521    -1.739028121746104
    H               -0.286456942273818     3.223549712292521     1.449971878253896
    H                1.692543057726182    -0.316450287707480     2.786971878253896
    H                1.086543057726182     2.063549712292520     3.105971878253896
    H               -1.892796942273818     3.080599712292521    -0.573628121746104

}
e, wfn = energy('scf', return_wfn=True)
gdma(wfn)
dmavals = variable('DMA DISTRIBUTED MULTIPOLES')
charges = np.array(dmavals)
print(charges)
np.save('SSI-115VAL-123PHE-1-dimer.npy', np.array(charges))--------------------------------------------------------------------------

*** tstart() called on ds3
*** at Mon Apr 27 13:58:04 2020

   => Loading Basis Set <=

    Name: CC-PVDZ
    Role: ORBITAL
    Keyword: BASIS
    atoms 1-2, 9-15  entry C          line   138 file /theoryfs2/ds/metcalf/miniconda2/envs/tf2gpu/share/psi4/basis/cc-pvdz.gbs
    atoms 3-8, 16-23 entry H          line    22 file /theoryfs2/ds/metcalf/miniconda2/envs/tf2gpu/share/psi4/basis/cc-pvdz.gbs

         ---------------------------------------------------------
                                   SCF
               by Justin Turney, Rob Parrish, Andy Simmonett
                          and Daniel G. A. Smith
                              RHF Reference
                        1 Threads,    500 MiB Core
         ---------------------------------------------------------

  ==> Geometry <==

    Molecular point group: c1
    Full point group: C1

    Geometry (in Angstrom), charge = 0, multiplicity = 1:

       Center              X                  Y                   Z               Mass
    ------------   -----------------  -----------------  -----------------  -----------------
         C            0.162543057726    -3.184450287707    -1.688028121746    12.000000000000
         C           -0.298456942274    -3.256450287707    -3.148028121746    12.000000000000
         H            0.025543057726    -4.156450287707    -1.212028121746     1.007825032230
         H            1.219543057726    -2.919450287707    -1.649028121746     1.007825032230
         H           -0.404456942274    -2.454450287707    -1.122028121746     1.007825032230
         H            0.021543057726    -2.339450287707    -3.646028121746     1.007825032230
         H           -1.393056942274    -3.342399287707    -3.214828121746     1.007825032230
         H            0.201363057726    -4.098854287707    -3.648528121746     1.007825032230
         C           -1.378456942274     2.162549712293    -0.894028121746    12.000000000000
         C           -0.168456942274     0.158549712293    -0.013028121746    12.000000000000
         C           -0.526456942274     1.495549712293     0.156971878254    12.000000000000
         C            0.630543057726    -0.497450287707     0.926971878254    12.000000000000
         C           -0.051456942274     2.184549712293     1.281971878254    12.000000000000
         C            1.078543057726     0.188549712293     2.052971878254    12.000000000000
         C            0.735543057726     1.529549712293     2.232971878254    12.000000000000
         H           -0.505456942274    -0.356450287707    -0.897028121746     1.007825032230
         H            0.905543057726    -1.533450287707     0.780971878254     1.007825032230
         H           -2.127456942274     1.449549712293    -1.242028121746     1.007825032230
         H           -0.732456942274     2.401549712293    -1.739028121746     1.007825032230
         H           -0.286456942274     3.223549712293     1.449971878254     1.007825032230
         H            1.692543057726    -0.316450287707     2.786971878254     1.007825032230
         H            1.086543057726     2.063549712293     3.105971878254     1.007825032230
         H           -1.892796942274     3.080599712293    -0.573628121746     1.007825032230

  Running in c1 symmetry.

  Rotational constants: A =      0.07746  B =      0.02240  C =      0.01758 [cm^-1]
  Rotational constants: A =   2322.13561  B =    671.51973  C =    527.11006 [MHz]
  Nuclear repulsion =  400.691258416097241

  Charge       = 0
  Multiplicity = 1
  Electrons    = 68
  Nalpha       = 34
  Nbeta        = 34

  ==> Algorithm <==

  SCF Algorithm Type is PK.
  DIIS enabled.
  MOM disabled.
  Fractional occupation disabled.
  Guess Type is SAD.
  Energy threshold   = 1.00e-06
  Density threshold  = 1.00e-10
  Integral threshold = 0.00e+00

  ==> Primary Basis <==

  Basis Set: CC-PVDZ
    Blend: CC-PVDZ
    Number of shells: 96
    Number of basis function: 196
    Number of Cartesian functions: 205
    Spherical Harmonics?: true
    Max angular momentum: 2

  ==> Pre-Iterations <==

   -------------------------------------------------------
    Irrep   Nso     Nmo     Nalpha   Nbeta   Ndocc  Nsocc
   -------------------------------------------------------
     A        196     196       0       0       0       0
   -------------------------------------------------------
    Total     196     196      34      34      34       0
   -------------------------------------------------------

  ==> Integral Setup <==

  Using integral reordering PK algorithm.
  Sizing the integral batches needed.
  Building batch lookup table.
   Calculation information:
      Number of atoms:                  23
      Number of AO shells:              96
      Number of primitives:            268
      Number of atomic orbitals:       205
      Number of basis functions:       196

      Integral cutoff                 1.00e-12
      Number of threads:                 1

	Batch   1 pq = [       0,    9405] index = [             0,44231715] size =     44231715
	Batch   2 pq = [    9405,   13301] index = [      44231715,88464951] size =     44233236
	Batch   3 pq = [   13301,   16290] index = [      88464951,132690195] size =     44225244
	Batch   4 pq = [   16290,   18810] index = [     132690195,176917455] size =     44227260
	Batch   5 pq = [   18810,   19306] index = [     176917455,186370471] size =      9453016
  Task number: 17
  Buffer size: 11059200
  Buffer per thread: 2
  We computed 8746636 shell quartets total.
  Whereas there are 10841496 unique shell quartets.

  ==> DiskJK: Disk-Based J/K Matrices <==

    J tasked:                  Yes
    K tasked:                  Yes
    wK tasked:                  No
    Memory [MiB]:              375
    Schwarz Cutoff:          1E-12

    OpenMP threads:              1

  Minimum eigenvalue in the overlap matrix is 3.0912696202E-04.
  Using Symmetric Orthogonalization.

  SCF Guess: Superposition of Atomic Densities via on-the-fly atomic UHF.

  ==> Iterations <==

                        Total Energy        Delta E     RMS |[F,P]|

   @RHF iter SAD:  -347.83457805445187   -3.47835e+02   0.00000e+00
   @RHF iter   1:  -348.76801414877582   -9.33436e-01   2.87281e-03 DIIS
   @RHF iter   2:  -348.95920205906100   -1.91188e-01   1.18021e-03 DIIS
   @RHF iter   3:  -348.98848820357460   -2.92861e-02   2.57680e-04 DIIS
   @RHF iter   4:  -348.99095920653929   -2.47100e-03   5.13236e-05 DIIS
   @RHF iter   5:  -348.99102900347975   -6.97969e-05   1.75990e-05 DIIS
   @RHF iter   6:  -348.99103655803430   -7.55455e-06   4.69928e-06 DIIS
   @RHF iter   7:  -348.99103718600088   -6.27967e-07   1.25524e-06 DIIS
   @RHF iter   8:  -348.99103723495023   -4.89493e-08   2.86169e-07 DIIS
   @RHF iter   9:  -348.99103723958643   -4.63621e-09   1.12798e-07 DIIS
   @RHF iter  10:  -348.99103724042419   -8.37758e-10   5.02022e-08 DIIS
   @RHF iter  11:  -348.99103724070818   -2.83990e-10   1.92706e-08 DIIS
   @RHF iter  12:  -348.99103724076031   -5.21254e-11   9.26207e-09 DIIS
   @RHF iter  13:  -348.99103724076764   -7.33280e-12   3.66377e-09 DIIS
   @RHF iter  14:  -348.99103724076997   -2.33058e-12   1.04528e-09 DIIS
   @RHF iter  15:  -348.99103724076963    3.41061e-13   3.70456e-10 DIIS
   @RHF iter  16:  -348.99103724076997   -3.41061e-13   1.17843e-10 DIIS
   @RHF iter  17:  -348.99103724076986    1.13687e-13   5.03446e-11 DIIS
  Energy and wave function converged.

  ==> Post-Iterations <==

    Orbital Energies [Eh]
    ---------------------

    Doubly Occupied:

       1A    -11.242409     2A    -11.235651     3A    -11.235489
       4A    -11.231095     5A    -11.230573     6A    -11.230191
       7A    -11.229343     8A    -11.222301     9A    -11.218567
      10A     -1.149280    11A     -1.042579    12A     -1.020304
      13A     -1.008935    14A     -0.930451    15A     -0.840494
      16A     -0.823251    17A     -0.794086    18A     -0.689753
      19A     -0.630934    20A     -0.628419    21A     -0.602859
      22A     -0.599878    23A     -0.579128    24A     -0.575957
      25A     -0.562210    26A     -0.536142    27A     -0.501821
      28A     -0.492919    29A     -0.486006    30A     -0.484568
      31A     -0.482603    32A     -0.479238    33A     -0.330326
      34A     -0.319875

    Virtual:

      35A      0.135761    36A      0.141332    37A      0.172920
      38A      0.195374    39A      0.200022    40A      0.221140
      41A      0.235841    42A      0.249001    43A      0.250837
      44A      0.258618    45A      0.264267    46A      0.273740
      47A      0.280361    48A      0.291378    49A      0.300187
      50A      0.338554    51A      0.366552    52A      0.393643
      53A      0.399874    54A      0.455967    55A      0.458822
      56A      0.477786    57A      0.495886    58A      0.558620
      59A      0.592083    60A      0.598924    61A      0.612606
      62A      0.628675    63A      0.633425    64A      0.678859
      65A      0.687155    66A      0.694144    67A      0.707676
      68A      0.720327    69A      0.726366    70A      0.741856
      71A      0.742205    72A      0.748169    73A      0.761235
      74A      0.773102    75A      0.797618    76A      0.806333
      77A      0.841913    78A      0.846479    79A      0.854903
      80A      0.863584    81A      0.878113    82A      0.884459
      83A      0.887669    84A      0.889725    85A      0.893686
      86A      0.903822    87A      0.911744    88A      0.928254
      89A      0.931898    90A      0.936668    91A      0.947985
      92A      0.961796    93A      0.995227    94A      1.014983
      95A      1.025567    96A      1.047304    97A      1.109661
      98A      1.120955    99A      1.128613   100A      1.154405
     101A      1.159542   102A      1.169561   103A      1.201513
     104A      1.237816   105A      1.239884   106A      1.251277
     107A      1.265416   108A      1.271875   109A      1.304408
     110A      1.309102   111A      1.316913   112A      1.334556
     113A      1.421662   114A      1.465870   115A      1.487957
     116A      1.515643   117A      1.530092   118A      1.568923
     119A      1.584107   120A      1.604874   121A      1.667280
     122A      1.679670   123A      1.695264   124A      1.719845
     125A      1.740200   126A      1.743991   127A      1.758335
     128A      1.791761   129A      1.810469   130A      1.846910
     131A      1.862352   132A      1.875822   133A      1.883826
     134A      1.891190   135A      1.905914   136A      1.913753
     137A      1.917346   138A      1.921586   139A      1.930750
     140A      1.937744   141A      1.945416   142A      1.947981
     143A      1.959928   144A      1.973179   145A      1.975902
     146A      1.985406   147A      1.992828   148A      1.996614
     149A      2.037713   150A      2.071500   151A      2.077902
     152A      2.092529   153A      2.115873   154A      2.127715
     155A      2.140011   156A      2.158002   157A      2.169543
     158A      2.191934   159A      2.204478   160A      2.260671
     161A      2.274165   162A      2.284163   163A      2.298777
     164A      2.304856   165A      2.314859   166A      2.329867
     167A      2.361182   168A      2.451552   169A      2.459949
     170A      2.463293   171A      2.469547   172A      2.494081
     173A      2.537590   174A      2.565894   175A      2.592345
     176A      2.635152   177A      2.727852   178A      2.747172
     179A      2.758966   180A      2.769647   181A      2.779335
     182A      2.802821   183A      2.820362   184A      2.837298
     185A      2.845071   186A      2.857956   187A      2.863365
     188A      2.952595   189A      2.971552   190A      2.984943
     191A      3.009840   192A      3.035755   193A      3.163407
     194A      3.198857   195A      3.298523   196A      3.954271

    Final Occupation by Irrep:
              A
    DOCC [    34 ]

  @RHF Final Energy:  -348.99103724076986

   => Energetics <=

    Nuclear Repulsion Energy =            400.6912584160972415
    One-Electron Energy =               -1264.0293210742788688
    Two-Electron Energy =                 514.3470254174117144
    Total Energy =                       -348.9910372407698560

Computation Completed

Properties will be evaluated at   0.000000,   0.000000,   0.000000 [a0]

Properties computed using the SCF density matrix

  Nuclear Dipole Moment: [e a0]
     X:    -2.0526      Y:    -8.7172      Z:   -10.1437

  Electronic Dipole Moment: [e a0]
     X:     2.0032      Y:     8.7765      Z:    10.0341

  Dipole Moment: [e a0]
     X:    -0.0494      Y:     0.0594      Z:    -0.1096     Total:     0.1341

  Dipole Moment: [D]
     X:    -0.1256      Y:     0.1509      Z:    -0.2786     Total:     0.3408

*** tstop() called on ds3 at Mon Apr 27 13:59:32 2020
Module time:
	user time   =      62.08 seconds =       1.03 minutes
	system time =      29.39 seconds =       0.49 minutes
	total time  =         88 seconds =       1.47 minutes
Total time:
	user time   =      62.08 seconds =       1.03 minutes
	system time =      29.39 seconds =       0.49 minutes
	total time  =         88 seconds =       1.47 minutes
                                     G D M A

                                 by Anthony Stone

                           version 2.2.06, 22 June 2011

               Distributed Multipoles from Gaussian wavefunctions

Starting at 13:59:32 on 27 Apr 2020

Using SCF density matrix from file ./SSI/SSI-115VAL-123PHE-1-dimer.test.8395.fchk

                         Distributed Multipole Analysis

Standard DMA

Positions and radii in angstrom
Multipole moments in atomic units, ea_0^k for rank k

C          x =  0.162543  y = -3.184450  z = -1.688028 angstrom
           Maximum rank =  0   Radius =  0.650 angstrom
                   Q00  =  -0.239907

C          x = -0.298457  y = -3.256450  z = -3.148028 angstrom
           Maximum rank =  0   Radius =  0.650 angstrom
                   Q00  =  -0.241424

H          x =  0.025543  y = -4.156450  z = -1.212028 angstrom
           Maximum rank =  0   Radius =  0.325 angstrom
                   Q00  =   0.079130

H          x =  1.219543  y = -2.919450  z = -1.649028 angstrom
           Maximum rank =  0   Radius =  0.325 angstrom
                   Q00  =   0.078688

H          x = -0.404457  y = -2.454450  z = -1.122028 angstrom
           Maximum rank =  0   Radius =  0.325 angstrom
                   Q00  =   0.079394

H          x =  0.021543  y = -2.339450  z = -3.646028 angstrom
           Maximum rank =  0   Radius =  0.325 angstrom
                   Q00  =   0.076560

H          x = -1.393057  y = -3.342399  z = -3.214828 angstrom
           Maximum rank =  0   Radius =  0.325 angstrom
                   Q00  =   0.082079

H          x =  0.201363  y = -4.098854  z = -3.648528 angstrom
           Maximum rank =  0   Radius =  0.325 angstrom
                   Q00  =   0.082447

C          x = -1.378457  y =  2.162550  z = -0.894028 angstrom
           Maximum rank =  0   Radius =  0.650 angstrom
                   Q00  =  -0.211745

C          x = -0.168457  y =  0.158550  z = -0.013028 angstrom
           Maximum rank =  0   Radius =  0.650 angstrom
                   Q00  =   0.008669

C          x = -0.526457  y =  1.495550  z =  0.156972 angstrom
           Maximum rank =  0   Radius =  0.650 angstrom
                   Q00  =  -0.086156

C          x =  0.630543  y = -0.497450  z =  0.926972 angstrom
           Maximum rank =  0   Radius =  0.650 angstrom
                   Q00  =  -0.085746

C          x = -0.051457  y =  2.184550  z =  1.281972 angstrom
           Maximum rank =  0   Radius =  0.650 angstrom
                   Q00  =  -0.094435

C          x =  1.078543  y =  0.188550  z =  2.052972 angstrom
           Maximum rank =  0   Radius =  0.650 angstrom
                   Q00  =  -0.078093

C          x =  0.735543  y =  1.529550  z =  2.232972 angstrom
           Maximum rank =  0   Radius =  0.650 angstrom
                   Q00  =  -0.060798

H          x = -0.505457  y = -0.356450  z = -0.897028 angstrom
           Maximum rank =  0   Radius =  0.325 angstrom
                   Q00  =   0.053723

H          x =  0.905543  y = -1.533450  z =  0.780972 angstrom
           Maximum rank =  0   Radius =  0.325 angstrom
                   Q00  =   0.068288

H          x = -2.127457  y =  1.449550  z = -1.242028 angstrom
           Maximum rank =  0   Radius =  0.325 angstrom
                   Q00  =   0.098766

H          x = -0.732457  y =  2.401550  z = -1.739028 angstrom
           Maximum rank =  0   Radius =  0.325 angstrom
                   Q00  =   0.103548

H          x = -0.286457  y =  3.223550  z =  1.449972 angstrom
           Maximum rank =  0   Radius =  0.325 angstrom
                   Q00  =   0.058420

H          x =  1.692543  y = -0.316450  z =  2.786972 angstrom
           Maximum rank =  0   Radius =  0.325 angstrom
                   Q00  =   0.060956

H          x =  1.086543  y =  2.063550  z =  3.105972 angstrom
           Maximum rank =  0   Radius =  0.325 angstrom
                   Q00  =   0.065589

H          x = -1.892797  y =  3.080600  z = -0.573628 angstrom
           Maximum rank =  0   Radius =  0.325 angstrom
                   Q00  =   0.102049

Total multipoles referred to origin at
           x =   0.000000,  y =    0.000000,  z =    0.000000 angstrom
                   Q00  =  -0.000000

Finished at 13:59:32 on 27 Apr 2020

  DMA results are available in the Python driver through the
	  variable('DMA DISTRIBUTED MULTIPOLES')
  and
	  variable('DMA TOTAL MULTIPOLES')
  commands.

    Psi4 stopped on: Monday, 27 April 2020 01:59PM
    Psi4 wall time for execution: 0:01:28.37

*** Psi4 exiting successfully. Buy a developer a beer!
