                               Psi4 1.3.2 release

  ==> Input File <==

--------------------------------------------------------------------------
import numpy as np
set {scf_type pk
basis cc-pvdz
d_convergence 10
gdma_switch   0
gdma_limit    0
gdma_origin   [ 0.0,  0.0,  0.0 ]
}
molecule test {
    units Angstrom
    0 1
    --
    0 1
    C                2.431405444012865    -0.973174228958938     0.970472022792785
    C                3.737405444012865    -0.458174228958938     1.566472022792785
    H                1.719405444012865    -0.151174228958938     0.887472022792785
    H                2.625405444012865    -1.370174228958938    -0.025527977207215
    H                2.010405444012866    -1.769174228958938     1.583472022792785
    H                4.406405444012866    -1.306174228958938     1.695472022792786
    H                3.571809444012865     0.013025771041062     2.546546022792785
    H                4.218481444012865     0.242025771041062     0.867698022792785
    C               -0.767594555987135     2.843825771041062    -1.631527977207215
    C               -1.090594555987134     0.112825771041062     0.997472022792785
    C               -1.082594555987135     1.352825771041062     0.379472022792785
    C               -0.892594555987135    -1.034174228958938     0.242472022792785
    C               -0.827594555987135     1.472825771041062    -0.990527977207215
    C               -0.677594555987135    -0.941174228958938    -1.126527977207215
    C               -0.632594555987135     0.307825771041062    -1.743527977207215
    O               -0.908594555987135    -2.260174228958938     0.838472022792785
    H               -1.264594555987135     0.038825771041062     2.062472022792786
    H               -1.259594555987135     2.238825771041062     0.973472022792785
    H               -0.793594555987135    -2.182174228958938     1.799472022792785
    H               -0.560594555987135    -1.836174228958938    -1.704527977207215
    H                0.252405444012865     3.208825771041062    -1.511527977207215
    H               -1.407594555987135     3.519825771041062    -1.075527977207215
    H               -0.429594555987135     0.353825771041062    -2.802527977207215
    H               -1.022068555987135     2.919305771041062    -2.699027977207215

}
e, wfn = energy('scf', return_wfn=True)
gdma(wfn)
dmavals = variable('DMA DISTRIBUTED MULTIPOLES')
charges = np.array(dmavals)
print(charges)
np.save('SSI-027VAL-086TYR-1-dimer.npy', np.array(charges))--------------------------------------------------------------------------

*** tstart() called on ds3
*** at Mon Apr 27 16:15:46 2020

   => Loading Basis Set <=

    Name: CC-PVDZ
    Role: ORBITAL
    Keyword: BASIS
    atoms 1-2, 9-15  entry C          line   138 file /theoryfs2/ds/metcalf/miniconda2/envs/tf2gpu/share/psi4/basis/cc-pvdz.gbs
    atoms 3-8, 17-24 entry H          line    22 file /theoryfs2/ds/metcalf/miniconda2/envs/tf2gpu/share/psi4/basis/cc-pvdz.gbs
    atoms 16         entry O          line   198 file /theoryfs2/ds/metcalf/miniconda2/envs/tf2gpu/share/psi4/basis/cc-pvdz.gbs

         ---------------------------------------------------------
                                   SCF
               by Justin Turney, Rob Parrish, Andy Simmonett
                          and Daniel G. A. Smith
                              RHF Reference
                        1 Threads,    500 MiB Core
         ---------------------------------------------------------

  ==> Geometry <==

    Molecular point group: c1
    Full point group: C1

    Geometry (in Angstrom), charge = 0, multiplicity = 1:

       Center              X                  Y                   Z               Mass
    ------------   -----------------  -----------------  -----------------  -----------------
         C            2.431405444013    -0.973174228959     0.970472022793    12.000000000000
         C            3.737405444013    -0.458174228959     1.566472022793    12.000000000000
         H            1.719405444013    -0.151174228959     0.887472022793     1.007825032230
         H            2.625405444013    -1.370174228959    -0.025527977207     1.007825032230
         H            2.010405444013    -1.769174228959     1.583472022793     1.007825032230
         H            4.406405444013    -1.306174228959     1.695472022793     1.007825032230
         H            3.571809444013     0.013025771041     2.546546022793     1.007825032230
         H            4.218481444013     0.242025771041     0.867698022793     1.007825032230
         C           -0.767594555987     2.843825771041    -1.631527977207    12.000000000000
         C           -1.090594555987     0.112825771041     0.997472022793    12.000000000000
         C           -1.082594555987     1.352825771041     0.379472022793    12.000000000000
         C           -0.892594555987    -1.034174228959     0.242472022793    12.000000000000
         C           -0.827594555987     1.472825771041    -0.990527977207    12.000000000000
         C           -0.677594555987    -0.941174228959    -1.126527977207    12.000000000000
         C           -0.632594555987     0.307825771041    -1.743527977207    12.000000000000
         O           -0.908594555987    -2.260174228959     0.838472022793    15.994914619570
         H           -1.264594555987     0.038825771041     2.062472022793     1.007825032230
         H           -1.259594555987     2.238825771041     0.973472022793     1.007825032230
         H           -0.793594555987    -2.182174228959     1.799472022793     1.007825032230
         H           -0.560594555987    -1.836174228959    -1.704527977207     1.007825032230
         H            0.252405444013     3.208825771041    -1.511527977207     1.007825032230
         H           -1.407594555987     3.519825771041    -1.075527977207     1.007825032230
         H           -0.429594555987     0.353825771041    -2.802527977207     1.007825032230
         H           -1.022068555987     2.919305771041    -2.699027977207     1.007825032230

  Running in c1 symmetry.

  Rotational constants: A =      0.04631  B =      0.02636  C =      0.02066 [cm^-1]
  Rotational constants: A =   1388.42456  B =    790.37636  C =    619.48174 [MHz]
  Nuclear repulsion =  504.180794751824692

  Charge       = 0
  Multiplicity = 1
  Electrons    = 76
  Nalpha       = 38
  Nbeta        = 38

  ==> Algorithm <==

  SCF Algorithm Type is PK.
  DIIS enabled.
  MOM disabled.
  Fractional occupation disabled.
  Guess Type is SAD.
  Energy threshold   = 1.00e-06
  Density threshold  = 1.00e-10
  Integral threshold = 0.00e+00

  ==> Primary Basis <==

  Basis Set: CC-PVDZ
    Blend: CC-PVDZ
    Number of shells: 102
    Number of basis function: 210
    Number of Cartesian functions: 220
    Spherical Harmonics?: true
    Max angular momentum: 2

  ==> Pre-Iterations <==

   -------------------------------------------------------
    Irrep   Nso     Nmo     Nalpha   Nbeta   Ndocc  Nsocc
   -------------------------------------------------------
     A        210     210       0       0       0       0
   -------------------------------------------------------
    Total     210     210      38      38      38       0
   -------------------------------------------------------

  ==> Integral Setup <==

  Using integral reordering PK algorithm.
  Sizing the integral batches needed.
  Building batch lookup table.
   Calculation information:
      Number of atoms:                  24
      Number of AO shells:             102
      Number of primitives:            290
      Number of atomic orbitals:       220
      Number of basis functions:       210

      Integral cutoff                 1.00e-12
      Number of threads:                 1

	Batch   1 pq = [       0,    9405] index = [             0,44231715] size =     44231715
	Batch   2 pq = [    9405,   13301] index = [      44231715,88464951] size =     44233236
	Batch   3 pq = [   13301,   16290] index = [      88464951,132690195] size =     44225244
	Batch   4 pq = [   16290,   18810] index = [     132690195,176917455] size =     44227260
	Batch   5 pq = [   18810,   21030] index = [     176917455,221140965] size =     44223510
	Batch   6 pq = [   21030,   22155] index = [     221140965,245433090] size =     24292125
  Task number: 23
  Buffer size: 11059200
  Buffer per thread: 2
  We computed 12440639 shell quartets total.
  Whereas there are 13799631 unique shell quartets.

  ==> DiskJK: Disk-Based J/K Matrices <==

    J tasked:                  Yes
    K tasked:                  Yes
    wK tasked:                  No
    Memory [MiB]:              375
    Schwarz Cutoff:          1E-12

    OpenMP threads:              1

  Minimum eigenvalue in the overlap matrix is 3.2406137817E-04.
  Using Symmetric Orthogonalization.

  SCF Guess: Superposition of Atomic Densities via on-the-fly atomic UHF.

  ==> Iterations <==

                        Total Energy        Delta E     RMS |[F,P]|

   @RHF iter SAD:  -422.69270265383369   -4.22693e+02   0.00000e+00
   @RHF iter   1:  -423.59924712327040   -9.06544e-01   2.97917e-03 DIIS
   @RHF iter   2:  -423.81636476090563   -2.17118e-01   1.24781e-03 DIIS
   @RHF iter   3:  -423.85063909998706   -3.42743e-02   2.79376e-04 DIIS
   @RHF iter   4:  -423.85345211645512   -2.81302e-03   1.13308e-04 DIIS
   @RHF iter   5:  -423.85377857241338   -3.26456e-04   2.08255e-05 DIIS
   @RHF iter   6:  -423.85379589434376   -1.73219e-05   6.38621e-06 DIIS
   @RHF iter   7:  -423.85379744775446   -1.55341e-06   1.99657e-06 DIIS
   @RHF iter   8:  -423.85379763646182   -1.88707e-07   7.22450e-07 DIIS
   @RHF iter   9:  -423.85379766006395   -2.36021e-08   2.29341e-07 DIIS
   @RHF iter  10:  -423.85379766264492   -2.58098e-09   7.03520e-08 DIIS
   @RHF iter  11:  -423.85379766300719   -3.62263e-10   3.01246e-08 DIIS
   @RHF iter  12:  -423.85379766309109   -8.39009e-11   1.79658e-08 DIIS
   @RHF iter  13:  -423.85379766312332   -3.22302e-11   7.37619e-09 DIIS
   @RHF iter  14:  -423.85379766313218   -8.86757e-12   2.09653e-09 DIIS
   @RHF iter  15:  -423.85379766313150    6.82121e-13   6.93000e-10 DIIS
   @RHF iter  16:  -423.85379766313071    7.95808e-13   1.97954e-10 DIIS
   @RHF iter  17:  -423.85379766313145   -7.38964e-13   7.33639e-11 DIIS
  Energy and wave function converged.

  ==> Post-Iterations <==

    Orbital Energies [Eh]
    ---------------------

    Doubly Occupied:

       1A    -20.582313     2A    -11.295593     3A    -11.238998
       4A    -11.238359     5A    -11.236781     6A    -11.232005
       7A    -11.228435     8A    -11.227965     9A    -11.213805
      10A    -11.208002    11A     -1.396877    12A     -1.150390
      13A     -1.035809    14A     -1.019014    15A     -1.013169
      16A     -0.926471    17A     -0.842948    18A     -0.830257
      19A     -0.802283    20A     -0.729762    21A     -0.668388
      22A     -0.641890    23A     -0.607425    24A     -0.594150
      25A     -0.593064    26A     -0.587961    27A     -0.584213
      28A     -0.571221    29A     -0.564619    30A     -0.525230
      31A     -0.498911    32A     -0.493956    33A     -0.484441
      34A     -0.482336    35A     -0.480502    36A     -0.461298
      37A     -0.339387    38A     -0.300517

    Virtual:

      39A      0.130589    40A      0.153154    41A      0.173444
      42A      0.185351    43A      0.199264    44A      0.214628
      45A      0.217351    46A      0.248633    47A      0.253546
      48A      0.265417    49A      0.270325    50A      0.272214
      51A      0.275696    52A      0.290263    53A      0.303611
      54A      0.309011    55A      0.369008    56A      0.372659
      57A      0.392316    58A      0.438522    59A      0.458104
      60A      0.482693    61A      0.495116    62A      0.502784
      63A      0.578420    64A      0.596447    65A      0.603936
      66A      0.617368    67A      0.626519    68A      0.652579
      69A      0.662703    70A      0.667829    71A      0.676456
      72A      0.689268    73A      0.707347    74A      0.731383
      75A      0.737028    76A      0.760580    77A      0.764655
      78A      0.779726    79A      0.790008    80A      0.802005
      81A      0.822589    82A      0.845077    83A      0.846546
      84A      0.873932    85A      0.876829    86A      0.880208
      87A      0.885027    88A      0.896744    89A      0.898417
      90A      0.902487    91A      0.915260    92A      0.919782
      93A      0.925710    94A      0.929889    95A      0.940328
      96A      0.948653    97A      0.956619    98A      0.992553
      99A      0.998506   100A      1.021120   101A      1.032799
     102A      1.081499   103A      1.123403   104A      1.127878
     105A      1.139307   106A      1.144020   107A      1.161634
     108A      1.168571   109A      1.209088   110A      1.232721
     111A      1.250745   112A      1.268635   113A      1.274520
     114A      1.303821   115A      1.309373   116A      1.312628
     117A      1.319618   118A      1.352726   119A      1.374213
     120A      1.390040   121A      1.469690   122A      1.479336
     123A      1.484534   124A      1.506226   125A      1.529422
     126A      1.569853   127A      1.597368   128A      1.606497
     129A      1.626819   130A      1.675452   131A      1.686152
     132A      1.699979   133A      1.709159   134A      1.737230
     135A      1.745867   136A      1.783544   137A      1.809705
     138A      1.816220   139A      1.856346   140A      1.867001
     141A      1.878836   142A      1.895455   143A      1.896022
     144A      1.912010   145A      1.915562   146A      1.929141
     147A      1.933741   148A      1.938889   149A      1.948236
     150A      1.950296   151A      1.955726   152A      1.967453
     153A      1.976302   154A      1.984710   155A      1.998735
     156A      2.016372   157A      2.044608   158A      2.064591
     159A      2.071064   160A      2.074897   161A      2.087249
     162A      2.110928   163A      2.127432   164A      2.145881
     165A      2.157509   166A      2.160950   167A      2.207639
     168A      2.227859   169A      2.267559   170A      2.284356
     171A      2.305471   172A      2.309173   173A      2.325296
     174A      2.344841   175A      2.405187   176A      2.412874
     177A      2.449585   178A      2.459533   179A      2.468530
     180A      2.474451   181A      2.484867   182A      2.544006
     183A      2.560561   184A      2.585079   185A      2.590448
     186A      2.620155   187A      2.648181   188A      2.742508
     189A      2.756156   190A      2.770926   191A      2.779067
     192A      2.802299   193A      2.811446   194A      2.845657
     195A      2.860552   196A      2.864147   197A      2.905617
     198A      2.953508   199A      2.973535   200A      2.996018
     201A      3.011832   202A      3.093856   203A      3.146249
     204A      3.266142   205A      3.285591   206A      3.354881
     207A      3.583996   208A      3.679671   209A      3.972861
     210A      4.173940

    Final Occupation by Irrep:
              A
    DOCC [    38 ]

  @RHF Final Energy:  -423.85379766313145

   => Energetics <=

    Nuclear Repulsion Energy =            504.1807947518246920
    One-Electron Energy =               -1574.2116972036847073
    Two-Electron Energy =                 646.1771047887286841
    Total Energy =                       -423.8537976631314450

Computation Completed

Properties will be evaluated at   0.000000,   0.000000,   0.000000 [a0]

Properties computed using the SCF density matrix

  Nuclear Dipole Moment: [e a0]
     X:    11.3078      Y:     3.6635      Z:     2.4390

  Electronic Dipole Moment: [e a0]
     X:   -11.2513      Y:    -3.2313      Z:    -2.0976

  Dipole Moment: [e a0]
     X:     0.0565      Y:     0.4322      Z:     0.3414     Total:     0.5537

  Dipole Moment: [D]
     X:     0.1435      Y:     1.0986      Z:     0.8679     Total:     1.4074

*** tstop() called on ds3 at Mon Apr 27 16:17:49 2020
Module time:
	user time   =      93.15 seconds =       1.55 minutes
	system time =      36.67 seconds =       0.61 minutes
	total time  =        123 seconds =       2.05 minutes
Total time:
	user time   =      93.15 seconds =       1.55 minutes
	system time =      36.67 seconds =       0.61 minutes
	total time  =        123 seconds =       2.05 minutes
                                     G D M A

                                 by Anthony Stone

                           version 2.2.06, 22 June 2011

               Distributed Multipoles from Gaussian wavefunctions

Starting at 16:17:49 on 27 Apr 2020

Using SCF density matrix from file ./SSI/SSI-027VAL-086TYR-1-dimer.test.8532.fchk

                         Distributed Multipole Analysis

Standard DMA

Positions and radii in angstrom
Multipole moments in atomic units, ea_0^k for rank k

C          x =  2.431405  y = -0.973174  z =  0.970472 angstrom
           Maximum rank =  0   Radius =  0.650 angstrom
                   Q00  =  -0.247566

C          x =  3.737405  y = -0.458174  z =  1.566472 angstrom
           Maximum rank =  0   Radius =  0.650 angstrom
                   Q00  =  -0.224606

H          x =  1.719405  y = -0.151174  z =  0.887472 angstrom
           Maximum rank =  0   Radius =  0.325 angstrom
                   Q00  =   0.087684

H          x =  2.625405  y = -1.370174  z = -0.025528 angstrom
           Maximum rank =  0   Radius =  0.325 angstrom
                   Q00  =   0.080922

H          x =  2.010405  y = -1.769174  z =  1.583472 angstrom
           Maximum rank =  0   Radius =  0.325 angstrom
                   Q00  =   0.064690

H          x =  4.406405  y = -1.306174  z =  1.695472 angstrom
           Maximum rank =  0   Radius =  0.325 angstrom
                   Q00  =   0.073834

H          x =  3.571809  y =  0.013026  z =  2.546546 angstrom
           Maximum rank =  0   Radius =  0.325 angstrom
                   Q00  =   0.075178

H          x =  4.218481  y =  0.242026  z =  0.867698 angstrom
           Maximum rank =  0   Radius =  0.325 angstrom
                   Q00  =   0.078722

C          x = -0.767595  y =  2.843826  z = -1.631528 angstrom
           Maximum rank =  0   Radius =  0.650 angstrom
                   Q00  =  -0.207028

C          x = -1.090595  y =  0.112826  z =  0.997472 angstrom
           Maximum rank =  0   Radius =  0.650 angstrom
                   Q00  =  -0.192403

C          x = -1.082595  y =  1.352826  z =  0.379472 angstrom
           Maximum rank =  0   Radius =  0.650 angstrom
                   Q00  =   0.025523

C          x = -0.892595  y = -1.034174  z =  0.242472 angstrom
           Maximum rank =  0   Radius =  0.650 angstrom
                   Q00  =   0.364604

C          x = -0.827595  y =  1.472826  z = -0.990528 angstrom
           Maximum rank =  0   Radius =  0.650 angstrom
                   Q00  =  -0.126421

C          x = -0.677595  y = -0.941174  z = -1.126528 angstrom
           Maximum rank =  0   Radius =  0.650 angstrom
                   Q00  =  -0.114490

C          x = -0.632595  y =  0.307826  z = -1.743528 angstrom
           Maximum rank =  0   Radius =  0.650 angstrom
                   Q00  =  -0.055429

O          x = -0.908595  y = -2.260174  z =  0.838472 angstrom
           Maximum rank =  0   Radius =  0.650 angstrom
                   Q00  =  -0.670709

H          x = -1.264595  y =  0.038826  z =  2.062472 angstrom
           Maximum rank =  0   Radius =  0.325 angstrom
                   Q00  =   0.071015

H          x = -1.259595  y =  2.238826  z =  0.973472 angstrom
           Maximum rank =  0   Radius =  0.325 angstrom
                   Q00  =   0.067303

H          x = -0.793595  y = -2.182174  z =  1.799472 angstrom
           Maximum rank =  0   Radius =  0.325 angstrom
                   Q00  =   0.409310

H          x = -0.560595  y = -1.836174  z = -1.704528 angstrom
           Maximum rank =  0   Radius =  0.325 angstrom
                   Q00  =   0.080250

H          x =  0.252405  y =  3.208826  z = -1.511528 angstrom
           Maximum rank =  0   Radius =  0.325 angstrom
                   Q00  =   0.097237

H          x = -1.407595  y =  3.519826  z = -1.075528 angstrom
           Maximum rank =  0   Radius =  0.325 angstrom
                   Q00  =   0.097207

H          x = -0.429595  y =  0.353826  z = -2.802528 angstrom
           Maximum rank =  0   Radius =  0.325 angstrom
                   Q00  =   0.064415

H          x = -1.022069  y =  2.919306  z = -2.699028 angstrom
           Maximum rank =  0   Radius =  0.325 angstrom
                   Q00  =   0.100758

Total multipoles referred to origin at
           x =   0.000000,  y =    0.000000,  z =    0.000000 angstrom
                   Q00  =  -0.000000

Finished at 16:17:49 on 27 Apr 2020

  DMA results are available in the Python driver through the
	  variable('DMA DISTRIBUTED MULTIPOLES')
  and
	  variable('DMA TOTAL MULTIPOLES')
  commands.

    Psi4 stopped on: Monday, 27 April 2020 04:17PM
    Psi4 wall time for execution: 0:02:03.88

*** Psi4 exiting successfully. Buy a developer a beer!
