                               Psi4 1.3.2 release

  ==> Input File <==

--------------------------------------------------------------------------
import numpy as np
set {scf_type pk
basis cc-pvdz
d_convergence 10
gdma_switch   0
gdma_limit    0
gdma_origin   [ 0.0,  0.0,  0.0 ]
}
molecule test {
    units Angstrom
    0 1
    --
    0 1
    C               -3.470012590795484    -1.540398511263964     1.284133312315295
    C               -2.019012590795484    -0.986398511263963    -0.699866687684705
    C               -2.597012590795484    -1.955398511263963     0.126133312315295
    C               -1.162012590795484    -1.360398511263963    -1.740866687684705
    C               -0.894012590795484    -2.696398511263964    -1.962866687684705
    C               -2.303012590795483    -3.301398511263964    -0.111866687684705
    C               -1.452012590795484    -3.662398511263964    -1.149866687684705
    H               -2.217012590795484     0.058601488736037    -0.523866687684705
    H               -0.716012590795484    -0.603398511263963    -2.369866687684706
    H               -2.969012590795483    -0.729398511263963     1.813133312315295
    H               -3.566012590795484    -2.373398511263964     1.980133312315295
    H               -0.231012590795484    -2.979398511263964    -2.767866687684705
    H               -2.720012590795484    -4.066398511263964     0.528133312315295
    H               -1.190012590795484    -4.694398511263964    -1.303866687684705
    H               -4.471591590795483    -1.199374611263963     0.983230312315295
    C                3.532987409204516     2.760601488736036    -1.243866687684705
    C                0.891987409204516     1.005601488736036     0.817133312315295
    C                1.762987409204516     1.323601488736037    -0.236866687684705
    C                0.867987409204516     1.771601488736037     1.956133312315295
    C                2.581987409204516     2.434601488736036    -0.143866687684705
    C                1.688987409204516     2.859601488736037     2.067133312315295
    C                2.544987409204516     3.193601488736037     1.021133312315295
    H                0.238987409204516     0.149601488736037     0.739133312315295
    H                1.783987409204516     0.702601488736037    -1.121866687684705
    H                0.211987409204516     1.494601488736037     2.763133312315294
    H                1.670987409204516     3.459601488736037     2.964133312315295
    H                3.781987409204516     3.822601488736037    -1.203866687684705
    H                3.045987409204516     2.566601488736036    -2.200866687684706
    H                3.190987409204516     4.055601488736036     1.120133312315295
    H                4.455537409204517     2.164594488736037    -1.183182687684705

}
e, wfn = energy('scf', return_wfn=True)
gdma(wfn)
dmavals = variable('DMA DISTRIBUTED MULTIPOLES')
charges = np.array(dmavals)
print(charges)
np.save('SSI-042PHE-077PHE-1-dimer.npy', np.array(charges))--------------------------------------------------------------------------

*** tstart() called on ds3
*** at Sun Apr 26 18:07:33 2020

   => Loading Basis Set <=

    Name: CC-PVDZ
    Role: ORBITAL
    Keyword: BASIS
    atoms 1-7, 16-22  entry C          line   138 file /theoryfs2/ds/metcalf/miniconda2/envs/tf2gpu/share/psi4/basis/cc-pvdz.gbs
    atoms 8-15, 23-30 entry H          line    22 file /theoryfs2/ds/metcalf/miniconda2/envs/tf2gpu/share/psi4/basis/cc-pvdz.gbs

         ---------------------------------------------------------
                                   SCF
               by Justin Turney, Rob Parrish, Andy Simmonett
                          and Daniel G. A. Smith
                              RHF Reference
                        1 Threads,    500 MiB Core
         ---------------------------------------------------------

  ==> Geometry <==

    Molecular point group: c1
    Full point group: C1

    Geometry (in Angstrom), charge = 0, multiplicity = 1:

       Center              X                  Y                   Z               Mass
    ------------   -----------------  -----------------  -----------------  -----------------
         C           -3.470012590795    -1.540398511264     1.284133312315    12.000000000000
         C           -2.019012590795    -0.986398511264    -0.699866687685    12.000000000000
         C           -2.597012590795    -1.955398511264     0.126133312315    12.000000000000
         C           -1.162012590795    -1.360398511264    -1.740866687685    12.000000000000
         C           -0.894012590795    -2.696398511264    -1.962866687685    12.000000000000
         C           -2.303012590795    -3.301398511264    -0.111866687685    12.000000000000
         C           -1.452012590795    -3.662398511264    -1.149866687685    12.000000000000
         H           -2.217012590795     0.058601488736    -0.523866687685     1.007825032230
         H           -0.716012590795    -0.603398511264    -2.369866687685     1.007825032230
         H           -2.969012590795    -0.729398511264     1.813133312315     1.007825032230
         H           -3.566012590795    -2.373398511264     1.980133312315     1.007825032230
         H           -0.231012590795    -2.979398511264    -2.767866687685     1.007825032230
         H           -2.720012590795    -4.066398511264     0.528133312315     1.007825032230
         H           -1.190012590795    -4.694398511264    -1.303866687685     1.007825032230
         H           -4.471591590795    -1.199374611264     0.983230312315     1.007825032230
         C            3.532987409205     2.760601488736    -1.243866687685    12.000000000000
         C            0.891987409205     1.005601488736     0.817133312315    12.000000000000
         C            1.762987409205     1.323601488736    -0.236866687685    12.000000000000
         C            0.867987409205     1.771601488736     1.956133312315    12.000000000000
         C            2.581987409205     2.434601488736    -0.143866687685    12.000000000000
         C            1.688987409205     2.859601488736     2.067133312315    12.000000000000
         C            2.544987409205     3.193601488736     1.021133312315    12.000000000000
         H            0.238987409205     0.149601488736     0.739133312315     1.007825032230
         H            1.783987409205     0.702601488736    -1.121866687685     1.007825032230
         H            0.211987409205     1.494601488736     2.763133312315     1.007825032230
         H            1.670987409205     3.459601488736     2.964133312315     1.007825032230
         H            3.781987409205     3.822601488736    -1.203866687685     1.007825032230
         H            3.045987409205     2.566601488736    -2.200866687685     1.007825032230
         H            3.190987409205     4.055601488736     1.120133312315     1.007825032230
         H            4.455537409205     2.164594488736    -1.183182687685     1.007825032230

  Running in c1 symmetry.

  Rotational constants: A =      0.04072  B =      0.00883  C =      0.00760 [cm^-1]
  Rotational constants: A =   1220.83833  B =    264.82823  C =    227.76136 [MHz]
  Nuclear repulsion =  755.871878136044302

  Charge       = 0
  Multiplicity = 1
  Electrons    = 100
  Nalpha       = 50
  Nbeta        = 50

  ==> Algorithm <==

  SCF Algorithm Type is PK.
  DIIS enabled.
  MOM disabled.
  Fractional occupation disabled.
  Guess Type is SAD.
  Energy threshold   = 1.00e-06
  Density threshold  = 1.00e-10
  Integral threshold = 0.00e+00

  ==> Primary Basis <==

  Basis Set: CC-PVDZ
    Blend: CC-PVDZ
    Number of shells: 132
    Number of basis function: 276
    Number of Cartesian functions: 290
    Spherical Harmonics?: true
    Max angular momentum: 2

  ==> Pre-Iterations <==

   -------------------------------------------------------
    Irrep   Nso     Nmo     Nalpha   Nbeta   Ndocc  Nsocc
   -------------------------------------------------------
     A        276     276       0       0       0       0
   -------------------------------------------------------
    Total     276     276      50      50      50       0
   -------------------------------------------------------

  ==> Integral Setup <==

  Using integral reordering PK algorithm.
  Sizing the integral batches needed.
  Building batch lookup table.
   Calculation information:
      Number of atoms:                  30
      Number of AO shells:             132
      Number of primitives:            388
      Number of atomic orbitals:       290
      Number of basis functions:       276

      Integral cutoff                 1.00e-12
      Number of threads:                 1

	Batch   1 pq = [       0,    9405] index = [             0,44231715] size =     44231715
	Batch   2 pq = [    9405,   13301] index = [      44231715,88464951] size =     44233236
	Batch   3 pq = [   13301,   16290] index = [      88464951,132690195] size =     44225244
	Batch   4 pq = [   16290,   18810] index = [     132690195,176917455] size =     44227260
	Batch   5 pq = [   18810,   21030] index = [     176917455,221140965] size =     44223510
	Batch   6 pq = [   21030,   23037] index = [     221140965,265363203] size =     44222238
	Batch   7 pq = [   23037,   24883] index = [     265363203,309594286] size =     44231083
	Batch   8 pq = [   24883,   26601] index = [     309594286,353819901] size =     44225615
	Batch   9 pq = [   26601,   28214] index = [     353819901,398029005] size =     44209104
	Batch  10 pq = [   28214,   29740] index = [     398029005,442248670] size =     44219665
	Batch  11 pq = [   29740,   31191] index = [     442248670,486454836] size =     44206166
	Batch  12 pq = [   31191,   32578] index = [     486454836,530679331] size =     44224495
	Batch  13 pq = [   32578,   33908] index = [     530679331,574893186] size =     44213855
	Batch  14 pq = [   33908,   35188] index = [     574893186,619115266] size =     44222080
	Batch  15 pq = [   35188,   36423] index = [     619115266,663335676] size =     44220410
	Batch  16 pq = [   36423,   37617] index = [     663335676,707538153] size =     44202477
	Batch  17 pq = [   37617,   38226] index = [     707538153,730632651] size =     23094498
  Task number: 67
  Buffer size: 11059200
  Buffer per thread: 2
  We computed 32295894 shell quartets total.
  Whereas there are 38531031 unique shell quartets.

  ==> DiskJK: Disk-Based J/K Matrices <==

    J tasked:                  Yes
    K tasked:                  Yes
    wK tasked:                  No
    Memory [MiB]:              375
    Schwarz Cutoff:          1E-12

    OpenMP threads:              1

  Minimum eigenvalue in the overlap matrix is 2.8820010832E-04.
  Using Symmetric Orthogonalization.

  SCF Guess: Superposition of Atomic Densities via on-the-fly atomic UHF.

  ==> Iterations <==

                        Total Energy        Delta E     RMS |[F,P]|

   @RHF iter SAD:  -538.50319457465127   -5.38503e+02   0.00000e+00
   @RHF iter   1:  -539.22389782851269   -7.20703e-01   2.32579e-03 DIIS
   @RHF iter   2:  -539.47898187058433   -2.55084e-01   9.51495e-04 DIIS
   @RHF iter   3:  -539.51662906802221   -3.76472e-02   2.14030e-04 DIIS
   @RHF iter   4:  -539.51977526433018   -3.14620e-03   4.42526e-05 DIIS
   @RHF iter   5:  -539.51987786817392   -1.02604e-04   1.28742e-05 DIIS
   @RHF iter   6:  -539.51988598897151   -8.12080e-06   3.66451e-06 DIIS
   @RHF iter   7:  -539.51988676251449   -7.73543e-07   1.16038e-06 DIIS
   @RHF iter   8:  -539.51988684706487   -8.45504e-08   2.86800e-07 DIIS
   @RHF iter   9:  -539.51988685789502   -1.08301e-08   1.16953e-07 DIIS
   @RHF iter  10:  -539.51988685989693   -2.00191e-09   5.93716e-08 DIIS
   @RHF iter  11:  -539.51988686057848   -6.81553e-10   2.39900e-08 DIIS
   @RHF iter  12:  -539.51988686069808   -1.19599e-10   1.01968e-08 DIIS
   @RHF iter  13:  -539.51988686071513   -1.70530e-11   4.08755e-09 DIIS
   @RHF iter  14:  -539.51988686071036    4.77485e-12   9.10448e-10 DIIS
   @RHF iter  15:  -539.51988686071059   -2.27374e-13   3.29176e-10 DIIS
   @RHF iter  16:  -539.51988686071741   -6.82121e-12   9.64442e-11 DIIS
  Energy and wave function converged.

  ==> Post-Iterations <==

    Orbital Energies [Eh]
    ---------------------

    Doubly Occupied:

       1A    -11.243396     2A    -11.236296     3A    -11.235084
       4A    -11.234501     5A    -11.232477     6A    -11.232198
       7A    -11.231092     8A    -11.229852     9A    -11.229652
      10A    -11.228554    11A    -11.226883    12A    -11.226619
      13A    -11.226398    14A    -11.222191    15A     -1.154945
      16A     -1.154531    17A     -1.049042    18A     -1.046903
      19A     -1.012841    20A     -1.006812    21A     -0.933206
      22A     -0.931447    23A     -0.827838    24A     -0.825648
      25A     -0.796181    26A     -0.790483    27A     -0.693693
      28A     -0.690343    29A     -0.633171    30A     -0.632361
      31A     -0.631440    32A     -0.625850    33A     -0.584346
      34A     -0.578854    35A     -0.577236    36A     -0.575388
      37A     -0.563812    38A     -0.563650    39A     -0.537747
      40A     -0.534033    41A     -0.490930    42A     -0.486975
      43A     -0.485974    44A     -0.482674    45A     -0.481651
      46A     -0.478054    47A     -0.333353    48A     -0.327223
      49A     -0.324641    50A     -0.323086

    Virtual:

      51A      0.130684    52A      0.138491    53A      0.139757
      54A      0.147376    55A      0.171508    56A      0.188700
      57A      0.193447    58A      0.208672    59A      0.212860
      60A      0.233890    61A      0.242971    62A      0.247769
      63A      0.255440    64A      0.257485    65A      0.273248
      66A      0.278755    67A      0.290763    68A      0.295357
      69A      0.296371    70A      0.316709    71A      0.361879
      72A      0.371122    73A      0.376560    74A      0.387996
      75A      0.451732    76A      0.457713    77A      0.461490
      78A      0.471505    79A      0.476480    80A      0.483224
      81A      0.493500    82A      0.501701    83A      0.563880
      84A      0.566667    85A      0.592131    86A      0.602766
      87A      0.634892    88A      0.638860    89A      0.676321
      90A      0.679080    91A      0.681684    92A      0.692489
      93A      0.695616    94A      0.700946    95A      0.715741
      96A      0.718485    97A      0.730253    98A      0.737675
      99A      0.742216   100A      0.745633   101A      0.746761
     102A      0.749534   103A      0.751948   104A      0.761073
     105A      0.764854   106A      0.777353   107A      0.779675
     108A      0.782911   109A      0.796675   110A      0.813993
     111A      0.830024   112A      0.837343   113A      0.849437
     114A      0.852103   115A      0.861382   116A      0.872198
     117A      0.880077   118A      0.882107   119A      0.884120
     120A      0.896374   121A      0.899394   122A      0.908261
     123A      0.910823   124A      0.921043   125A      0.926747
     126A      0.932186   127A      0.939397   128A      0.942080
     129A      0.949132   130A      0.970066   131A      0.991391
     132A      1.005935   133A      1.013267   134A      1.040391
     135A      1.052931   136A      1.060259   137A      1.125886
     138A      1.134377   139A      1.138601   140A      1.143500
     141A      1.148004   142A      1.158956   143A      1.162193
     144A      1.178384   145A      1.185069   146A      1.208585
     147A      1.231546   148A      1.236703   149A      1.244230
     150A      1.250860   151A      1.253961   152A      1.260656
     153A      1.269288   154A      1.280272   155A      1.296499
     156A      1.304898   157A      1.309818   158A      1.312227
     159A      1.320239   160A      1.328407   161A      1.336304
     162A      1.347244   163A      1.417015   164A      1.420227
     165A      1.502565   166A      1.514114   167A      1.525066
     168A      1.540359   169A      1.550924   170A      1.569941
     171A      1.598764   172A      1.613267   173A      1.668371
     174A      1.680751   175A      1.690256   176A      1.701056
     177A      1.728306   178A      1.740123   179A      1.745904
     180A      1.751538   181A      1.768041   182A      1.769880
     183A      1.791848   184A      1.797821   185A      1.811772
     186A      1.817158   187A      1.857570   188A      1.870919
     189A      1.886571   190A      1.891707   191A      1.896349
     192A      1.904539   193A      1.906754   194A      1.915636
     195A      1.918997   196A      1.920868   197A      1.929657
     198A      1.934138   199A      1.947252   200A      1.951607
     201A      1.953630   202A      1.963583   203A      1.967335
     204A      1.979134   205A      1.982589   206A      1.998033
     207A      2.001044   208A      2.012471   209A      2.037206
     210A      2.045745   211A      2.057650   212A      2.069223
     213A      2.073352   214A      2.082874   215A      2.110538
     216A      2.116090   217A      2.136335   218A      2.147593
     219A      2.157173   220A      2.168886   221A      2.170986
     222A      2.175733   223A      2.186242   224A      2.190717
     225A      2.194039   226A      2.201398   227A      2.246090
     228A      2.270545   229A      2.273546   230A      2.285561
     231A      2.292337   232A      2.303359   233A      2.306825
     234A      2.313395   235A      2.324904   236A      2.326692
     237A      2.338881   238A      2.343285   239A      2.454272
     240A      2.469290   241A      2.479595   242A      2.489804
     243A      2.506738   244A      2.510520   245A      2.537660
     246A      2.551517   247A      2.626158   248A      2.637081
     249A      2.730543   250A      2.750794   251A      2.754002
     252A      2.768207   253A      2.772215   254A      2.779902
     255A      2.789378   256A      2.805489   257A      2.814381
     258A      2.833993   259A      2.847948   260A      2.852867
     261A      2.868758   262A      2.885843   263A      2.983400
     264A      2.994370   265A      3.015031   266A      3.033452
     267A      3.037911   268A      3.042138   269A      3.159430
     270A      3.172463   271A      3.201367   272A      3.224117
     273A      3.303848   274A      3.320703   275A      3.975405
     276A      4.004645

    Final Occupation by Irrep:
              A
    DOCC [    50 ]

  @RHF Final Energy:  -539.51988686071741

   => Energetics <=

    Nuclear Repulsion Energy =            755.8718781360443018
    One-Electron Energy =               -2227.9804154609319085
    Two-Electron Energy =                 932.5886504641700867
    Total Energy =                       -539.5198868607174063

Computation Completed

Properties will be evaluated at   0.000000,   0.000000,   0.000000 [a0]

Properties computed using the SCF density matrix

  Nuclear Dipole Moment: [e a0]
     X:     0.2810      Y:     1.7143      Z:     0.2024

  Electronic Dipole Moment: [e a0]
     X:    -0.2929      Y:    -1.7287      Z:    -0.1867

  Dipole Moment: [e a0]
     X:    -0.0119      Y:    -0.0144      Z:     0.0157     Total:     0.0244

  Dipole Moment: [D]
     X:    -0.0303      Y:    -0.0367      Z:     0.0399     Total:     0.0621

*** tstop() called on ds3 at Sun Apr 26 18:13:46 2020
Module time:
	user time   =     266.38 seconds =       4.44 minutes
	system time =     104.69 seconds =       1.74 minutes
	total time  =        373 seconds =       6.22 minutes
Total time:
	user time   =     266.38 seconds =       4.44 minutes
	system time =     104.69 seconds =       1.74 minutes
	total time  =        373 seconds =       6.22 minutes
                                     G D M A

                                 by Anthony Stone

                           version 2.2.06, 22 June 2011

               Distributed Multipoles from Gaussian wavefunctions

Starting at 18:13:47 on 26 Apr 2020

Using SCF density matrix from file ./SSI/SSI-042PHE-077PHE-1-dimer.test.27084.fchk

                         Distributed Multipole Analysis

Standard DMA

Positions and radii in angstrom
Multipole moments in atomic units, ea_0^k for rank k

C          x = -3.470013  y = -1.540399  z =  1.284133 angstrom
           Maximum rank =  0   Radius =  0.650 angstrom
                   Q00  =  -0.203181

C          x = -2.019013  y = -0.986399  z = -0.699867 angstrom
           Maximum rank =  0   Radius =  0.650 angstrom
                   Q00  =  -0.084443

C          x = -2.597013  y = -1.955399  z =  0.126133 angstrom
           Maximum rank =  0   Radius =  0.650 angstrom
                   Q00  =  -0.100841

C          x = -1.162013  y = -1.360399  z = -1.740867 angstrom
           Maximum rank =  0   Radius =  0.650 angstrom
                   Q00  =  -0.071105

C          x = -0.894013  y = -2.696399  z = -1.962867 angstrom
           Maximum rank =  0   Radius =  0.650 angstrom
                   Q00  =  -0.084787

C          x = -2.303013  y = -3.301399  z = -0.111867 angstrom
           Maximum rank =  0   Radius =  0.650 angstrom
                   Q00  =  -0.044585

C          x = -1.452013  y = -3.662399  z = -1.149867 angstrom
           Maximum rank =  0   Radius =  0.650 angstrom
                   Q00  =  -0.020309

H          x = -2.217013  y =  0.058601  z = -0.523867 angstrom
           Maximum rank =  0   Radius =  0.325 angstrom
                   Q00  =   0.059847

H          x = -0.716013  y = -0.603399  z = -2.369867 angstrom
           Maximum rank =  0   Radius =  0.325 angstrom
                   Q00  =   0.065226

H          x = -2.969013  y = -0.729399  z =  1.813133 angstrom
           Maximum rank =  0   Radius =  0.325 angstrom
                   Q00  =   0.098267

H          x = -3.566013  y = -2.373399  z =  1.980133 angstrom
           Maximum rank =  0   Radius =  0.325 angstrom
                   Q00  =   0.098324

H          x = -0.231013  y = -2.979399  z = -2.767867 angstrom
           Maximum rank =  0   Radius =  0.325 angstrom
                   Q00  =   0.058689

H          x = -2.720013  y = -4.066399  z =  0.528133 angstrom
           Maximum rank =  0   Radius =  0.325 angstrom
                   Q00  =   0.059324

H          x = -1.190013  y = -4.694399  z = -1.303867 angstrom
           Maximum rank =  0   Radius =  0.325 angstrom
                   Q00  =   0.063740

H          x = -4.471592  y = -1.199375  z =  0.983230 angstrom
           Maximum rank =  0   Radius =  0.325 angstrom
                   Q00  =   0.105913

C          x =  3.532987  y =  2.760601  z = -1.243867 angstrom
           Maximum rank =  0   Radius =  0.650 angstrom
                   Q00  =  -0.201892

C          x =  0.891987  y =  1.005601  z =  0.817133 angstrom
           Maximum rank =  0   Radius =  0.650 angstrom
                   Q00  =  -0.012997

C          x =  1.762987  y =  1.323601  z = -0.236867 angstrom
           Maximum rank =  0   Radius =  0.650 angstrom
                   Q00  =  -0.097668

C          x =  0.867987  y =  1.771601  z =  1.956133 angstrom
           Maximum rank =  0   Radius =  0.650 angstrom
                   Q00  =  -0.081442

C          x =  2.581987  y =  2.434601  z = -0.143867 angstrom
           Maximum rank =  0   Radius =  0.650 angstrom
                   Q00  =  -0.095812

C          x =  1.688987  y =  2.859601  z =  2.067133 angstrom
           Maximum rank =  0   Radius =  0.650 angstrom
                   Q00  =  -0.074684

C          x =  2.544987  y =  3.193601  z =  1.021133 angstrom
           Maximum rank =  0   Radius =  0.650 angstrom
                   Q00  =  -0.026574

H          x =  0.238987  y =  0.149601  z =  0.739133 angstrom
           Maximum rank =  0   Radius =  0.325 angstrom
                   Q00  =   0.073805

H          x =  1.783987  y =  0.702601  z = -1.121867 angstrom
           Maximum rank =  0   Radius =  0.325 angstrom
                   Q00  =   0.051872

H          x =  0.211987  y =  1.494601  z =  2.763133 angstrom
           Maximum rank =  0   Radius =  0.325 angstrom
                   Q00  =   0.052290

H          x =  1.670987  y =  3.459601  z =  2.964133 angstrom
           Maximum rank =  0   Radius =  0.325 angstrom
                   Q00  =   0.060830

H          x =  3.781987  y =  3.822601  z = -1.203867 angstrom
           Maximum rank =  0   Radius =  0.325 angstrom
                   Q00  =   0.096909

H          x =  3.045987  y =  2.566601  z = -2.200867 angstrom
           Maximum rank =  0   Radius =  0.325 angstrom
                   Q00  =   0.096644

H          x =  3.190987  y =  4.055601  z =  1.120133 angstrom
           Maximum rank =  0   Radius =  0.325 angstrom
                   Q00  =   0.053943

H          x =  4.455537  y =  2.164594  z = -1.183183 angstrom
           Maximum rank =  0   Radius =  0.325 angstrom
                   Q00  =   0.104699

Total multipoles referred to origin at
           x =   0.000000,  y =    0.000000,  z =    0.000000 angstrom
                   Q00  =  -0.000000

Finished at 18:13:47 on 26 Apr 2020

  DMA results are available in the Python driver through the
	  variable('DMA DISTRIBUTED MULTIPOLES')
  and
	  variable('DMA TOTAL MULTIPOLES')
  commands.

    Psi4 stopped on: Sunday, 26 April 2020 06:13PM
    Psi4 wall time for execution: 0:06:13.96

*** Psi4 exiting successfully. Buy a developer a beer!
