                               Psi4 1.3.2 release

  ==> Input File <==

--------------------------------------------------------------------------
import numpy as np
set {scf_type pk
basis cc-pvdz
d_convergence 10
gdma_switch   0
gdma_limit    0
gdma_origin   [ 0.0,  0.0,  0.0 ]
}
molecule test {
    units Angstrom
    0 1
    --
    0 1
    C               -0.151670261660990     1.388936398768044     3.906497291213569
    O                0.256329738339010     0.812936398768044     2.700497291213569
    H               -0.127670261660990    -0.072063601231956     2.634497291213569
    H                0.335329738339010     0.867936398768044     4.732497291213568
    H               -1.228670261660990     1.291936398768044     4.023497291213570
    H                0.149749738339010     2.446803398768044     3.914467291213569
    C                1.757329738339010     1.943936398768044    -1.285502708786431
    C               -0.911670261660990    -0.335063601231956     0.109497291213569
    C               -0.855670261660990    -1.376063601231956    -0.806502708786431
    C               -0.085670261660990     0.771936398768044    -0.096502708786431
    C                0.817329738339010     0.813936398768044    -1.160502708786431
    C                0.045329738339010    -1.320063601231956    -1.874502708786431
    C                0.882329738339010    -0.226063601231956    -2.057502708786431
    O               -1.603670261660990    -2.501063601231956    -0.630502708786431
    H               -1.610670261660990    -0.369063601231956     0.931497291213569
    H               -0.158670261660990     1.631936398768044     0.551497291213569
    H                0.098329738339010    -2.147063601231956    -2.569502708786430
    H               -1.443670261660990    -3.149063601231956    -1.326502708786431
    H                1.444329738339010     2.770936398768044    -0.645502708786431
    H                1.724329738339010     2.292936398768044    -2.318502708786430
    H                1.584329738339010    -0.206063601231956    -2.881502708786431
    H                2.784106738339010     1.649545398768044    -1.022702708786431

}
e, wfn = energy('scf', return_wfn=True)
gdma(wfn)
dmavals = variable('DMA DISTRIBUTED MULTIPOLES')
charges = np.array(dmavals)
print(charges)
np.save('SSI-065SER-068TYR-1-dimer.npy', np.array(charges))--------------------------------------------------------------------------

*** tstart() called on ds3
*** at Mon Apr 27 22:37:18 2020

   => Loading Basis Set <=

    Name: CC-PVDZ
    Role: ORBITAL
    Keyword: BASIS
    atoms 1, 7-13    entry C          line   138 file /theoryfs2/ds/metcalf/miniconda2/envs/tf2gpu/share/psi4/basis/cc-pvdz.gbs
    atoms 2, 14      entry O          line   198 file /theoryfs2/ds/metcalf/miniconda2/envs/tf2gpu/share/psi4/basis/cc-pvdz.gbs
    atoms 3-6, 15-22 entry H          line    22 file /theoryfs2/ds/metcalf/miniconda2/envs/tf2gpu/share/psi4/basis/cc-pvdz.gbs

         ---------------------------------------------------------
                                   SCF
               by Justin Turney, Rob Parrish, Andy Simmonett
                          and Daniel G. A. Smith
                              RHF Reference
                        1 Threads,    500 MiB Core
         ---------------------------------------------------------

  ==> Geometry <==

    Molecular point group: c1
    Full point group: C1

    Geometry (in Angstrom), charge = 0, multiplicity = 1:

       Center              X                  Y                   Z               Mass
    ------------   -----------------  -----------------  -----------------  -----------------
         C           -0.151670261661     1.388936398768     3.906497291214    12.000000000000
         O            0.256329738339     0.812936398768     2.700497291214    15.994914619570
         H           -0.127670261661    -0.072063601232     2.634497291214     1.007825032230
         H            0.335329738339     0.867936398768     4.732497291214     1.007825032230
         H           -1.228670261661     1.291936398768     4.023497291214     1.007825032230
         H            0.149749738339     2.446803398768     3.914467291214     1.007825032230
         C            1.757329738339     1.943936398768    -1.285502708786    12.000000000000
         C           -0.911670261661    -0.335063601232     0.109497291214    12.000000000000
         C           -0.855670261661    -1.376063601232    -0.806502708786    12.000000000000
         C           -0.085670261661     0.771936398768    -0.096502708786    12.000000000000
         C            0.817329738339     0.813936398768    -1.160502708786    12.000000000000
         C            0.045329738339    -1.320063601232    -1.874502708786    12.000000000000
         C            0.882329738339    -0.226063601232    -2.057502708786    12.000000000000
         O           -1.603670261661    -2.501063601232    -0.630502708786    15.994914619570
         H           -1.610670261661    -0.369063601232     0.931497291214     1.007825032230
         H           -0.158670261661     1.631936398768     0.551497291214     1.007825032230
         H            0.098329738339    -2.147063601232    -2.569502708786     1.007825032230
         H           -1.443670261661    -3.149063601232    -1.326502708786     1.007825032230
         H            1.444329738339     2.770936398768    -0.645502708786     1.007825032230
         H            1.724329738339     2.292936398768    -2.318502708786     1.007825032230
         H            1.584329738339    -0.206063601232    -2.881502708786     1.007825032230
         H            2.784106738339     1.649545398768    -1.022702708786     1.007825032230

  Running in c1 symmetry.

  Rotational constants: A =      0.04872  B =      0.02718  C =      0.01811 [cm^-1]
  Rotational constants: A =   1460.46760  B =    814.89358  C =    542.91735 [MHz]
  Nuclear repulsion =  504.616020329576600

  Charge       = 0
  Multiplicity = 1
  Electrons    = 76
  Nalpha       = 38
  Nbeta        = 38

  ==> Algorithm <==

  SCF Algorithm Type is PK.
  DIIS enabled.
  MOM disabled.
  Fractional occupation disabled.
  Guess Type is SAD.
  Energy threshold   = 1.00e-06
  Density threshold  = 1.00e-10
  Integral threshold = 0.00e+00

  ==> Primary Basis <==

  Basis Set: CC-PVDZ
    Blend: CC-PVDZ
    Number of shells: 96
    Number of basis function: 200
    Number of Cartesian functions: 210
    Spherical Harmonics?: true
    Max angular momentum: 2

  ==> Pre-Iterations <==

   -------------------------------------------------------
    Irrep   Nso     Nmo     Nalpha   Nbeta   Ndocc  Nsocc
   -------------------------------------------------------
     A        200     200       0       0       0       0
   -------------------------------------------------------
    Total     200     200      38      38      38       0
   -------------------------------------------------------

  ==> Integral Setup <==

  Using integral reordering PK algorithm.
  Sizing the integral batches needed.
  Building batch lookup table.
   Calculation information:
      Number of atoms:                  22
      Number of AO shells:              96
      Number of primitives:            280
      Number of atomic orbitals:       210
      Number of basis functions:       200

      Integral cutoff                 1.00e-12
      Number of threads:                 1

	Batch   1 pq = [       0,    9405] index = [             0,44231715] size =     44231715
	Batch   2 pq = [    9405,   13301] index = [      44231715,88464951] size =     44233236
	Batch   3 pq = [   13301,   16290] index = [      88464951,132690195] size =     44225244
	Batch   4 pq = [   16290,   18810] index = [     132690195,176917455] size =     44227260
	Batch   5 pq = [   18810,   20100] index = [     176917455,202015050] size =     25097595
  Task number: 19
  Buffer size: 11059200
  Buffer per thread: 2
  We computed 9518766 shell quartets total.
  Whereas there are 10841496 unique shell quartets.

  ==> DiskJK: Disk-Based J/K Matrices <==

    J tasked:                  Yes
    K tasked:                  Yes
    wK tasked:                  No
    Memory [MiB]:              375
    Schwarz Cutoff:          1E-12

    OpenMP threads:              1

  Minimum eigenvalue in the overlap matrix is 3.2667243393E-04.
  Using Symmetric Orthogonalization.

  SCF Guess: Superposition of Atomic Densities via on-the-fly atomic UHF.

  ==> Iterations <==

                        Total Energy        Delta E     RMS |[F,P]|

   @RHF iter SAD:  -458.59518626986556   -4.58595e+02   0.00000e+00
   @RHF iter   1:  -459.41906516805727   -8.23879e-01   3.19105e-03 DIIS
   @RHF iter   2:  -459.62364510762558   -2.04580e-01   1.47941e-03 DIIS
   @RHF iter   3:  -459.66214081752742   -3.84957e-02   3.36897e-04 DIIS
   @RHF iter   4:  -459.66521978924766   -3.07897e-03   1.30141e-04 DIIS
   @RHF iter   5:  -459.66562206885931   -4.02280e-04   2.41286e-05 DIIS
   @RHF iter   6:  -459.66564190132561   -1.98325e-05   9.52264e-06 DIIS
   @RHF iter   7:  -459.66564506013424   -3.15881e-06   3.08917e-06 DIIS
   @RHF iter   8:  -459.66564560146429   -5.41330e-07   1.12067e-06 DIIS
   @RHF iter   9:  -459.66564571450920   -1.13045e-07   5.34086e-07 DIIS
   @RHF iter  10:  -459.66564573941548   -2.49063e-08   2.52918e-07 DIIS
   @RHF iter  11:  -459.66564574709400   -7.67852e-09   9.86713e-08 DIIS
   @RHF iter  12:  -459.66564574781961   -7.25606e-10   3.63879e-08 DIIS
   @RHF iter  13:  -459.66564574790135   -8.17408e-11   8.64941e-09 DIIS
   @RHF iter  14:  -459.66564574790800   -6.65068e-12   2.29258e-09 DIIS
   @RHF iter  15:  -459.66564574790732    6.82121e-13   8.78573e-10 DIIS
   @RHF iter  16:  -459.66564574790743   -1.13687e-13   3.06539e-10 DIIS
   @RHF iter  17:  -459.66564574790715    2.84217e-13   1.48753e-10 DIIS
   @RHF iter  18:  -459.66564574790618    9.66338e-13   6.72580e-11 DIIS
  Energy and wave function converged.

  ==> Post-Iterations <==

    Orbital Energies [Eh]
    ---------------------

    Doubly Occupied:

       1A    -20.579224     2A    -20.550047     3A    -11.294311
       4A    -11.274416     5A    -11.230255     6A    -11.226178
       7A    -11.225494     8A    -11.223919     9A    -11.217864
      10A    -11.216097    11A     -1.395934    12A     -1.359199
      13A     -1.146686    14A     -1.035834    15A     -1.011098
      16A     -0.921786    17A     -0.916981    18A     -0.839586
      19A     -0.794756    20A     -0.726101    21A     -0.689660
      22A     -0.664325    23A     -0.635274    24A     -0.621700
      25A     -0.602551    26A     -0.598131    27A     -0.583391
      28A     -0.576752    29A     -0.566947    30A     -0.559565
      31A     -0.516985    32A     -0.498552    33A     -0.490436
      34A     -0.477051    35A     -0.459074    36A     -0.438400
      37A     -0.330694    38A     -0.293886

    Virtual:

      39A      0.134666    40A      0.164258    41A      0.173164
      42A      0.183712    43A      0.199375    44A      0.220457
      45A      0.233162    46A      0.246677    47A      0.257617
      48A      0.271283    49A      0.277676    50A      0.285267
      51A      0.299212    52A      0.316013    53A      0.363282
      54A      0.383265    55A      0.400208    56A      0.431100
      57A      0.461950    58A      0.498129    59A      0.508694
      60A      0.518538    61A      0.621402    62A      0.629857
      63A      0.636261    64A      0.641533    65A      0.659868
      66A      0.669096    67A      0.693063    68A      0.699244
      69A      0.715842    70A      0.727486    71A      0.740454
      72A      0.748562    73A      0.767427    74A      0.778029
      75A      0.784063    76A      0.790862    77A      0.801591
      78A      0.832525    79A      0.838825    80A      0.850246
      81A      0.860338    82A      0.881030    83A      0.889312
      84A      0.892344    85A      0.903224    86A      0.908929
      87A      0.913666    88A      0.919036    89A      0.936541
      90A      0.944749    91A      0.956160    92A      0.958954
      93A      1.023087    94A      1.034234    95A      1.063457
      96A      1.119278    97A      1.134402    98A      1.145443
      99A      1.159535   100A      1.168512   101A      1.177549
     102A      1.188549   103A      1.228566   104A      1.237178
     105A      1.248326   106A      1.259789   107A      1.287178
     108A      1.293145   109A      1.302866   110A      1.330057
     111A      1.353645   112A      1.362562   113A      1.387736
     114A      1.399881   115A      1.471580   116A      1.481656
     117A      1.518946   118A      1.530037   119A      1.540165
     120A      1.594452   121A      1.622322   122A      1.625391
     123A      1.653284   124A      1.668198   125A      1.689916
     126A      1.709613   127A      1.725780   128A      1.743582
     129A      1.761721   130A      1.800376   131A      1.813164
     132A      1.819127   133A      1.865684   134A      1.878836
     135A      1.892429   136A      1.906872   137A      1.913918
     138A      1.918577   139A      1.922033   140A      1.937376
     141A      1.946838   142A      1.957717   143A      1.977023
     144A      1.990338   145A      1.999240   146A      2.020435
     147A      2.036561   148A      2.043667   149A      2.058545
     150A      2.070028   151A      2.081393   152A      2.095239
     153A      2.149508   154A      2.166588   155A      2.186806
     156A      2.202423   157A      2.227666   158A      2.246017
     159A      2.273983   160A      2.293078   161A      2.299699
     162A      2.325307   163A      2.358291   164A      2.368249
     165A      2.376323   166A      2.396618   167A      2.423877
     168A      2.461396   169A      2.500100   170A      2.522781
     171A      2.533057   172A      2.542950   173A      2.547173
     174A      2.629278   175A      2.650457   176A      2.749413
     177A      2.759709   178A      2.769624   179A      2.780224
     180A      2.785893   181A      2.810703   182A      2.831432
     183A      2.850940   184A      2.910556   185A      2.967981
     186A      3.013764   187A      3.105196   188A      3.143752
     189A      3.255803   190A      3.296176   191A      3.309632
     192A      3.349081   193A      3.410758   194A      3.468350
     195A      3.580874   196A      3.621096   197A      3.686588
     198A      3.985078   199A      4.118159   200A      4.194749

    Final Occupation by Irrep:
              A
    DOCC [    38 ]

  @RHF Final Energy:  -459.66564574790618

   => Energetics <=

    Nuclear Repulsion Energy =            504.6160203295765996
    One-Electron Energy =               -1626.9850475663834004
    Two-Electron Energy =                 662.7033814889005043
    Total Energy =                       -459.6656457479061828

Computation Completed

Properties will be evaluated at   0.000000,   0.000000,   0.000000 [a0]

Properties computed using the SCF density matrix

  Nuclear Dipole Moment: [e a0]
     X:     3.3226      Y:     6.5623      Z:     5.6570

  Electronic Dipole Moment: [e a0]
     X:    -3.3329      Y:    -6.8098      Z:    -5.5370

  Dipole Moment: [e a0]
     X:    -0.0103      Y:    -0.2475      Z:     0.1200     Total:     0.2752

  Dipole Moment: [D]
     X:    -0.0261      Y:    -0.6291      Z:     0.3049     Total:     0.6996

*** tstop() called on ds3 at Mon Apr 27 22:39:11 2020
Module time:
	user time   =      77.36 seconds =       1.29 minutes
	system time =      32.19 seconds =       0.54 minutes
	total time  =        113 seconds =       1.88 minutes
Total time:
	user time   =      77.36 seconds =       1.29 minutes
	system time =      32.19 seconds =       0.54 minutes
	total time  =        113 seconds =       1.88 minutes
                                     G D M A

                                 by Anthony Stone

                           version 2.2.06, 22 June 2011

               Distributed Multipoles from Gaussian wavefunctions

Starting at 22:39:11 on 27 Apr 2020

Using SCF density matrix from file ./SSI/SSI-065SER-068TYR-1-dimer.test.31476.fchk

                         Distributed Multipole Analysis

Standard DMA

Positions and radii in angstrom
Multipole moments in atomic units, ea_0^k for rank k

C          x = -0.151670  y =  1.388936  z =  3.906497 angstrom
           Maximum rank =  0   Radius =  0.650 angstrom
                   Q00  =  -0.037781

O          x =  0.256330  y =  0.812936  z =  2.700497 angstrom
           Maximum rank =  0   Radius =  0.650 angstrom
                   Q00  =  -0.565455

H          x = -0.127670  y = -0.072064  z =  2.634497 angstrom
           Maximum rank =  0   Radius =  0.325 angstrom
                   Q00  =   0.391233

H          x =  0.335330  y =  0.867936  z =  4.732497 angstrom
           Maximum rank =  0   Radius =  0.325 angstrom
                   Q00  =   0.063895

H          x = -1.228670  y =  1.291936  z =  4.023497 angstrom
           Maximum rank =  0   Radius =  0.325 angstrom
                   Q00  =   0.062124

H          x =  0.149750  y =  2.446803  z =  3.914467 angstrom
           Maximum rank =  0   Radius =  0.325 angstrom
                   Q00  =   0.110134

C          x =  1.757330  y =  1.943936  z = -1.285503 angstrom
           Maximum rank =  0   Radius =  0.650 angstrom
                   Q00  =  -0.178244

C          x = -0.911670  y = -0.335064  z =  0.109497 angstrom
           Maximum rank =  0   Radius =  0.650 angstrom
                   Q00  =  -0.152548

C          x = -0.855670  y = -1.376064  z = -0.806503 angstrom
           Maximum rank =  0   Radius =  0.650 angstrom
                   Q00  =   0.297995

C          x = -0.085670  y =  0.771936  z = -0.096503 angstrom
           Maximum rank =  0   Radius =  0.650 angstrom
                   Q00  =   0.029280

C          x =  0.817330  y =  0.813936  z = -1.160503 angstrom
           Maximum rank =  0   Radius =  0.650 angstrom
                   Q00  =  -0.135244

C          x =  0.045330  y = -1.320064  z = -1.874503 angstrom
           Maximum rank =  0   Radius =  0.650 angstrom
                   Q00  =  -0.090852

C          x =  0.882330  y = -0.226064  z = -2.057503 angstrom
           Maximum rank =  0   Radius =  0.650 angstrom
                   Q00  =  -0.069014

O          x = -1.603670  y = -2.501064  z = -0.630503 angstrom
           Maximum rank =  0   Radius =  0.650 angstrom
                   Q00  =  -0.677950

H          x = -1.610670  y = -0.369064  z =  0.931497 angstrom
           Maximum rank =  0   Radius =  0.325 angstrom
                   Q00  =   0.064011

H          x = -0.158670  y =  1.631936  z =  0.551497 angstrom
           Maximum rank =  0   Radius =  0.325 angstrom
                   Q00  =   0.074225

H          x =  0.098330  y = -2.147064  z = -2.569503 angstrom
           Maximum rank =  0   Radius =  0.325 angstrom
                   Q00  =   0.064426

H          x = -1.443670  y = -3.149064  z = -1.326503 angstrom
           Maximum rank =  0   Radius =  0.325 angstrom
                   Q00  =   0.406909

H          x =  1.444330  y =  2.770936  z = -0.645503 angstrom
           Maximum rank =  0   Radius =  0.325 angstrom
                   Q00  =   0.094925

H          x =  1.724330  y =  2.292936  z = -2.318503 angstrom
           Maximum rank =  0   Radius =  0.325 angstrom
                   Q00  =   0.085011

H          x =  1.584330  y = -0.206064  z = -2.881503 angstrom
           Maximum rank =  0   Radius =  0.325 angstrom
                   Q00  =   0.066872

H          x =  2.784107  y =  1.649545  z = -1.022703 angstrom
           Maximum rank =  0   Radius =  0.325 angstrom
                   Q00  =   0.096048

Total multipoles referred to origin at
           x =   0.000000,  y =    0.000000,  z =    0.000000 angstrom
                   Q00  =  -0.000000

Finished at 22:39:11 on 27 Apr 2020

  DMA results are available in the Python driver through the
	  variable('DMA DISTRIBUTED MULTIPOLES')
  and
	  variable('DMA TOTAL MULTIPOLES')
  commands.

    Psi4 stopped on: Monday, 27 April 2020 10:39PM
    Psi4 wall time for execution: 0:01:52.93

*** Psi4 exiting successfully. Buy a developer a beer!
