                               Psi4 1.3.2 release

  ==> Input File <==

--------------------------------------------------------------------------
import numpy as np
set {scf_type pk
basis cc-pvdz
d_convergence 10
gdma_switch   0
gdma_limit    0
gdma_origin   [ 0.0,  0.0,  0.0 ]
}
molecule test {
    units Angstrom
    0 1
    --
    0 1
    C               -1.737505478317531     0.085408074230021    -0.804582901122427
    C               -3.180505478317531     0.467408074230021    -0.817582901122427
    H               -1.489505478317531    -0.423591925769979     0.126417098877573
    H               -1.535505478317531    -0.590591925769979    -1.635582901122427
    H               -1.112505478317531     0.972408074230021    -0.908582901122427
    H               -3.789505478317531    -0.432591925769979    -0.737582901122427
    H               -3.381505478317531     0.911408074230021    -1.791582901122427
    H               -3.442852478317532     1.165568074230021    -0.009032901122427
    C                1.823494521682469     0.049408074230021     0.522417098877573
    C                3.096494521682469    -0.592591925769979     1.098417098877573
    H                2.129494521682469     0.801408074230021    -0.181582901122427
    H                1.203494521682469    -0.703591925769979     0.036417098877573
    H                1.257494521682468     0.521408074230021     1.325417098877573
    H                2.764494521682469    -1.232591925769979     1.912417098877573
    H                3.790214521682469     0.157278074230021     1.506407098877573
    H                3.582634521682468    -1.261208925769979     0.372727098877573

}
e, wfn = energy('scf', return_wfn=True)
gdma(wfn)
dmavals = variable('DMA DISTRIBUTED MULTIPOLES')
charges = np.array(dmavals)
print(charges)
np.save('SSI-194ILE-205LEU-1-dimer.npy', np.array(charges))--------------------------------------------------------------------------

*** tstart() called on ds3
*** at Tue Apr 28 11:39:51 2020

   => Loading Basis Set <=

    Name: CC-PVDZ
    Role: ORBITAL
    Keyword: BASIS
    atoms 1-2, 9-10  entry C          line   138 file /theoryfs2/ds/metcalf/miniconda2/envs/tf2gpu/share/psi4/basis/cc-pvdz.gbs
    atoms 3-8, 11-16 entry H          line    22 file /theoryfs2/ds/metcalf/miniconda2/envs/tf2gpu/share/psi4/basis/cc-pvdz.gbs

         ---------------------------------------------------------
                                   SCF
               by Justin Turney, Rob Parrish, Andy Simmonett
                          and Daniel G. A. Smith
                              RHF Reference
                        1 Threads,    500 MiB Core
         ---------------------------------------------------------

  ==> Geometry <==

    Molecular point group: c1
    Full point group: C1

    Geometry (in Angstrom), charge = 0, multiplicity = 1:

       Center              X                  Y                   Z               Mass
    ------------   -----------------  -----------------  -----------------  -----------------
         C           -1.737505478318     0.085408074230    -0.804582901122    12.000000000000
         C           -3.180505478318     0.467408074230    -0.817582901122    12.000000000000
         H           -1.489505478318    -0.423591925770     0.126417098878     1.007825032230
         H           -1.535505478318    -0.590591925770    -1.635582901122     1.007825032230
         H           -1.112505478318     0.972408074230    -0.908582901122     1.007825032230
         H           -3.789505478318    -0.432591925770    -0.737582901122     1.007825032230
         H           -3.381505478318     0.911408074230    -1.791582901122     1.007825032230
         H           -3.442852478318     1.165568074230    -0.009032901122     1.007825032230
         C            1.823494521682     0.049408074230     0.522417098878    12.000000000000
         C            3.096494521682    -0.592591925770     1.098417098878    12.000000000000
         H            2.129494521682     0.801408074230    -0.181582901122     1.007825032230
         H            1.203494521682    -0.703591925770     0.036417098878     1.007825032230
         H            1.257494521682     0.521408074230     1.325417098878     1.007825032230
         H            2.764494521682    -1.232591925770     1.912417098878     1.007825032230
         H            3.790214521682     0.157278074230     1.506407098878     1.007825032230
         H            3.582634521682    -1.261208925770     0.372727098878     1.007825032230

  Running in c1 symmetry.

  Rotational constants: A =      1.01200  B =      0.03709  C =      0.03701 [cm^-1]
  Rotational constants: A =  30339.03477  B =   1111.82763  C =   1109.67447 [MHz]
  Nuclear repulsion =  119.258234852856361

  Charge       = 0
  Multiplicity = 1
  Electrons    = 36
  Nalpha       = 18
  Nbeta        = 18

  ==> Algorithm <==

  SCF Algorithm Type is PK.
  DIIS enabled.
  MOM disabled.
  Fractional occupation disabled.
  Guess Type is SAD.
  Energy threshold   = 1.00e-06
  Density threshold  = 1.00e-10
  Integral threshold = 0.00e+00

  ==> Primary Basis <==

  Basis Set: CC-PVDZ
    Blend: CC-PVDZ
    Number of shells: 60
    Number of basis function: 116
    Number of Cartesian functions: 120
    Spherical Harmonics?: true
    Max angular momentum: 2

  ==> Pre-Iterations <==

   -------------------------------------------------------
    Irrep   Nso     Nmo     Nalpha   Nbeta   Ndocc  Nsocc
   -------------------------------------------------------
     A        116     116       0       0       0       0
   -------------------------------------------------------
    Total     116     116      18      18      18       0
   -------------------------------------------------------

  ==> Integral Setup <==

  Using integral reordering PK algorithm.
  Sizing the integral batches needed.
  Building batch lookup table.
   Calculation information:
      Number of atoms:                  16
      Number of AO shells:              60
      Number of primitives:            148
      Number of atomic orbitals:       120
      Number of basis functions:       116

      Integral cutoff                 1.00e-12
      Number of threads:                 1

	Batch   1 pq = [       0,    6786] index = [             0,23028291] size =     23028291
  Task number: 3
  Buffer size: 11059200
  Buffer per thread: 2
  We computed 1295167 shell quartets total.
  Whereas there are 1675365 unique shell quartets.

  ==> DiskJK: Disk-Based J/K Matrices <==

    J tasked:                  Yes
    K tasked:                  Yes
    wK tasked:                  No
    Memory [MiB]:              375
    Schwarz Cutoff:          1E-12

    OpenMP threads:              1

  Minimum eigenvalue in the overlap matrix is 5.8233666400E-03.
  Using Symmetric Orthogonalization.

  SCF Guess: Superposition of Atomic Densities via on-the-fly atomic UHF.

  ==> Iterations <==

                        Total Energy        Delta E     RMS |[F,P]|

   @RHF iter SAD:  -157.40209870604809   -1.57402e+02   0.00000e+00
   @RHF iter   1:  -158.30163742124719   -8.99539e-01   4.27702e-03 DIIS
   @RHF iter   2:  -158.43772957781391   -1.36092e-01   1.83299e-03 DIIS
   @RHF iter   3:  -158.46199183055217   -2.42623e-02   3.52452e-04 DIIS
   @RHF iter   4:  -158.46384656960601   -1.85474e-03   3.97044e-05 DIIS
   @RHF iter   5:  -158.46387108444617   -2.45148e-05   7.67003e-06 DIIS
   @RHF iter   6:  -158.46387185419826   -7.69752e-07   1.80446e-06 DIIS
   @RHF iter   7:  -158.46387188385526   -2.96570e-08   3.19832e-07 DIIS
   @RHF iter   8:  -158.46387188501512   -1.15986e-09   4.52060e-08 DIIS
   @RHF iter   9:  -158.46387188504804   -3.29123e-11   1.21621e-08 DIIS
   @RHF iter  10:  -158.46387188505000   -1.96110e-12   3.31289e-09 DIIS
   @RHF iter  11:  -158.46387188505020   -1.98952e-13   7.18678e-10 DIIS
   @RHF iter  12:  -158.46387188505039   -1.98952e-13   1.30144e-10 DIIS
   @RHF iter  13:  -158.46387188505031    8.52651e-14   2.51290e-11 DIIS
  Energy and wave function converged.

  ==> Post-Iterations <==

    Orbital Energies [Eh]
    ---------------------

    Doubly Occupied:

       1A    -11.217995     2A    -11.214799     3A    -11.214669
       4A    -11.213076     5A     -1.027775     6A     -1.016333
       7A     -0.837983     8A     -0.831674     9A     -0.603920
      10A     -0.601978    11A     -0.599810    12A     -0.594918
      13A     -0.509436    14A     -0.497031    15A     -0.490418
      16A     -0.482527    17A     -0.480486    18A     -0.478050

    Virtual:

      19A      0.177749    20A      0.192833    21A      0.220629
      22A      0.237006    23A      0.243544    24A      0.260844
      25A      0.264250    26A      0.279320    27A      0.286319
      28A      0.287117    29A      0.291602    30A      0.307778
      31A      0.388332    32A      0.422714    33A      0.566892
      34A      0.593611    35A      0.603380    36A      0.605529
      37A      0.608971    38A      0.652131    39A      0.661524
      40A      0.682919    41A      0.708068    42A      0.738281
      43A      0.847073    44A      0.881388    45A      0.890867
      46A      0.893363    47A      0.895060    48A      0.898314
      49A      0.901451    50A      0.910615    51A      0.918223
      52A      0.920528    53A      0.927861    54A      0.948072
      55A      0.956203    56A      1.001346    57A      1.121111
      58A      1.128991    59A      1.131966    60A      1.138700
      61A      1.228059    62A      1.245605    63A      1.461985
      64A      1.475512    65A      1.492078    66A      1.498255
      67A      1.577712    68A      1.590051    69A      1.680046
      70A      1.681100    71A      1.693306    72A      1.695642
      73A      1.843609    74A      1.853792    75A      1.857670
      76A      1.886212    77A      1.892119    78A      1.918720
      79A      1.929538    80A      1.933100    81A      1.943590
      82A      1.958858    83A      1.960660    84A      1.963513
      85A      1.977785    86A      1.994218    87A      1.997874
      88A      2.061580    89A      2.086279    90A      2.093777
      91A      2.128518    92A      2.160073    93A      2.289325
      94A      2.306660    95A      2.317563    96A      2.346509
      97A      2.436365    98A      2.459503    99A      2.482939
     100A      2.484755   101A      2.554430   102A      2.565796
     103A      2.585831   104A      2.599125   105A      2.760809
     106A      2.767713   107A      2.790927   108A      2.802947
     109A      2.836877   110A      2.855844   111A      2.869666
     112A      2.872065   113A      2.936717   114A      2.948721
     115A      2.965259   116A      2.975803

    Final Occupation by Irrep:
              A
    DOCC [    18 ]

  @RHF Final Energy:  -158.46387188505031

   => Energetics <=

    Nuclear Repulsion Energy =            119.2582348528563614
    One-Electron Energy =                -447.6184565581022525
    Two-Electron Energy =                 169.8963498201955531
    Total Energy =                       -158.4638718850503096

Computation Completed

Properties will be evaluated at   0.000000,   0.000000,   0.000000 [a0]

Properties computed using the SCF density matrix

  Nuclear Dipole Moment: [e a0]
     X:    -0.0221      Y:    -0.1075      Z:     0.0149

  Electronic Dipole Moment: [e a0]
     X:     0.0087      Y:     0.0988      Z:    -0.0228

  Dipole Moment: [e a0]
     X:    -0.0134      Y:    -0.0087      Z:    -0.0079     Total:     0.0179

  Dipole Moment: [D]
     X:    -0.0341      Y:    -0.0221      Z:    -0.0202     Total:     0.0454

*** tstop() called on ds3 at Tue Apr 28 11:40:01 2020
Module time:
	user time   =       6.62 seconds =       0.11 minutes
	system time =       2.65 seconds =       0.04 minutes
	total time  =         10 seconds =       0.17 minutes
Total time:
	user time   =       6.62 seconds =       0.11 minutes
	system time =       2.65 seconds =       0.04 minutes
	total time  =         10 seconds =       0.17 minutes
                                     G D M A

                                 by Anthony Stone

                           version 2.2.06, 22 June 2011

               Distributed Multipoles from Gaussian wavefunctions

Starting at 11:40:1 on 28 Apr 2020

Using SCF density matrix from file ./SSI/SSI-194ILE-205LEU-1-dimer.test.5730.fchk

                         Distributed Multipole Analysis

Standard DMA

Positions and radii in angstrom
Multipole moments in atomic units, ea_0^k for rank k

C          x = -1.737505  y =  0.085408  z = -0.804583 angstrom
           Maximum rank =  0   Radius =  0.650 angstrom
                   Q00  =  -0.225470

C          x = -3.180505  y =  0.467408  z = -0.817583 angstrom
           Maximum rank =  0   Radius =  0.650 angstrom
                   Q00  =  -0.226048

H          x = -1.489505  y = -0.423592  z =  0.126417 angstrom
           Maximum rank =  0   Radius =  0.325 angstrom
                   Q00  =   0.073514

H          x = -1.535505  y = -0.590592  z = -1.635583 angstrom
           Maximum rank =  0   Radius =  0.325 angstrom
                   Q00  =   0.074791

H          x = -1.112505  y =  0.972408  z = -0.908583 angstrom
           Maximum rank =  0   Radius =  0.325 angstrom
                   Q00  =   0.077093

H          x = -3.789505  y = -0.432592  z = -0.737583 angstrom
           Maximum rank =  0   Radius =  0.325 angstrom
                   Q00  =   0.074902

H          x = -3.381505  y =  0.911408  z = -1.791583 angstrom
           Maximum rank =  0   Radius =  0.325 angstrom
                   Q00  =   0.073284

H          x = -3.442852  y =  1.165568  z = -0.009033 angstrom
           Maximum rank =  0   Radius =  0.325 angstrom
                   Q00  =   0.078739

C          x =  1.823495  y =  0.049408  z =  0.522417 angstrom
           Maximum rank =  0   Radius =  0.650 angstrom
                   Q00  =  -0.235021

C          x =  3.096495  y = -0.592592  z =  1.098417 angstrom
           Maximum rank =  0   Radius =  0.650 angstrom
                   Q00  =  -0.243467

H          x =  2.129495  y =  0.801408  z = -0.181583 angstrom
           Maximum rank =  0   Radius =  0.325 angstrom
                   Q00  =   0.078555

H          x =  1.203495  y = -0.703592  z =  0.036417 angstrom
           Maximum rank =  0   Radius =  0.325 angstrom
                   Q00  =   0.084546

H          x =  1.257495  y =  0.521408  z =  1.325417 angstrom
           Maximum rank =  0   Radius =  0.325 angstrom
                   Q00  =   0.078246

H          x =  2.764495  y = -1.232592  z =  1.912417 angstrom
           Maximum rank =  0   Radius =  0.325 angstrom
                   Q00  =   0.072862

H          x =  3.790215  y =  0.157278  z =  1.506407 angstrom
           Maximum rank =  0   Radius =  0.325 angstrom
                   Q00  =   0.082644

H          x =  3.582635  y = -1.261209  z =  0.372727 angstrom
           Maximum rank =  0   Radius =  0.325 angstrom
                   Q00  =   0.080828

Total multipoles referred to origin at
           x =   0.000000,  y =    0.000000,  z =    0.000000 angstrom
                   Q00  =  -0.000000

Finished at 11:40:1 on 28 Apr 2020

  DMA results are available in the Python driver through the
	  variable('DMA DISTRIBUTED MULTIPOLES')
  and
	  variable('DMA TOTAL MULTIPOLES')
  commands.

    Psi4 stopped on: Tuesday, 28 April 2020 11:40AM
    Psi4 wall time for execution: 0:00:09.76

*** Psi4 exiting successfully. Buy a developer a beer!
