                               Psi4 1.3.2 release

  ==> Input File <==

--------------------------------------------------------------------------
import numpy as np
set {scf_type pk
basis cc-pvdz
d_convergence 10
gdma_switch   0
gdma_limit    0
gdma_origin   [ 0.0,  0.0,  0.0 ]
}
molecule test {
    units Angstrom
    0 1
    --
    0 1
    C                1.983622344949636    -0.147683590894537     0.111017164167878
    C                3.407622344949636    -0.696683590894537     0.022017164167878
    C                1.139622344949636    -0.339683590894537    -1.125982835832122
    C                0.479622344949636    -1.547683590894537    -1.355982835832122
    C                0.960622344949636     0.705316409105463    -2.034982835832122
    C               -0.319377655050364    -1.725683590894537    -2.484982835832122
    C                0.160622344949636     0.539316409105463    -3.171982835832122
    C               -0.487377655050364    -0.676683590894537    -3.388982835832122
    O               -1.279377655050364    -0.854683590894537    -4.484982835832123
    H                1.477622344949636    -0.649683590894537     0.932017164167878
    H                2.038622344949636     0.908316409105463     0.358017164167878
    H                3.891622344949636    -0.554683590894537     0.990017164167878
    H                0.580622344949636    -2.362683590894537    -0.652982835832122
    H                1.454622344949636     1.652316409105463    -1.870982835832122
    H               -0.790377655050364    -2.678683590894538    -2.665982835832122
    H                0.033622344949636     1.348316409105463    -3.876982835832122
    H               -1.710377655050364    -1.715683590894537    -4.486982835832122
    H                3.971507344949636    -0.166858590894537    -0.759852835832122
    H                3.427057344949636    -1.774230590894537    -0.198242835832122
    C               -0.328377655050364     1.016316409105463     2.626017164167878
    C                0.848622344949636     0.600316409105463     3.520017164167878
    C               -1.641377655050364     1.009316409105463     3.375017164167878
    O               -1.692377655050364     1.317316409105463     4.568017164167879
    N               -2.716377655050364     0.635316409105463     2.692017164167878
    H               -0.179377655050364     2.009316409105463     2.204017164167878
    H               -0.405377655050364     0.307316409105463     1.801017164167878
    H                1.722622344949636     0.475316409105463     2.881017164167878
    H               -3.606377655050364     0.631316409105463     3.169017164167878
    H               -2.653377655050364     0.395316409105463     1.714017164167878
    H                0.640231344949636    -0.338198590894537     4.054585164167878
    H                1.145200344949636     1.388057409105463     4.228188164167878

}
e, wfn = energy('scf', return_wfn=True)
gdma(wfn)
dmavals = variable('DMA DISTRIBUTED MULTIPOLES')
charges = np.array(dmavals)
print(charges)
np.save('SSI-083TYR-096ASN-1-dimer.npy', np.array(charges))--------------------------------------------------------------------------

*** tstart() called on ds3
*** at Tue Apr 28 00:14:09 2020

   => Loading Basis Set <=

    Name: CC-PVDZ
    Role: ORBITAL
    Keyword: BASIS
    atoms 1-8, 20-22   entry C          line   138 file /theoryfs2/ds/metcalf/miniconda2/envs/tf2gpu/share/psi4/basis/cc-pvdz.gbs
    atoms 9, 23        entry O          line   198 file /theoryfs2/ds/metcalf/miniconda2/envs/tf2gpu/share/psi4/basis/cc-pvdz.gbs
    atoms 10-19, 25-31 entry H          line    22 file /theoryfs2/ds/metcalf/miniconda2/envs/tf2gpu/share/psi4/basis/cc-pvdz.gbs
    atoms 24           entry N          line   168 file /theoryfs2/ds/metcalf/miniconda2/envs/tf2gpu/share/psi4/basis/cc-pvdz.gbs

         ---------------------------------------------------------
                                   SCF
               by Justin Turney, Rob Parrish, Andy Simmonett
                          and Daniel G. A. Smith
                              RHF Reference
                        1 Threads,    500 MiB Core
         ---------------------------------------------------------

  ==> Geometry <==

    Molecular point group: c1
    Full point group: C1

    Geometry (in Angstrom), charge = 0, multiplicity = 1:

       Center              X                  Y                   Z               Mass
    ------------   -----------------  -----------------  -----------------  -----------------
         C            1.983622344950    -0.147683590895     0.111017164168    12.000000000000
         C            3.407622344950    -0.696683590895     0.022017164168    12.000000000000
         C            1.139622344950    -0.339683590895    -1.125982835832    12.000000000000
         C            0.479622344950    -1.547683590895    -1.355982835832    12.000000000000
         C            0.960622344950     0.705316409105    -2.034982835832    12.000000000000
         C           -0.319377655050    -1.725683590895    -2.484982835832    12.000000000000
         C            0.160622344950     0.539316409105    -3.171982835832    12.000000000000
         C           -0.487377655050    -0.676683590895    -3.388982835832    12.000000000000
         O           -1.279377655050    -0.854683590895    -4.484982835832    15.994914619570
         H            1.477622344950    -0.649683590895     0.932017164168     1.007825032230
         H            2.038622344950     0.908316409105     0.358017164168     1.007825032230
         H            3.891622344950    -0.554683590895     0.990017164168     1.007825032230
         H            0.580622344950    -2.362683590895    -0.652982835832     1.007825032230
         H            1.454622344950     1.652316409105    -1.870982835832     1.007825032230
         H           -0.790377655050    -2.678683590895    -2.665982835832     1.007825032230
         H            0.033622344950     1.348316409105    -3.876982835832     1.007825032230
         H           -1.710377655050    -1.715683590895    -4.486982835832     1.007825032230
         H            3.971507344950    -0.166858590895    -0.759852835832     1.007825032230
         H            3.427057344950    -1.774230590895    -0.198242835832     1.007825032230
         C           -0.328377655050     1.016316409105     2.626017164168    12.000000000000
         C            0.848622344950     0.600316409105     3.520017164168    12.000000000000
         C           -1.641377655050     1.009316409105     3.375017164168    12.000000000000
         O           -1.692377655050     1.317316409105     4.568017164168    15.994914619570
         N           -2.716377655050     0.635316409105     2.692017164168    14.003074004430
         H           -0.179377655050     2.009316409105     2.204017164168     1.007825032230
         H           -0.405377655050     0.307316409105     1.801017164168     1.007825032230
         H            1.722622344950     0.475316409105     2.881017164168     1.007825032230
         H           -3.606377655050     0.631316409105     3.169017164168     1.007825032230
         H           -2.653377655050     0.395316409105     1.714017164168     1.007825032230
         H            0.640231344950    -0.338198590895     4.054585164168     1.007825032230
         H            1.145200344950     1.388057409105     4.228188164168     1.007825032230

  Running in c1 symmetry.

  Rotational constants: A =      0.02863  B =      0.00896  C =      0.00743 [cm^-1]
  Rotational constants: A =    858.23385  B =    268.73145  C =    222.60146 [MHz]
  Nuclear repulsion =  832.436442470854217

  Charge       = 0
  Multiplicity = 1
  Electrons    = 106
  Nalpha       = 53
  Nbeta        = 53

  ==> Algorithm <==

  SCF Algorithm Type is PK.
  DIIS enabled.
  MOM disabled.
  Fractional occupation disabled.
  Guess Type is SAD.
  Energy threshold   = 1.00e-06
  Density threshold  = 1.00e-10
  Integral threshold = 0.00e+00

  ==> Primary Basis <==

  Basis Set: CC-PVDZ
    Blend: CC-PVDZ
    Number of shells: 135
    Number of basis function: 281
    Number of Cartesian functions: 295
    Spherical Harmonics?: true
    Max angular momentum: 2

  ==> Pre-Iterations <==

   -------------------------------------------------------
    Irrep   Nso     Nmo     Nalpha   Nbeta   Ndocc  Nsocc
   -------------------------------------------------------
     A        281     281       0       0       0       0
   -------------------------------------------------------
    Total     281     281      53      53      53       0
   -------------------------------------------------------

  ==> Integral Setup <==

  Using integral reordering PK algorithm.
  Sizing the integral batches needed.
  Building batch lookup table.
   Calculation information:
      Number of atoms:                  31
      Number of AO shells:             135
      Number of primitives:            393
      Number of atomic orbitals:       295
      Number of basis functions:       281

      Integral cutoff                 1.00e-12
      Number of threads:                 1

	Batch   1 pq = [       0,    9405] index = [             0,44231715] size =     44231715
	Batch   2 pq = [    9405,   13301] index = [      44231715,88464951] size =     44233236
	Batch   3 pq = [   13301,   16290] index = [      88464951,132690195] size =     44225244
	Batch   4 pq = [   16290,   18810] index = [     132690195,176917455] size =     44227260
	Batch   5 pq = [   18810,   21030] index = [     176917455,221140965] size =     44223510
	Batch   6 pq = [   21030,   23037] index = [     221140965,265363203] size =     44222238
	Batch   7 pq = [   23037,   24883] index = [     265363203,309594286] size =     44231083
	Batch   8 pq = [   24883,   26601] index = [     309594286,353819901] size =     44225615
	Batch   9 pq = [   26601,   28214] index = [     353819901,398029005] size =     44209104
	Batch  10 pq = [   28214,   29740] index = [     398029005,442248670] size =     44219665
	Batch  11 pq = [   29740,   31191] index = [     442248670,486454836] size =     44206166
	Batch  12 pq = [   31191,   32578] index = [     486454836,530679331] size =     44224495
	Batch  13 pq = [   32578,   33908] index = [     530679331,574893186] size =     44213855
	Batch  14 pq = [   33908,   35188] index = [     574893186,619115266] size =     44222080
	Batch  15 pq = [   35188,   36423] index = [     619115266,663335676] size =     44220410
	Batch  16 pq = [   36423,   37617] index = [     663335676,707538153] size =     44202477
	Batch  17 pq = [   37617,   38775] index = [     707538153,751769700] size =     44231547
	Batch  18 pq = [   38775,   39621] index = [     751769700,784931631] size =     33161931
  Task number: 71
  Buffer size: 11059200
  Buffer per thread: 2
  We computed 36999801 shell quartets total.
  Whereas there are 42140790 unique shell quartets.

  ==> DiskJK: Disk-Based J/K Matrices <==

    J tasked:                  Yes
    K tasked:                  Yes
    wK tasked:                  No
    Memory [MiB]:              375
    Schwarz Cutoff:          1E-12

    OpenMP threads:              1

  Minimum eigenvalue in the overlap matrix is 3.2949710809E-04.
  Using Symmetric Orthogonalization.

  SCF Guess: Superposition of Atomic Densities via on-the-fly atomic UHF.

  ==> Iterations <==

                        Total Energy        Delta E     RMS |[F,P]|

   @RHF iter SAD:  -629.25304536498174   -6.29253e+02   0.00000e+00
   @RHF iter   1:  -630.30989294980668   -1.05685e+00   2.84750e-03 DIIS
   @RHF iter   2:  -630.61240435718787   -3.02511e-01   1.47177e-03 DIIS
   @RHF iter   3:  -630.68187962675199   -6.94753e-02   3.49834e-04 DIIS
   @RHF iter   4:  -630.68753503587629   -5.65541e-03   1.43118e-04 DIIS
   @RHF iter   5:  -630.68845707317178   -9.22037e-04   2.04582e-05 DIIS
   @RHF iter   6:  -630.68849869383803   -4.16207e-05   8.73365e-06 DIIS
   @RHF iter   7:  -630.68850439337518   -5.69954e-06   3.56508e-06 DIIS
   @RHF iter   8:  -630.68850569651568   -1.30314e-06   1.46399e-06 DIIS
   @RHF iter   9:  -630.68850590544321   -2.08928e-07   5.17663e-07 DIIS
   @RHF iter  10:  -630.68850593104037   -2.55972e-08   1.89361e-07 DIIS
   @RHF iter  11:  -630.68850593414447   -3.10411e-09   5.51367e-08 DIIS
   @RHF iter  12:  -630.68850593439777   -2.53294e-10   2.02578e-08 DIIS
   @RHF iter  13:  -630.68850593443301   -3.52429e-11   6.17743e-09 DIIS
   @RHF iter  14:  -630.68850593443187    1.13687e-12   2.59103e-09 DIIS
   @RHF iter  15:  -630.68850593444540   -1.35287e-11   1.21308e-09 DIIS
   @RHF iter  16:  -630.68850593444472    6.82121e-13   6.01655e-10 DIIS
   @RHF iter  17:  -630.68850593443699    7.73070e-12   2.46266e-10 DIIS
   @RHF iter  18:  -630.68850593444392   -6.93490e-12   7.25245e-11 DIIS
  Energy and wave function converged.

  ==> Post-Iterations <==

    Orbital Energies [Eh]
    ---------------------

    Doubly Occupied:

       1A    -20.589695     2A    -20.499525     3A    -15.585849
       4A    -11.340515     5A    -11.308228     6A    -11.247728
       7A    -11.247108     8A    -11.241432     9A    -11.239234
      10A    -11.239086    11A    -11.239054    12A    -11.234621
      13A    -11.227784    14A    -11.224704    15A     -1.405940
      16A     -1.361311    17A     -1.212682    18A     -1.158193
      19A     -1.064875    20A     -1.044602    21A     -1.024337
      22A     -0.984025    23A     -0.889087    24A     -0.867941
      25A     -0.850683    26A     -0.799529    27A     -0.782117
      28A     -0.739376    29A     -0.719738    30A     -0.678463
      31A     -0.663823    32A     -0.652209    33A     -0.629910
      34A     -0.620442    35A     -0.602233    36A     -0.593780
      37A     -0.590837    38A     -0.581942    39A     -0.574376
      40A     -0.551907    41A     -0.551146    42A     -0.529229
      43A     -0.516412    44A     -0.508215    45A     -0.502977
      46A     -0.490760    47A     -0.486183    48A     -0.479310
      49A     -0.469837    50A     -0.404182    51A     -0.399773
      52A     -0.345619    53A     -0.309111

    Virtual:

      54A      0.120725    55A      0.144035    56A      0.165620
      57A      0.172895    58A      0.182093    59A      0.189561
      60A      0.199993    61A      0.211279    62A      0.220027
      63A      0.229762    64A      0.235902    65A      0.241806
      66A      0.252009    67A      0.256092    68A      0.277952
      69A      0.278425    70A      0.294028    71A      0.302118
      72A      0.316838    73A      0.333771    74A      0.353487
      75A      0.380009    76A      0.387138    77A      0.413010
      78A      0.419595    79A      0.434437    80A      0.469010
      81A      0.478112    82A      0.486240    83A      0.495673
      84A      0.522528    85A      0.559287    86A      0.591157
      87A      0.601520    88A      0.612269    89A      0.635271
      90A      0.643119    91A      0.646587    92A      0.660662
      93A      0.666508    94A      0.680620    95A      0.687270
      96A      0.698894    97A      0.705120    98A      0.719216
      99A      0.727472   100A      0.736090   101A      0.744264
     102A      0.747465   103A      0.757297   104A      0.763366
     105A      0.783467   106A      0.794294   107A      0.802603
     108A      0.810871   109A      0.832905   110A      0.842543
     111A      0.848950   112A      0.865527   113A      0.868791
     114A      0.871547   115A      0.880096   116A      0.885712
     117A      0.888063   118A      0.893942   119A      0.899560
     120A      0.909150   121A      0.917572   122A      0.925285
     123A      0.926008   124A      0.928558   125A      0.950243
     126A      0.953323   127A      0.960344   128A      0.968840
     129A      0.986702   130A      0.989771   131A      1.007550
     132A      1.012407   133A      1.023811   134A      1.037582
     135A      1.050318   136A      1.072872   137A      1.094114
     138A      1.104765   139A      1.113583   140A      1.126210
     141A      1.136977   142A      1.143326   143A      1.164014
     144A      1.186812   145A      1.222182   146A      1.237679
     147A      1.259157   148A      1.274979   149A      1.279730
     150A      1.289319   151A      1.303722   152A      1.310768
     153A      1.335345   154A      1.343303   155A      1.351576
     156A      1.358738   157A      1.376603   158A      1.403396
     159A      1.405748   160A      1.422325   161A      1.426241
     162A      1.444863   163A      1.462478   164A      1.481051
     165A      1.486296   166A      1.501455   167A      1.541108
     168A      1.584892   169A      1.606671   170A      1.617595
     171A      1.625870   172A      1.665394   173A      1.681867
     174A      1.684420   175A      1.693526   176A      1.720642
     177A      1.725886   178A      1.733827   179A      1.762277
     180A      1.765742   181A      1.787648   182A      1.818719
     183A      1.833091   184A      1.848925   185A      1.852291
     186A      1.870015   187A      1.879601   188A      1.882353
     189A      1.886167   190A      1.893828   191A      1.900806
     192A      1.904562   193A      1.907633   194A      1.912438
     195A      1.933403   196A      1.937777   197A      1.942131
     198A      1.952437   199A      1.957489   200A      1.963020
     201A      1.967393   202A      1.981058   203A      1.994550
     204A      1.999987   205A      2.009084   206A      2.010549
     207A      2.033354   208A      2.039988   209A      2.055943
     210A      2.061283   211A      2.072357   212A      2.084184
     213A      2.097369   214A      2.108747   215A      2.133477
     216A      2.135914   217A      2.139742   218A      2.151475
     219A      2.182611   220A      2.195991   221A      2.218550
     222A      2.230441   223A      2.250854   224A      2.260844
     225A      2.282821   226A      2.309174   227A      2.319228
     228A      2.336529   229A      2.356674   230A      2.365382
     231A      2.400489   232A      2.430081   233A      2.442553
     234A      2.451674   235A      2.455842   236A      2.460857
     237A      2.473965   238A      2.502207   239A      2.523108
     240A      2.524977   241A      2.534442   242A      2.545891
     243A      2.568115   244A      2.572978   245A      2.596166
     246A      2.633452   247A      2.635260   248A      2.645712
     249A      2.743573   250A      2.750947   251A      2.759426
     252A      2.775956   253A      2.785708   254A      2.802743
     255A      2.833877   256A      2.866455   257A      2.877821
     258A      2.904744   259A      2.911258   260A      2.939267
     261A      2.943450   262A      2.953344   263A      2.982041
     264A      2.997622   265A      3.002512   266A      3.083646
     267A      3.104980   268A      3.149570   269A      3.174475
     270A      3.242309   271A      3.272989   272A      3.295797
     273A      3.340008   274A      3.515849   275A      3.523041
     276A      3.564118   277A      3.657745   278A      3.864522
     279A      3.904413   280A      3.964646   281A      4.179991

    Final Occupation by Irrep:
              A
    DOCC [    53 ]

  @RHF Final Energy:  -630.68850593444392

   => Energetics <=

    Nuclear Repulsion Energy =            832.4364424708542174
    One-Electron Energy =               -2510.0465477289303635
    Two-Electron Energy =                1046.9215993236321083
    Total Energy =                       -630.6885059344440378

Computation Completed

Properties will be evaluated at   0.000000,   0.000000,   0.000000 [a0]

Properties computed using the SCF density matrix

  Nuclear Dipole Moment: [e a0]
     X:    10.3415      Y:    -1.0544      Z:     7.3235

  Electronic Dipole Moment: [e a0]
     X:   -10.5671      Y:     0.1430      Z:    -8.6445

  Dipole Moment: [e a0]
     X:    -0.2256      Y:    -0.9114      Z:    -1.3210     Total:     1.6207

  Dipole Moment: [D]
     X:    -0.5735      Y:    -2.3165      Z:    -3.3576     Total:     4.1193

*** tstop() called on ds3 at Tue Apr 28 00:25:33 2020
Module time:
	user time   =     299.79 seconds =       5.00 minutes
	system time =     116.29 seconds =       1.94 minutes
	total time  =        684 seconds =      11.40 minutes
Total time:
	user time   =     299.79 seconds =       5.00 minutes
	system time =     116.29 seconds =       1.94 minutes
	total time  =        684 seconds =      11.40 minutes
                                     G D M A

                                 by Anthony Stone

                           version 2.2.06, 22 June 2011

               Distributed Multipoles from Gaussian wavefunctions

Starting at 0:25:33 on 28 Apr 2020

Using SCF density matrix from file ./SSI/SSI-083TYR-096ASN-1-dimer.test.5006.fchk

                         Distributed Multipole Analysis

Standard DMA

Positions and radii in angstrom
Multipole moments in atomic units, ea_0^k for rank k

C          x =  1.983622  y = -0.147684  z =  0.111017 angstrom
           Maximum rank =  0   Radius =  0.650 angstrom
                   Q00  =  -0.015276

C          x =  3.407622  y = -0.696684  z =  0.022017 angstrom
           Maximum rank =  0   Radius =  0.650 angstrom
                   Q00  =  -0.236261

C          x =  1.139622  y = -0.339684  z = -1.125983 angstrom
           Maximum rank =  0   Radius =  0.650 angstrom
                   Q00  =  -0.152645

C          x =  0.479622  y = -1.547684  z = -1.355983 angstrom
           Maximum rank =  0   Radius =  0.650 angstrom
                   Q00  =   0.017888

C          x =  0.960622  y =  0.705316  z = -2.034983 angstrom
           Maximum rank =  0   Radius =  0.650 angstrom
                   Q00  =  -0.013864

C          x = -0.319378  y = -1.725684  z = -2.484983 angstrom
           Maximum rank =  0   Radius =  0.650 angstrom
                   Q00  =  -0.181999

C          x =  0.160622  y =  0.539316  z = -3.171983 angstrom
           Maximum rank =  0   Radius =  0.650 angstrom
                   Q00  =  -0.124093

C          x = -0.487378  y = -0.676684  z = -3.388983 angstrom
           Maximum rank =  0   Radius =  0.650 angstrom
                   Q00  =   0.317772

O          x = -1.279378  y = -0.854684  z = -4.484983 angstrom
           Maximum rank =  0   Radius =  0.650 angstrom
                   Q00  =  -0.674701

H          x =  1.477622  y = -0.649684  z =  0.932017 angstrom
           Maximum rank =  0   Radius =  0.325 angstrom
                   Q00  =   0.055568

H          x =  2.038622  y =  0.908316  z =  0.358017 angstrom
           Maximum rank =  0   Radius =  0.325 angstrom
                   Q00  =   0.063730

H          x =  3.891622  y = -0.554684  z =  0.990017 angstrom
           Maximum rank =  0   Radius =  0.325 angstrom
                   Q00  =   0.083574

H          x =  0.580622  y = -2.362684  z = -0.652983 angstrom
           Maximum rank =  0   Radius =  0.325 angstrom
                   Q00  =   0.068783

H          x =  1.454622  y =  1.652316  z = -1.870983 angstrom
           Maximum rank =  0   Radius =  0.325 angstrom
                   Q00  =   0.065127

H          x = -0.790378  y = -2.678684  z = -2.665983 angstrom
           Maximum rank =  0   Radius =  0.325 angstrom
                   Q00  =   0.073061

H          x =  0.033622  y =  1.348316  z = -3.876983 angstrom
           Maximum rank =  0   Radius =  0.325 angstrom
                   Q00  =   0.083486

H          x = -1.710378  y = -1.715684  z = -4.486983 angstrom
           Maximum rank =  0   Radius =  0.325 angstrom
                   Q00  =   0.407994

H          x =  3.971507  y = -0.166859  z = -0.759853 angstrom
           Maximum rank =  0   Radius =  0.325 angstrom
                   Q00  =   0.083621

H          x =  3.427057  y = -1.774231  z = -0.198243 angstrom
           Maximum rank =  0   Radius =  0.325 angstrom
                   Q00  =   0.083611

C          x = -0.328378  y =  1.016316  z =  2.626017 angstrom
           Maximum rank =  0   Radius =  0.650 angstrom
                   Q00  =  -0.146244

C          x =  0.848622  y =  0.600316  z =  3.520017 angstrom
           Maximum rank =  0   Radius =  0.650 angstrom
                   Q00  =  -0.227842

C          x = -1.641378  y =  1.009316  z =  3.375017 angstrom
           Maximum rank =  0   Radius =  0.650 angstrom
                   Q00  =   0.878540

O          x = -1.692378  y =  1.317316  z =  4.568017 angstrom
           Maximum rank =  0   Radius =  0.650 angstrom
                   Q00  =  -0.822582

N          x = -2.716378  y =  0.635316  z =  2.692017 angstrom
           Maximum rank =  0   Radius =  0.650 angstrom
                   Q00  =  -0.554487

H          x = -0.179378  y =  2.009316  z =  2.204017 angstrom
           Maximum rank =  0   Radius =  0.325 angstrom
                   Q00  =   0.116384

H          x = -0.405378  y =  0.307316  z =  1.801017 angstrom
           Maximum rank =  0   Radius =  0.325 angstrom
                   Q00  =   0.045023

H          x =  1.722622  y =  0.475316  z =  2.881017 angstrom
           Maximum rank =  0   Radius =  0.325 angstrom
                   Q00  =   0.073865

H          x = -3.606378  y =  0.631316  z =  3.169017 angstrom
           Maximum rank =  0   Radius =  0.325 angstrom
                   Q00  =   0.217521

H          x = -2.653378  y =  0.395316  z =  1.714017 angstrom
           Maximum rank =  0   Radius =  0.325 angstrom
                   Q00  =   0.210131

H          x =  0.640231  y = -0.338199  z =  4.054585 angstrom
           Maximum rank =  0   Radius =  0.325 angstrom
                   Q00  =   0.095109

H          x =  1.145200  y =  1.388057  z =  4.228188 angstrom
           Maximum rank =  0   Radius =  0.325 angstrom
                   Q00  =   0.109207

Total multipoles referred to origin at
           x =   0.000000,  y =    0.000000,  z =    0.000000 angstrom
                   Q00  =  -0.000000

Finished at 0:25:33 on 28 Apr 2020

  DMA results are available in the Python driver through the
	  variable('DMA DISTRIBUTED MULTIPOLES')
  and
	  variable('DMA TOTAL MULTIPOLES')
  commands.

    Psi4 stopped on: Tuesday, 28 April 2020 12:25AM
    Psi4 wall time for execution: 0:11:23.71

*** Psi4 exiting successfully. Buy a developer a beer!
