                               Psi4 1.3.2 release

  ==> Input File <==

--------------------------------------------------------------------------
import numpy as np
set {scf_type pk
basis cc-pvdz
d_convergence 10
gdma_switch   0
gdma_limit    0
gdma_origin   [ 0.0,  0.0,  0.0 ]
}
molecule test {
    units Angstrom
    0 1
    --
    0 1
    C               -1.030061483066742     0.755147037836441     0.042144314915578
    C               -1.930061483066742     1.901147037836441     0.502144314915578
    C                0.166938516933258     1.245147037836442    -0.721855685084422
    C                1.147938516933258     1.966147037836441    -0.043855685084422
    C                0.326938516933258     0.949147037836441    -2.072855685084422
    C                2.248938516933258     2.479147037836441    -0.725855685084422
    C                1.436938516933258     1.463147037836442    -2.756855685084422
    C                2.409938516933257     2.227147037836441    -2.084855685084422
    H               -0.676061483066742     0.267147037836441     0.945144314915578
    H               -1.596061483066743     0.040147037836441    -0.556855685084422
    H               -1.405061483066742     2.525147037836441     1.220144314915578
    H                1.026938516933258     2.166147037836441     1.011144314915578
    H               -0.395061483066742     0.340147037836441    -2.597855685084422
    H                2.995938516933258     3.060147037836441    -0.203855685084422
    H                1.572938516933258     1.245147037836442    -3.807855685084422
    H                3.272938516933257     2.601147037836441    -2.618855685084422
    H               -2.825411483066743     1.475987037836441     0.979204314915578
    H               -2.284651483066742     2.492367037836441    -0.355015685084422
    C               -1.139061483066742    -2.639852962163559     1.862144314915578
    C               -2.144061483066742    -3.141852962163559     0.800144314915578
    C               -0.628061483066742    -3.738852962163559     2.838144314915578
    O               -0.021061483066742    -2.029852962163559     1.194144314915578
    H               -1.620061483066743    -1.861852962163558     2.454144314915578
    H               -2.324061483066743    -2.312852962163559     0.117144314915578
    H               -0.264061483066742    -4.611852962163558     2.299144314915578
    H                0.184938516933258    -3.306852962163559     3.415144314915578
    H               -1.436061483066742    -4.033852962163559     3.509144314915578
    H                0.632938516933258    -1.722852962163558     1.849144314915578
    H               -3.079681483066742    -3.429502962163559     1.302014314915578
    H               -1.761301483066742    -3.983182962163559     0.203774314915578

}
e, wfn = energy('scf', return_wfn=True)
gdma(wfn)
dmavals = variable('DMA DISTRIBUTED MULTIPOLES')
charges = np.array(dmavals)
print(charges)
np.save('SSI-024PHE-089THR-1-dimer.npy', np.array(charges))--------------------------------------------------------------------------

*** tstart() called on ds3
*** at Tue Apr 28 03:16:28 2020

   => Loading Basis Set <=

    Name: CC-PVDZ
    Role: ORBITAL
    Keyword: BASIS
    atoms 1-8, 19-21  entry C          line   138 file /theoryfs2/ds/metcalf/miniconda2/envs/tf2gpu/share/psi4/basis/cc-pvdz.gbs
    atoms 9-18, 23-30 entry H          line    22 file /theoryfs2/ds/metcalf/miniconda2/envs/tf2gpu/share/psi4/basis/cc-pvdz.gbs
    atoms 22          entry O          line   198 file /theoryfs2/ds/metcalf/miniconda2/envs/tf2gpu/share/psi4/basis/cc-pvdz.gbs

         ---------------------------------------------------------
                                   SCF
               by Justin Turney, Rob Parrish, Andy Simmonett
                          and Daniel G. A. Smith
                              RHF Reference
                        1 Threads,    500 MiB Core
         ---------------------------------------------------------

  ==> Geometry <==

    Molecular point group: c1
    Full point group: C1

    Geometry (in Angstrom), charge = 0, multiplicity = 1:

       Center              X                  Y                   Z               Mass
    ------------   -----------------  -----------------  -----------------  -----------------
         C           -1.030061483067     0.755147037836     0.042144314916    12.000000000000
         C           -1.930061483067     1.901147037836     0.502144314916    12.000000000000
         C            0.166938516933     1.245147037836    -0.721855685084    12.000000000000
         C            1.147938516933     1.966147037836    -0.043855685084    12.000000000000
         C            0.326938516933     0.949147037836    -2.072855685084    12.000000000000
         C            2.248938516933     2.479147037836    -0.725855685084    12.000000000000
         C            1.436938516933     1.463147037836    -2.756855685084    12.000000000000
         C            2.409938516933     2.227147037836    -2.084855685084    12.000000000000
         H           -0.676061483067     0.267147037836     0.945144314916     1.007825032230
         H           -1.596061483067     0.040147037836    -0.556855685084     1.007825032230
         H           -1.405061483067     2.525147037836     1.220144314916     1.007825032230
         H            1.026938516933     2.166147037836     1.011144314916     1.007825032230
         H           -0.395061483067     0.340147037836    -2.597855685084     1.007825032230
         H            2.995938516933     3.060147037836    -0.203855685084     1.007825032230
         H            1.572938516933     1.245147037836    -3.807855685084     1.007825032230
         H            3.272938516933     2.601147037836    -2.618855685084     1.007825032230
         H           -2.825411483067     1.475987037836     0.979204314916     1.007825032230
         H           -2.284651483067     2.492367037836    -0.355015685084     1.007825032230
         C           -1.139061483067    -2.639852962164     1.862144314916    12.000000000000
         C           -2.144061483067    -3.141852962164     0.800144314916    12.000000000000
         C           -0.628061483067    -3.738852962164     2.838144314916    12.000000000000
         O           -0.021061483067    -2.029852962164     1.194144314916    15.994914619570
         H           -1.620061483067    -1.861852962164     2.454144314916     1.007825032230
         H           -2.324061483067    -2.312852962164     0.117144314916     1.007825032230
         H           -0.264061483067    -4.611852962164     2.299144314916     1.007825032230
         H            0.184938516933    -3.306852962164     3.415144314916     1.007825032230
         H           -1.436061483067    -4.033852962164     3.509144314916     1.007825032230
         H            0.632938516933    -1.722852962164     1.849144314916     1.007825032230
         H           -3.079681483067    -3.429502962164     1.302014314916     1.007825032230
         H           -1.761301483067    -3.983182962164     0.203774314916     1.007825032230

  Running in c1 symmetry.

  Rotational constants: A =      0.04854  B =      0.01154  C =      0.01099 [cm^-1]
  Rotational constants: A =   1455.09240  B =    345.93294  C =    329.51649 [MHz]
  Nuclear repulsion =  665.097128075796149

  Charge       = 0
  Multiplicity = 1
  Electrons    = 92
  Nalpha       = 46
  Nbeta        = 46

  ==> Algorithm <==

  SCF Algorithm Type is PK.
  DIIS enabled.
  MOM disabled.
  Fractional occupation disabled.
  Guess Type is SAD.
  Energy threshold   = 1.00e-06
  Density threshold  = 1.00e-10
  Integral threshold = 0.00e+00

  ==> Primary Basis <==

  Basis Set: CC-PVDZ
    Blend: CC-PVDZ
    Number of shells: 126
    Number of basis function: 258
    Number of Cartesian functions: 270
    Spherical Harmonics?: true
    Max angular momentum: 2

  ==> Pre-Iterations <==

   -------------------------------------------------------
    Irrep   Nso     Nmo     Nalpha   Nbeta   Ndocc  Nsocc
   -------------------------------------------------------
     A        258     258       0       0       0       0
   -------------------------------------------------------
    Total     258     258      46      46      46       0
   -------------------------------------------------------

  ==> Integral Setup <==

  Using integral reordering PK algorithm.
  Sizing the integral batches needed.
  Building batch lookup table.
   Calculation information:
      Number of atoms:                  30
      Number of AO shells:             126
      Number of primitives:            354
      Number of atomic orbitals:       270
      Number of basis functions:       258

      Integral cutoff                 1.00e-12
      Number of threads:                 1

	Batch   1 pq = [       0,    9405] index = [             0,44231715] size =     44231715
	Batch   2 pq = [    9405,   13301] index = [      44231715,88464951] size =     44233236
	Batch   3 pq = [   13301,   16290] index = [      88464951,132690195] size =     44225244
	Batch   4 pq = [   16290,   18810] index = [     132690195,176917455] size =     44227260
	Batch   5 pq = [   18810,   21030] index = [     176917455,221140965] size =     44223510
	Batch   6 pq = [   21030,   23037] index = [     221140965,265363203] size =     44222238
	Batch   7 pq = [   23037,   24883] index = [     265363203,309594286] size =     44231083
	Batch   8 pq = [   24883,   26601] index = [     309594286,353819901] size =     44225615
	Batch   9 pq = [   26601,   28214] index = [     353819901,398029005] size =     44209104
	Batch  10 pq = [   28214,   29740] index = [     398029005,442248670] size =     44219665
	Batch  11 pq = [   29740,   31191] index = [     442248670,486454836] size =     44206166
	Batch  12 pq = [   31191,   32578] index = [     486454836,530679331] size =     44224495
	Batch  13 pq = [   32578,   33411] index = [     530679331,558164166] size =     27484835
  Task number: 51
  Buffer size: 11059200
  Buffer per thread: 2
  We computed 28061897 shell quartets total.
  Whereas there are 32012001 unique shell quartets.

  ==> DiskJK: Disk-Based J/K Matrices <==

    J tasked:                  Yes
    K tasked:                  Yes
    wK tasked:                  No
    Memory [MiB]:              375
    Schwarz Cutoff:          1E-12

    OpenMP threads:              1

  Minimum eigenvalue in the overlap matrix is 3.3130476785E-04.
  Using Symmetric Orthogonalization.

  SCF Guess: Superposition of Atomic Densities via on-the-fly atomic UHF.

  ==> Iterations <==

                        Total Energy        Delta E     RMS |[F,P]|

   @RHF iter SAD:  -500.48187374058432   -5.00482e+02   0.00000e+00
   @RHF iter   1:  -501.61187381973116   -1.13000e+00   2.66849e-03 DIIS
   @RHF iter   2:  -501.87480023483084   -2.62926e-01   1.18418e-03 DIIS
   @RHF iter   3:  -501.91917752321916   -4.43773e-02   2.63763e-04 DIIS
   @RHF iter   4:  -501.92278280646622   -3.60528e-03   9.13857e-05 DIIS
   @RHF iter   5:  -501.92308328225812   -3.00476e-04   1.79308e-05 DIIS
   @RHF iter   6:  -501.92309947271519   -1.61905e-05   5.47910e-06 DIIS
   @RHF iter   7:  -501.92310116505644   -1.69234e-06   2.05254e-06 DIIS
   @RHF iter   8:  -501.92310143945656   -2.74400e-07   7.02097e-07 DIIS
   @RHF iter   9:  -501.92310150281395   -6.33574e-08   3.17556e-07 DIIS
   @RHF iter  10:  -501.92310152081245   -1.79985e-08   1.53991e-07 DIIS
   @RHF iter  11:  -501.92310152549112   -4.67867e-09   4.73603e-08 DIIS
   @RHF iter  12:  -501.92310152590414   -4.13024e-10   1.59721e-08 DIIS
   @RHF iter  13:  -501.92310152593171   -2.75691e-11   5.46223e-09 DIIS
   @RHF iter  14:  -501.92310152593342   -1.70530e-12   1.41960e-09 DIIS
   @RHF iter  15:  -501.92310152593410   -6.82121e-13   5.47135e-10 DIIS
   @RHF iter  16:  -501.92310152593348    6.25278e-13   2.07120e-10 DIIS
   @RHF iter  17:  -501.92310152593734   -3.86535e-12   8.18177e-11 DIIS
  Energy and wave function converged.

  ==> Post-Iterations <==

    Orbital Energies [Eh]
    ---------------------

    Doubly Occupied:

       1A    -20.549026     2A    -11.285977     3A    -11.231933
       4A    -11.230749     5A    -11.229935     6A    -11.226481
       7A    -11.226209     8A    -11.225250     9A    -11.224574
      10A    -11.223633    11A    -11.215670    12A    -11.214686
      13A     -1.346391    14A     -1.145365    15A     -1.055167
      16A     -1.034398    17A     -1.003904    18A     -0.973442
      19A     -0.940846    20A     -0.853391    21A     -0.818305
      22A     -0.799955    23A     -0.776404    24A     -0.685720
      25A     -0.683887    26A     -0.633234    27A     -0.629559
      28A     -0.617428    29A     -0.603224    30A     -0.584491
      31A     -0.579917    32A     -0.571661    33A     -0.548939
      34A     -0.539896    35A     -0.532712    36A     -0.528859
      37A     -0.512285    38A     -0.504278    39A     -0.495979
      40A     -0.473227    41A     -0.468879    42A     -0.464187
      43A     -0.458112    44A     -0.426737    45A     -0.325303
      46A     -0.312479

    Virtual:

      47A      0.139305    48A      0.146723    49A      0.166225
      50A      0.190723    51A      0.200546    52A      0.204732
      53A      0.221150    54A      0.226210    55A      0.237210
      56A      0.241611    57A      0.247587    58A      0.258015
      59A      0.265490    60A      0.265973    61A      0.280893
      62A      0.295240    63A      0.295638    64A      0.317453
      65A      0.330492    66A      0.353728    67A      0.356484
      68A      0.368678    69A      0.402033    70A      0.411747
      71A      0.416574    72A      0.433428    73A      0.454179
      74A      0.479266    75A      0.500983    76A      0.510539
      77A      0.573893    78A      0.582110    79A      0.595436
      80A      0.600378    81A      0.619251    82A      0.630769
      83A      0.654296    84A      0.661169    85A      0.676213
      86A      0.690867    87A      0.705608    88A      0.725303
      89A      0.732749    90A      0.739009    91A      0.745695
      92A      0.751009    93A      0.752287    94A      0.755513
      95A      0.769412    96A      0.778594    97A      0.796442
      98A      0.806046    99A      0.819407   100A      0.842025
     101A      0.847413   102A      0.863551   103A      0.870580
     104A      0.873596   105A      0.879680   106A      0.887217
     107A      0.888425   108A      0.891425   109A      0.896899
     110A      0.902379   111A      0.909340   112A      0.911041
     113A      0.911595   114A      0.925570   115A      0.927991
     116A      0.935071   117A      0.942315   118A      0.953543
     119A      0.966158   120A      0.984579   121A      1.002015
     122A      1.008744   123A      1.020290   124A      1.054634
     125A      1.091548   126A      1.114132   127A      1.118508
     128A      1.141597   129A      1.145322   130A      1.159652
     131A      1.168818   132A      1.174736   133A      1.202194
     134A      1.226979   135A      1.244381   136A      1.249568
     137A      1.260503   138A      1.282480   139A      1.299977
     140A      1.308807   141A      1.322929   142A      1.328217
     143A      1.345213   144A      1.380357   145A      1.415728
     146A      1.428146   147A      1.436254   148A      1.477897
     149A      1.485296   150A      1.516129   151A      1.528224
     152A      1.537656   153A      1.582367   154A      1.600683
     155A      1.624297   156A      1.633527   157A      1.671169
     158A      1.679954   159A      1.684127   160A      1.696017
     161A      1.711797   162A      1.717959   163A      1.733017
     164A      1.755194   165A      1.763426   166A      1.777232
     167A      1.812551   168A      1.834516   169A      1.840911
     170A      1.843762   171A      1.857578   172A      1.877912
     173A      1.883934   174A      1.898091   175A      1.900324
     176A      1.901615   177A      1.913006   178A      1.927191
     179A      1.929220   180A      1.939779   181A      1.943387
     182A      1.952581   183A      1.957161   184A      1.964742
     185A      1.968535   186A      1.978678   187A      1.986863
     188A      1.993691   189A      2.000615   190A      2.019014
     191A      2.024510   192A      2.032567   193A      2.047763
     194A      2.056597   195A      2.068115   196A      2.085383
     197A      2.095769   198A      2.100193   199A      2.132495
     200A      2.146270   201A      2.153557   202A      2.163402
     203A      2.168093   204A      2.182955   205A      2.208196
     206A      2.214405   207A      2.244472   208A      2.259183
     209A      2.268852   210A      2.275005   211A      2.282346
     212A      2.288825   213A      2.311349   214A      2.322344
     215A      2.342614   216A      2.373158   217A      2.378836
     218A      2.427670   219A      2.461047   220A      2.474359
     221A      2.485461   222A      2.493765   223A      2.535622
     224A      2.546351   225A      2.550065   226A      2.563322
     227A      2.575845   228A      2.598911   229A      2.635062
     230A      2.661668   231A      2.747215   232A      2.753253
     233A      2.767110   234A      2.773838   235A      2.779720
     236A      2.783578   237A      2.786137   238A      2.808044
     239A      2.830496   240A      2.851964   241A      2.854302
     242A      2.883086   243A      2.910686   244A      2.934370
     245A      2.965735   246A      2.978877   247A      2.995185
     248A      3.024935   249A      3.063323   250A      3.189356
     251A      3.208798   252A      3.309154   253A      3.318200
     254A      3.398793   255A      3.448818   256A      3.652005
     257A      3.961666   258A      4.117590

    Final Occupation by Irrep:
              A
    DOCC [    46 ]

  @RHF Final Energy:  -501.92310152593734

   => Energetics <=

    Nuclear Repulsion Energy =            665.0971280757961495
    One-Electron Energy =               -2000.0150830797399522
    Two-Electron Energy =                 832.9948534780065756
    Total Energy =                       -501.9231015259373407

Computation Completed

Properties will be evaluated at   0.000000,   0.000000,   0.000000 [a0]

Properties computed using the SCF density matrix

  Nuclear Dipole Moment: [e a0]
     X:    -9.3569      Y:    -8.4932      Z:     8.5976

  Electronic Dipole Moment: [e a0]
     X:     9.1724      Y:     8.1843      Z:    -7.8539

  Dipole Moment: [e a0]
     X:    -0.1845      Y:    -0.3089      Z:     0.7437     Total:     0.8262

  Dipole Moment: [D]
     X:    -0.4690      Y:    -0.7851      Z:     1.8904     Total:     2.1000

*** tstop() called on ds3 at Tue Apr 28 03:21:28 2020
Module time:
	user time   =     208.78 seconds =       3.48 minutes
	system time =      89.12 seconds =       1.49 minutes
	total time  =        300 seconds =       5.00 minutes
Total time:
	user time   =     208.78 seconds =       3.48 minutes
	system time =      89.12 seconds =       1.49 minutes
	total time  =        300 seconds =       5.00 minutes
                                     G D M A

                                 by Anthony Stone

                           version 2.2.06, 22 June 2011

               Distributed Multipoles from Gaussian wavefunctions

Starting at 3:21:28 on 28 Apr 2020

Using SCF density matrix from file ./SSI/SSI-024PHE-089THR-1-dimer.test.4098.fchk

                         Distributed Multipole Analysis

Standard DMA

Positions and radii in angstrom
Multipole moments in atomic units, ea_0^k for rank k

C          x = -1.030061  y =  0.755147  z =  0.042144 angstrom
           Maximum rank =  0   Radius =  0.650 angstrom
                   Q00  =  -0.015860

C          x = -1.930061  y =  1.901147  z =  0.502144 angstrom
           Maximum rank =  0   Radius =  0.650 angstrom
                   Q00  =  -0.249687

C          x =  0.166939  y =  1.245147  z = -0.721856 angstrom
           Maximum rank =  0   Radius =  0.650 angstrom
                   Q00  =  -0.085598

C          x =  1.147939  y =  1.966147  z = -0.043856 angstrom
           Maximum rank =  0   Radius =  0.650 angstrom
                   Q00  =  -0.018097

C          x =  0.326939  y =  0.949147  z = -2.072856 angstrom
           Maximum rank =  0   Radius =  0.650 angstrom
                   Q00  =  -0.082904

C          x =  2.248939  y =  2.479147  z = -0.725856 angstrom
           Maximum rank =  0   Radius =  0.650 angstrom
                   Q00  =  -0.073242

C          x =  1.436939  y =  1.463147  z = -2.756856 angstrom
           Maximum rank =  0   Radius =  0.650 angstrom
                   Q00  =  -0.064756

C          x =  2.409939  y =  2.227147  z = -2.084856 angstrom
           Maximum rank =  0   Radius =  0.650 angstrom
                   Q00  =  -0.087296

H          x = -0.676061  y =  0.267147  z =  0.945144 angstrom
           Maximum rank =  0   Radius =  0.325 angstrom
                   Q00  =   0.061872

H          x = -1.596061  y =  0.040147  z = -0.556856 angstrom
           Maximum rank =  0   Radius =  0.325 angstrom
                   Q00  =   0.063987

H          x = -1.405061  y =  2.525147  z =  1.220144 angstrom
           Maximum rank =  0   Radius =  0.325 angstrom
                   Q00  =   0.081068

H          x =  1.026939  y =  2.166147  z =  1.011144 angstrom
           Maximum rank =  0   Radius =  0.325 angstrom
                   Q00  =   0.050832

H          x = -0.395061  y =  0.340147  z = -2.597856 angstrom
           Maximum rank =  0   Radius =  0.325 angstrom
                   Q00  =   0.061379

H          x =  2.995939  y =  3.060147  z = -0.203856 angstrom
           Maximum rank =  0   Radius =  0.325 angstrom
                   Q00  =   0.061700

H          x =  1.572939  y =  1.245147  z = -3.807856 angstrom
           Maximum rank =  0   Radius =  0.325 angstrom
                   Q00  =   0.064531

H          x =  3.272939  y =  2.601147  z = -2.618856 angstrom
           Maximum rank =  0   Radius =  0.325 angstrom
                   Q00  =   0.062028

H          x = -2.825411  y =  1.475987  z =  0.979204 angstrom
           Maximum rank =  0   Radius =  0.325 angstrom
                   Q00  =   0.073235

H          x = -2.284651  y =  2.492367  z = -0.355016 angstrom
           Maximum rank =  0   Radius =  0.325 angstrom
                   Q00  =   0.080513

C          x = -1.139061  y = -2.639853  z =  1.862144 angstrom
           Maximum rank =  0   Radius =  0.650 angstrom
                   Q00  =   0.162179

C          x = -2.144061  y = -3.141853  z =  0.800144 angstrom
           Maximum rank =  0   Radius =  0.650 angstrom
                   Q00  =  -0.252091

C          x = -0.628061  y = -3.738853  z =  2.838144 angstrom
           Maximum rank =  0   Radius =  0.650 angstrom
                   Q00  =  -0.256479

O          x = -0.021061  y = -2.029853  z =  1.194144 angstrom
           Maximum rank =  0   Radius =  0.650 angstrom
                   Q00  =  -0.575991

H          x = -1.620061  y = -1.861853  z =  2.454144 angstrom
           Maximum rank =  0   Radius =  0.325 angstrom
                   Q00  =   0.004059

H          x = -2.324061  y = -2.312853  z =  0.117144 angstrom
           Maximum rank =  0   Radius =  0.325 angstrom
                   Q00  =   0.103469

H          x = -0.264061  y = -4.611853  z =  2.299144 angstrom
           Maximum rank =  0   Radius =  0.325 angstrom
                   Q00  =   0.095822

H          x =  0.184939  y = -3.306853  z =  3.415144 angstrom
           Maximum rank =  0   Radius =  0.325 angstrom
                   Q00  =   0.080446

H          x = -1.436061  y = -4.033853  z =  3.509144 angstrom
           Maximum rank =  0   Radius =  0.325 angstrom
                   Q00  =   0.084628

H          x =  0.632939  y = -1.722853  z =  1.849144 angstrom
           Maximum rank =  0   Radius =  0.325 angstrom
                   Q00  =   0.390901

H          x = -3.079681  y = -3.429503  z =  1.302014 angstrom
           Maximum rank =  0   Radius =  0.325 angstrom
                   Q00  =   0.083512

H          x = -1.761301  y = -3.983183  z =  0.203774 angstrom
           Maximum rank =  0   Radius =  0.325 angstrom
                   Q00  =   0.095841

Total multipoles referred to origin at
           x =   0.000000,  y =    0.000000,  z =    0.000000 angstrom
                   Q00  =  -0.000000

Finished at 3:21:28 on 28 Apr 2020

  DMA results are available in the Python driver through the
	  variable('DMA DISTRIBUTED MULTIPOLES')
  and
	  variable('DMA TOTAL MULTIPOLES')
  commands.

    Psi4 stopped on: Tuesday, 28 April 2020 03:21AM
    Psi4 wall time for execution: 0:05:00.22

*** Psi4 exiting successfully. Buy a developer a beer!
