                               Psi4 1.3.2 release

  ==> Input File <==

--------------------------------------------------------------------------
import numpy as np
set {scf_type pk
basis cc-pvdz
d_convergence 10
gdma_switch   0
gdma_limit    0
gdma_origin   [ 0.0,  0.0,  0.0 ]
}
molecule test {
    units Angstrom
    0 1
    --
    0 1
    C               -1.784443868788457     0.367300505957173     0.395643003552087
    C               -0.638443868788456     1.310300505957173     0.110643003552087
    O               -0.846443868788456     2.490300505957173    -0.151356996447913
    N                0.580556131211544     0.799300505957173     0.162643003552087
    H                1.341556131211544     1.347300505957173    -0.216356996447913
    H                0.680556131211544    -0.204699494042827     0.281643003552087
    H               -1.693443868788457     0.012300505957173     1.422643003552087
    H               -1.695443868788457    -0.489699494042827    -0.273356996447913
    H               -2.765651868788456     0.844630505957173     0.256393003552087
    C                1.896556131211544    -2.480699494042828    -0.350356996447913
    O                0.572556131211544    -2.018699494042827    -0.103356996447913
    H               -0.028443868788456    -2.751699494042827    -0.290356996447913
    H                2.543556131211544    -1.627699494042827    -0.558356996447913
    H                2.265886131211544    -3.018939494042827     0.535023003552086
    H                1.898716131211543    -3.139549494042827    -1.231216996447913

}
e, wfn = energy('scf', return_wfn=True)
gdma(wfn)
dmavals = variable('DMA DISTRIBUTED MULTIPOLES')
charges = np.array(dmavals)
print(charges)
np.save('SSI-044ASN-059THR-1-dimer.npy', np.array(charges))--------------------------------------------------------------------------

*** tstart() called on ds3
*** at Mon Apr 27 07:01:29 2020

   => Loading Basis Set <=

    Name: CC-PVDZ
    Role: ORBITAL
    Keyword: BASIS
    atoms 1-2, 10    entry C          line   138 file /theoryfs2/ds/metcalf/miniconda2/envs/tf2gpu/share/psi4/basis/cc-pvdz.gbs
    atoms 3, 11      entry O          line   198 file /theoryfs2/ds/metcalf/miniconda2/envs/tf2gpu/share/psi4/basis/cc-pvdz.gbs
    atoms 4          entry N          line   168 file /theoryfs2/ds/metcalf/miniconda2/envs/tf2gpu/share/psi4/basis/cc-pvdz.gbs
    atoms 5-9, 12-15 entry H          line    22 file /theoryfs2/ds/metcalf/miniconda2/envs/tf2gpu/share/psi4/basis/cc-pvdz.gbs

         ---------------------------------------------------------
                                   SCF
               by Justin Turney, Rob Parrish, Andy Simmonett
                          and Daniel G. A. Smith
                              RHF Reference
                        1 Threads,    500 MiB Core
         ---------------------------------------------------------

  ==> Geometry <==

    Molecular point group: c1
    Full point group: C1

    Geometry (in Angstrom), charge = 0, multiplicity = 1:

       Center              X                  Y                   Z               Mass
    ------------   -----------------  -----------------  -----------------  -----------------
         C           -1.784443868788     0.367300505957     0.395643003552    12.000000000000
         C           -0.638443868788     1.310300505957     0.110643003552    12.000000000000
         O           -0.846443868788     2.490300505957    -0.151356996448    15.994914619570
         N            0.580556131212     0.799300505957     0.162643003552    14.003074004430
         H            1.341556131212     1.347300505957    -0.216356996448     1.007825032230
         H            0.680556131212    -0.204699494043     0.281643003552     1.007825032230
         H           -1.693443868788     0.012300505957     1.422643003552     1.007825032230
         H           -1.695443868788    -0.489699494043    -0.273356996448     1.007825032230
         H           -2.765651868788     0.844630505957     0.256393003552     1.007825032230
         C            1.896556131212    -2.480699494043    -0.350356996448    12.000000000000
         O            0.572556131212    -2.018699494043    -0.103356996448    15.994914619570
         H           -0.028443868788    -2.751699494043    -0.290356996448     1.007825032230
         H            2.543556131212    -1.627699494043    -0.558356996448     1.007825032230
         H            2.265886131212    -3.018939494043     0.535023003552     1.007825032230
         H            1.898716131212    -3.139549494043    -1.231216996448     1.007825032230

  Running in c1 symmetry.

  Rotational constants: A =      0.24720  B =      0.04357  C =      0.03800 [cm^-1]
  Rotational constants: A =   7411.01942  B =   1306.07352  C =   1139.28120 [MHz]
  Nuclear repulsion =  240.070898539468459

  Charge       = 0
  Multiplicity = 1
  Electrons    = 50
  Nalpha       = 25
  Nbeta        = 25

  ==> Algorithm <==

  SCF Algorithm Type is PK.
  DIIS enabled.
  MOM disabled.
  Fractional occupation disabled.
  Guess Type is SAD.
  Energy threshold   = 1.00e-06
  Density threshold  = 1.00e-10
  Integral threshold = 0.00e+00

  ==> Primary Basis <==

  Basis Set: CC-PVDZ
    Blend: CC-PVDZ
    Number of shells: 63
    Number of basis function: 129
    Number of Cartesian functions: 135
    Spherical Harmonics?: true
    Max angular momentum: 2

  ==> Pre-Iterations <==

   -------------------------------------------------------
    Irrep   Nso     Nmo     Nalpha   Nbeta   Ndocc  Nsocc
   -------------------------------------------------------
     A        129     129       0       0       0       0
   -------------------------------------------------------
    Total     129     129      25      25      25       0
   -------------------------------------------------------

  ==> Integral Setup <==

  Using integral reordering PK algorithm.
  Sizing the integral batches needed.
  Building batch lookup table.
   Calculation information:
      Number of atoms:                  15
      Number of AO shells:              63
      Number of primitives:            177
      Number of atomic orbitals:       135
      Number of basis functions:       129

      Integral cutoff                 1.00e-12
      Number of threads:                 1

	Batch   1 pq = [       0,    8385] index = [             0,35158305] size =     35158305
  Task number: 4
  Buffer size: 11059200
  Buffer per thread: 2
  We computed 1808647 shell quartets total.
  Whereas there are 2033136 unique shell quartets.

  ==> DiskJK: Disk-Based J/K Matrices <==

    J tasked:                  Yes
    K tasked:                  Yes
    wK tasked:                  No
    Memory [MiB]:              375
    Schwarz Cutoff:          1E-12

    OpenMP threads:              1

  Minimum eigenvalue in the overlap matrix is 4.6328863772E-03.
  Using Symmetric Orthogonalization.

  SCF Guess: Superposition of Atomic Densities via on-the-fly atomic UHF.

  ==> Iterations <==

                        Total Energy        Delta E     RMS |[F,P]|

   @RHF iter SAD:  -321.74967379239393   -3.21750e+02   0.00000e+00
   @RHF iter   1:  -322.84101261576211   -1.09134e+00   4.90179e-03 DIIS
   @RHF iter   2:  -322.99729026340088   -1.56278e-01   2.75134e-03 DIIS
   @RHF iter   3:  -323.04216691165857   -4.48766e-02   5.36954e-04 DIIS
   @RHF iter   4:  -323.04507071025495   -2.90380e-03   2.17510e-04 DIIS
   @RHF iter   5:  -323.04555730286745   -4.86593e-04   4.38919e-05 DIIS
   @RHF iter   6:  -323.04559109385946   -3.37910e-05   2.09267e-05 DIIS
   @RHF iter   7:  -323.04559832436865   -7.23051e-06   7.62108e-06 DIIS
   @RHF iter   8:  -323.04559972212411   -1.39776e-06   2.56640e-06 DIIS
   @RHF iter   9:  -323.04559987099663   -1.48873e-07   8.34647e-07 DIIS
   @RHF iter  10:  -323.04559988382641   -1.28298e-08   2.58518e-07 DIIS
   @RHF iter  11:  -323.04559988508282   -1.25641e-09   4.51759e-08 DIIS
   @RHF iter  12:  -323.04559988513012   -4.72937e-11   1.14610e-08 DIIS
   @RHF iter  13:  -323.04559988513324   -3.12639e-12   3.51269e-09 DIIS
   @RHF iter  14:  -323.04559988513296    2.84217e-13   1.71781e-09 DIIS
   @RHF iter  15:  -323.04559988513375   -7.95808e-13   7.58028e-10 DIIS
   @RHF iter  16:  -323.04559988513358    1.70530e-13   2.86068e-10 DIIS
   @RHF iter  17:  -323.04559988513324    3.41061e-13   1.15129e-10 DIIS
   @RHF iter  18:  -323.04559988513341   -1.70530e-13   2.72227e-11 DIIS
  Energy and wave function converged.

  ==> Post-Iterations <==

    Orbital Energies [Eh]
    ---------------------

    Doubly Occupied:

       1A    -20.589728     2A    -20.482363     3A    -15.555961
       4A    -11.324135     5A    -11.305730     6A    -11.223874
       7A     -1.389457     8A     -1.347678     9A     -1.191648
      10A     -0.981522    11A     -0.949922    12A     -0.775637
      13A     -0.730641    14A     -0.689639    15A     -0.648088
      16A     -0.634270    17A     -0.621858    18A     -0.594802
      19A     -0.551839    20A     -0.541865    21A     -0.522915
      22A     -0.500938    23A     -0.479235    24A     -0.389263
      25A     -0.380151

    Virtual:

      26A      0.151392    27A      0.186289    28A      0.204971
      29A      0.217308    30A      0.240236    31A      0.249900
      32A      0.264752    33A      0.279669    34A      0.297470
      35A      0.321177    36A      0.373248    37A      0.414811
      38A      0.480313    39A      0.572495    40A      0.596523
      41A      0.616183    42A      0.647712    43A      0.651077
      44A      0.722338    45A      0.740018    46A      0.749734
      47A      0.756723    48A      0.776659    49A      0.797504
      50A      0.833469    51A      0.861089    52A      0.880597
      53A      0.885522    54A      0.887617    55A      0.909075
      56A      0.937578    57A      0.963482    58A      1.033994
      59A      1.038356    60A      1.108698    61A      1.121822
      62A      1.133704    63A      1.138245    64A      1.146989
      65A      1.196776    66A      1.286218    67A      1.304990
      68A      1.340700    69A      1.376495    70A      1.391740
      71A      1.420043    72A      1.448932    73A      1.488171
      74A      1.542389    75A      1.559259    76A      1.622857
      77A      1.636531    78A      1.650899    79A      1.685153
      80A      1.708325    81A      1.729941    82A      1.820696
      83A      1.826005    84A      1.879785    85A      1.891752
      86A      1.897082    87A      1.912198    88A      1.926613
      89A      1.951167    90A      1.972868    91A      1.992135
      92A      2.022459    93A      2.038681    94A      2.056380
      95A      2.107286    96A      2.127803    97A      2.190352
      98A      2.255017    99A      2.265517   100A      2.288726
     101A      2.353278   102A      2.361787   103A      2.417082
     104A      2.465125   105A      2.474635   106A      2.553886
     107A      2.570830   108A      2.674437   109A      2.699158
     110A      2.735572   111A      2.736103   112A      2.757339
     113A      2.764051   114A      2.779694   115A      2.817170
     116A      2.919204   117A      3.020103   118A      3.114359
     119A      3.165507   120A      3.264129   121A      3.319106
     122A      3.340541   123A      3.440773   124A      3.519001
     125A      3.546771   126A      3.579733   127A      3.884996
     128A      3.925578   129A      4.081963

    Final Occupation by Irrep:
              A
    DOCC [    25 ]

  @RHF Final Energy:  -323.04559988513341

   => Energetics <=

    Nuclear Repulsion Energy =            240.0708985394684589
    One-Electron Energy =                -917.4266833021239336
    Two-Electron Energy =                 354.3101848775220901
    Total Energy =                       -323.0455998851334130

Computation Completed

Properties will be evaluated at   0.000000,   0.000000,   0.000000 [a0]

Properties computed using the SCF density matrix

  Nuclear Dipole Moment: [e a0]
     X:     2.3850      Y:    -8.4636      Z:    -0.0710

  Electronic Dipole Moment: [e a0]
     X:    -1.4888      Y:     5.8439      Z:    -0.0691

  Dipole Moment: [e a0]
     X:     0.8962      Y:    -2.6197      Z:    -0.1401     Total:     2.7723

  Dipole Moment: [D]
     X:     2.2780      Y:    -6.6586      Z:    -0.3561     Total:     7.0465

*** tstop() called on ds3 at Mon Apr 27 07:01:59 2020
Module time:
	user time   =      13.39 seconds =       0.22 minutes
	system time =       5.08 seconds =       0.08 minutes
	total time  =         30 seconds =       0.50 minutes
Total time:
	user time   =      13.39 seconds =       0.22 minutes
	system time =       5.08 seconds =       0.08 minutes
	total time  =         30 seconds =       0.50 minutes
                                     G D M A

                                 by Anthony Stone

                           version 2.2.06, 22 June 2011

               Distributed Multipoles from Gaussian wavefunctions

Starting at 7:1:59 on 27 Apr 2020

Using SCF density matrix from file ./SSI/SSI-044ASN-059THR-1-dimer.test.16352.fchk

                         Distributed Multipole Analysis

Standard DMA

Positions and radii in angstrom
Multipole moments in atomic units, ea_0^k for rank k

C          x = -1.784444  y =  0.367301  z =  0.395643 angstrom
           Maximum rank =  0   Radius =  0.650 angstrom
                   Q00  =  -0.266480

C          x = -0.638444  y =  1.310301  z =  0.110643 angstrom
           Maximum rank =  0   Radius =  0.650 angstrom
                   Q00  =   0.841717

O          x = -0.846444  y =  2.490301  z = -0.151357 angstrom
           Maximum rank =  0   Radius =  0.650 angstrom
                   Q00  =  -0.815358

N          x =  0.580556  y =  0.799301  z =  0.162643 angstrom
           Maximum rank =  0   Radius =  0.650 angstrom
                   Q00  =  -0.561087

H          x =  1.341556  y =  1.347301  z = -0.216357 angstrom
           Maximum rank =  0   Radius =  0.325 angstrom
                   Q00  =   0.203885

H          x =  0.680556  y = -0.204699  z =  0.281643 angstrom
           Maximum rank =  0   Radius =  0.325 angstrom
                   Q00  =   0.235192

H          x = -1.693444  y =  0.012301  z =  1.422643 angstrom
           Maximum rank =  0   Radius =  0.325 angstrom
                   Q00  =   0.109694

H          x = -1.695444  y = -0.489699  z = -0.273357 angstrom
           Maximum rank =  0   Radius =  0.325 angstrom
                   Q00  =   0.097563

H          x = -2.765652  y =  0.844631  z =  0.256393 angstrom
           Maximum rank =  0   Radius =  0.325 angstrom
                   Q00  =   0.119843

C          x =  1.896556  y = -2.480699  z = -0.350357 angstrom
           Maximum rank =  0   Radius =  0.650 angstrom
                   Q00  =  -0.064945

O          x =  0.572556  y = -2.018699  z = -0.103357 angstrom
           Maximum rank =  0   Radius =  0.650 angstrom
                   Q00  =  -0.591220

H          x = -0.028444  y = -2.751699  z = -0.290357 angstrom
           Maximum rank =  0   Radius =  0.325 angstrom
                   Q00  =   0.402972

H          x =  2.543556  y = -1.627699  z = -0.558357 angstrom
           Maximum rank =  0   Radius =  0.325 angstrom
                   Q00  =   0.109719

H          x =  2.265886  y = -3.018939  z =  0.535023 angstrom
           Maximum rank =  0   Radius =  0.325 angstrom
                   Q00  =   0.087685

H          x =  1.898716  y = -3.139549  z = -1.231217 angstrom
           Maximum rank =  0   Radius =  0.325 angstrom
                   Q00  =   0.090820

Total multipoles referred to origin at
           x =   0.000000,  y =    0.000000,  z =    0.000000 angstrom
                   Q00  =  -0.000000

Finished at 7:1:59 on 27 Apr 2020

  DMA results are available in the Python driver through the
	  variable('DMA DISTRIBUTED MULTIPOLES')
  and
	  variable('DMA TOTAL MULTIPOLES')
  commands.

    Psi4 stopped on: Monday, 27 April 2020 07:01AM
    Psi4 wall time for execution: 0:00:29.86

*** Psi4 exiting successfully. Buy a developer a beer!
