                               Psi4 1.3.2 release

  ==> Input File <==

--------------------------------------------------------------------------
import numpy as np
set {scf_type pk
basis cc-pvdz
d_convergence 10
gdma_switch   0
gdma_limit    0
gdma_origin   [ 0.0,  0.0,  0.0 ]
}
molecule test {
    units Angstrom
    0 1
    --
    0 1
    C               -2.345493956112645    -0.518421396616497     0.002451544622676
    C               -2.041493956112645     0.414578603383503     1.150451544622676
    O               -2.873493956112645     0.616578603383503     2.029451544622676
    N               -0.858493956112645     1.010578603383502     1.160451544622676
    H               -0.624493956112645     1.592578603383503     1.962451544622676
    H               -0.139493956112645     0.820578603383503     0.488451544622676
    H               -1.440493956112645    -0.872421396616498    -0.465548455377324
    H               -2.906493956112645     0.046578603383503    -0.744548455377325
    H               -2.933663956112645    -1.398521396616497     0.301583544622676
    C                2.378506043887355    -1.662421396616497    -0.549548455377324
    C                2.041506043887356    -0.329421396616497    -1.108548455377324
    O                2.878506043887355     0.347578603383503    -1.714548455377324
    N                0.815506043887355     0.075578603383503    -0.955548455377324
    H                0.608506043887355     0.977578603383502    -1.370548455377324
    H                0.129506043887355    -0.610421396616497    -0.693548455377324
    H                3.449506043887355    -1.830421396616497    -0.683548455377324
    H                1.860506043887355    -2.404421396616497    -1.139548455377324
    H                2.121146043887355    -1.761461396616497     0.515324544622676

}
e, wfn = energy('scf', return_wfn=True)
gdma(wfn)
dmavals = variable('DMA DISTRIBUTED MULTIPOLES')
charges = np.array(dmavals)
print(charges)
np.save('SSI-105ASN-154ASN-1-dimer.npy', np.array(charges))--------------------------------------------------------------------------

*** tstart() called on ds3
*** at Mon Apr 27 21:04:40 2020

   => Loading Basis Set <=

    Name: CC-PVDZ
    Role: ORBITAL
    Keyword: BASIS
    atoms 1-2, 10-11 entry C          line   138 file /theoryfs2/ds/metcalf/miniconda2/envs/tf2gpu/share/psi4/basis/cc-pvdz.gbs
    atoms 3, 12      entry O          line   198 file /theoryfs2/ds/metcalf/miniconda2/envs/tf2gpu/share/psi4/basis/cc-pvdz.gbs
    atoms 4, 13      entry N          line   168 file /theoryfs2/ds/metcalf/miniconda2/envs/tf2gpu/share/psi4/basis/cc-pvdz.gbs
    atoms 5-9, 14-18 entry H          line    22 file /theoryfs2/ds/metcalf/miniconda2/envs/tf2gpu/share/psi4/basis/cc-pvdz.gbs

         ---------------------------------------------------------
                                   SCF
               by Justin Turney, Rob Parrish, Andy Simmonett
                          and Daniel G. A. Smith
                              RHF Reference
                        1 Threads,    500 MiB Core
         ---------------------------------------------------------

  ==> Geometry <==

    Molecular point group: c1
    Full point group: C1

    Geometry (in Angstrom), charge = 0, multiplicity = 1:

       Center              X                  Y                   Z               Mass
    ------------   -----------------  -----------------  -----------------  -----------------
         C           -2.345493956113    -0.518421396616     0.002451544623    12.000000000000
         C           -2.041493956113     0.414578603384     1.150451544623    12.000000000000
         O           -2.873493956113     0.616578603384     2.029451544623    15.994914619570
         N           -0.858493956113     1.010578603384     1.160451544623    14.003074004430
         H           -0.624493956113     1.592578603384     1.962451544623     1.007825032230
         H           -0.139493956113     0.820578603384     0.488451544623     1.007825032230
         H           -1.440493956113    -0.872421396616    -0.465548455377     1.007825032230
         H           -2.906493956113     0.046578603384    -0.744548455377     1.007825032230
         H           -2.933663956113    -1.398521396616     0.301583544623     1.007825032230
         C            2.378506043887    -1.662421396616    -0.549548455377    12.000000000000
         C            2.041506043887    -0.329421396616    -1.108548455377    12.000000000000
         O            2.878506043887     0.347578603384    -1.714548455377    15.994914619570
         N            0.815506043887     0.075578603384    -0.955548455377    14.003074004430
         H            0.608506043887     0.977578603384    -1.370548455377     1.007825032230
         H            0.129506043887    -0.610421396616    -0.693548455377     1.007825032230
         H            3.449506043887    -1.830421396616    -0.683548455377     1.007825032230
         H            1.860506043887    -2.404421396616    -1.139548455377     1.007825032230
         H            2.121146043887    -1.761461396616     0.515324544623     1.007825032230

  Running in c1 symmetry.

  Rotational constants: A =      0.15239  B =      0.02218  C =      0.02145 [cm^-1]
  Rotational constants: A =   4568.56304  B =    664.92057  C =    643.10652 [MHz]
  Nuclear repulsion =  367.187126640550503

  Charge       = 0
  Multiplicity = 1
  Electrons    = 64
  Nalpha       = 32
  Nbeta        = 32

  ==> Algorithm <==

  SCF Algorithm Type is PK.
  DIIS enabled.
  MOM disabled.
  Fractional occupation disabled.
  Guess Type is SAD.
  Energy threshold   = 1.00e-06
  Density threshold  = 1.00e-10
  Integral threshold = 0.00e+00

  ==> Primary Basis <==

  Basis Set: CC-PVDZ
    Blend: CC-PVDZ
    Number of shells: 78
    Number of basis function: 162
    Number of Cartesian functions: 170
    Spherical Harmonics?: true
    Max angular momentum: 2

  ==> Pre-Iterations <==

   -------------------------------------------------------
    Irrep   Nso     Nmo     Nalpha   Nbeta   Ndocc  Nsocc
   -------------------------------------------------------
     A        162     162       0       0       0       0
   -------------------------------------------------------
    Total     162     162      32      32      32       0
   -------------------------------------------------------

  ==> Integral Setup <==

  Using integral reordering PK algorithm.
  Sizing the integral batches needed.
  Building batch lookup table.
   Calculation information:
      Number of atoms:                  18
      Number of AO shells:              78
      Number of primitives:            226
      Number of atomic orbitals:       170
      Number of basis functions:       162

      Integral cutoff                 1.00e-12
      Number of threads:                 1

	Batch   1 pq = [       0,    9405] index = [             0,44231715] size =     44231715
	Batch   2 pq = [    9405,   13203] index = [      44231715,87166206] size =     42934491
  Task number: 8
  Buffer size: 11059200
  Buffer per thread: 2
  We computed 4029573 shell quartets total.
  Whereas there are 4747821 unique shell quartets.

  ==> DiskJK: Disk-Based J/K Matrices <==

    J tasked:                  Yes
    K tasked:                  Yes
    wK tasked:                  No
    Memory [MiB]:              375
    Schwarz Cutoff:          1E-12

    OpenMP threads:              1

  Minimum eigenvalue in the overlap matrix is 3.8842711424E-03.
  Using Symmetric Orthogonalization.

  SCF Guess: Superposition of Atomic Densities via on-the-fly atomic UHF.

  ==> Iterations <==

                        Total Energy        Delta E     RMS |[F,P]|

   @RHF iter SAD:  -414.84848477404353   -4.14848e+02   0.00000e+00
   @RHF iter   1:  -415.66408100094850   -8.15596e-01   4.75638e-03 DIIS
   @RHF iter   2:  -415.87870889518319   -2.14628e-01   2.95312e-03 DIIS
   @RHF iter   3:  -415.96060314706415   -8.18943e-02   5.57204e-04 DIIS
   @RHF iter   4:  -415.96539502216137   -4.79188e-03   2.00595e-04 DIIS
   @RHF iter   5:  -415.96616850153015   -7.73479e-04   3.76400e-05 DIIS
   @RHF iter   6:  -415.96622078554873   -5.22840e-05   1.86186e-05 DIIS
   @RHF iter   7:  -415.96623017859145   -9.39304e-06   7.33506e-06 DIIS
   @RHF iter   8:  -415.96623206134905   -1.88276e-06   2.50056e-06 DIIS
   @RHF iter   9:  -415.96623226725166   -2.05903e-07   1.06297e-06 DIIS
   @RHF iter  10:  -415.96623229035549   -2.31038e-08   2.87103e-07 DIIS
   @RHF iter  11:  -415.96623229282818   -2.47269e-09   5.34264e-08 DIIS
   @RHF iter  12:  -415.96623229292732   -9.91349e-11   1.83890e-08 DIIS
   @RHF iter  13:  -415.96623229293800   -1.06866e-11   7.24409e-09 DIIS
   @RHF iter  14:  -415.96623229294090   -2.89901e-12   3.05298e-09 DIIS
   @RHF iter  15:  -415.96623229294062    2.84217e-13   1.29595e-09 DIIS
   @RHF iter  16:  -415.96623229294050    1.13687e-13   4.59188e-10 DIIS
   @RHF iter  17:  -415.96623229294204   -1.53477e-12   1.64626e-10 DIIS
   @RHF iter  18:  -415.96623229294244   -3.97904e-13   4.13837e-11 DIIS
  Energy and wave function converged.

  ==> Post-Iterations <==

    Orbital Energies [Eh]
    ---------------------

    Doubly Occupied:

       1A    -20.522494     2A    -20.507579     3A    -15.614755
       4A    -15.586834     5A    -11.361669     6A    -11.355069
       7A    -11.258609     8A    -11.253996     9A     -1.390734
      10A     -1.374192    11A     -1.256955    12A     -1.219426
      13A     -1.026079    14A     -1.018204    15A     -0.840026
      16A     -0.802765    17A     -0.771468    18A     -0.731747
      19A     -0.674571    20A     -0.664692    21A     -0.640221
      22A     -0.625367    23A     -0.592592    24A     -0.579421
      25A     -0.571607    26A     -0.567474    27A     -0.542185
      28A     -0.531245    29A     -0.432845    30A     -0.428194
      31A     -0.414072    32A     -0.406294

    Virtual:

      33A      0.143974    34A      0.171563    35A      0.184772
      36A      0.193337    37A      0.205705    38A      0.213456
      39A      0.235332    40A      0.248760    41A      0.259534
      42A      0.271622    43A      0.324439    44A      0.346362
      45A      0.362208    46A      0.420281    47A      0.441660
      48A      0.482996    49A      0.527473    50A      0.559099
      51A      0.593564    52A      0.631654    53A      0.638499
      54A      0.665904    55A      0.680145    56A      0.695247
      57A      0.712238    58A      0.713305    59A      0.728334
      60A      0.742014    61A      0.749194    62A      0.783869
      63A      0.834233    64A      0.849124    65A      0.850237
      66A      0.854343    67A      0.875051    68A      0.881622
      69A      0.904593    70A      0.914685    71A      0.934262
      72A      0.945521    73A      0.996523    74A      1.001951
      75A      1.021941    76A      1.081855    77A      1.087300
      78A      1.106477    79A      1.112187    80A      1.118159
      81A      1.177397    82A      1.237648    83A      1.250558
      84A      1.312878    85A      1.345275    86A      1.352900
      87A      1.356215    88A      1.368565    89A      1.372676
      90A      1.401298    91A      1.435694    92A      1.448717
      93A      1.462906    94A      1.496039    95A      1.502248
      96A      1.544962    97A      1.621227    98A      1.633628
      99A      1.644009   100A      1.650527   101A      1.684105
     102A      1.723182   103A      1.745228   104A      1.806247
     105A      1.829186   106A      1.856984   107A      1.863960
     108A      1.882683   109A      1.893676   110A      1.908713
     111A      1.916120   112A      1.933986   113A      1.957366
     114A      1.980596   115A      1.991976   116A      2.019070
     117A      2.043797   118A      2.058981   119A      2.127110
     120A      2.132707   121A      2.167822   122A      2.200198
     123A      2.202108   124A      2.259097   125A      2.274693
     126A      2.301360   127A      2.361799   128A      2.389245
     129A      2.418805   130A      2.438778   131A      2.463526
     132A      2.495061   133A      2.525387   134A      2.542867
     135A      2.580613   136A      2.622819   137A      2.669754
     138A      2.705949   139A      2.731904   140A      2.745374
     141A      2.755766   142A      2.776155   143A      2.785374
     144A      2.833274   145A      2.854361   146A      2.919177
     147A      2.988680   148A      3.032290   149A      3.079437
     150A      3.096364   151A      3.131659   152A      3.136407
     153A      3.309939   154A      3.404615   155A      3.491241
     156A      3.507802   157A      3.521554   158A      3.584272
     159A      3.849011   160A      3.872481   161A      3.882223
     162A      3.908920

    Final Occupation by Irrep:
              A
    DOCC [    32 ]

  @RHF Final Energy:  -415.96623229294244

   => Energetics <=

    Nuclear Repulsion Energy =            367.1871266405505025
    One-Electron Energy =               -1295.1799548937065083
    Two-Electron Energy =                 512.0265959602135126
    Total Energy =                       -415.9662322929424363

Computation Completed

Properties will be evaluated at   0.000000,   0.000000,   0.000000 [a0]

Properties computed using the SCF density matrix

  Nuclear Dipole Moment: [e a0]
     X:     0.1169      Y:    -5.0987      Z:    -1.7142

  Electronic Dipole Moment: [e a0]
     X:     0.0090      Y:     4.1738      Z:     1.2165

  Dipole Moment: [e a0]
     X:     0.1258      Y:    -0.9249      Z:    -0.4977     Total:     1.0578

  Dipole Moment: [D]
     X:     0.3199      Y:    -2.3508      Z:    -1.2650     Total:     2.6887

*** tstop() called on ds3 at Mon Apr 27 21:05:37 2020
Module time:
	user time   =      30.96 seconds =       0.52 minutes
	system time =      12.83 seconds =       0.21 minutes
	total time  =         57 seconds =       0.95 minutes
Total time:
	user time   =      30.96 seconds =       0.52 minutes
	system time =      12.83 seconds =       0.21 minutes
	total time  =         57 seconds =       0.95 minutes
                                     G D M A

                                 by Anthony Stone

                           version 2.2.06, 22 June 2011

               Distributed Multipoles from Gaussian wavefunctions

Starting at 21:5:37 on 27 Apr 2020

Using SCF density matrix from file ./SSI/SSI-105ASN-154ASN-1-dimer.test.22912.fchk

                         Distributed Multipole Analysis

Standard DMA

Positions and radii in angstrom
Multipole moments in atomic units, ea_0^k for rank k

C          x = -2.345494  y = -0.518421  z =  0.002452 angstrom
           Maximum rank =  0   Radius =  0.650 angstrom
                   Q00  =  -0.255347

C          x = -2.041494  y =  0.414579  z =  1.150452 angstrom
           Maximum rank =  0   Radius =  0.650 angstrom
                   Q00  =   0.813748

O          x = -2.873494  y =  0.616579  z =  2.029452 angstrom
           Maximum rank =  0   Radius =  0.650 angstrom
                   Q00  =  -0.793726

N          x = -0.858494  y =  1.010579  z =  1.160452 angstrom
           Maximum rank =  0   Radius =  0.650 angstrom
                   Q00  =  -0.550666

H          x = -0.624494  y =  1.592579  z =  1.962452 angstrom
           Maximum rank =  0   Radius =  0.325 angstrom
                   Q00  =   0.217782

H          x = -0.139494  y =  0.820579  z =  0.488452 angstrom
           Maximum rank =  0   Radius =  0.325 angstrom
                   Q00  =   0.243008

H          x = -1.440494  y = -0.872421  z = -0.465548 angstrom
           Maximum rank =  0   Radius =  0.325 angstrom
                   Q00  =   0.040408

H          x = -2.906494  y =  0.046579  z = -0.744548 angstrom
           Maximum rank =  0   Radius =  0.325 angstrom
                   Q00  =   0.137643

H          x = -2.933664  y = -1.398521  z =  0.301584 angstrom
           Maximum rank =  0   Radius =  0.325 angstrom
                   Q00  =   0.139204

C          x =  2.378506  y = -1.662421  z = -0.549548 angstrom
           Maximum rank =  0   Radius =  0.650 angstrom
                   Q00  =  -0.277053

C          x =  2.041506  y = -0.329421  z = -1.108548 angstrom
           Maximum rank =  0   Radius =  0.650 angstrom
                   Q00  =   0.821858

O          x =  2.878506  y =  0.347579  z = -1.714548 angstrom
           Maximum rank =  0   Radius =  0.650 angstrom
                   Q00  =  -0.810143

N          x =  0.815506  y =  0.075579  z = -0.955548 angstrom
           Maximum rank =  0   Radius =  0.650 angstrom
                   Q00  =  -0.534848

H          x =  0.608506  y =  0.977579  z = -1.370548 angstrom
           Maximum rank =  0   Radius =  0.325 angstrom
                   Q00  =   0.226057

H          x =  0.129506  y = -0.610421  z = -0.693548 angstrom
           Maximum rank =  0   Radius =  0.325 angstrom
                   Q00  =   0.217951

H          x =  3.449506  y = -1.830421  z = -0.683548 angstrom
           Maximum rank =  0   Radius =  0.325 angstrom
                   Q00  =   0.136612

H          x =  1.860506  y = -2.404421  z = -1.139548 angstrom
           Maximum rank =  0   Radius =  0.325 angstrom
                   Q00  =   0.117988

H          x =  2.121146  y = -1.761461  z =  0.515325 angstrom
           Maximum rank =  0   Radius =  0.325 angstrom
                   Q00  =   0.109526

Total multipoles referred to origin at
           x =   0.000000,  y =    0.000000,  z =    0.000000 angstrom
                   Q00  =  -0.000000

Finished at 21:5:37 on 27 Apr 2020

  DMA results are available in the Python driver through the
	  variable('DMA DISTRIBUTED MULTIPOLES')
  and
	  variable('DMA TOTAL MULTIPOLES')
  commands.

    Psi4 stopped on: Monday, 27 April 2020 09:05PM
    Psi4 wall time for execution: 0:00:56.88

*** Psi4 exiting successfully. Buy a developer a beer!
