                               Psi4 1.3.2 release

  ==> Input File <==

--------------------------------------------------------------------------
import numpy as np
set {scf_type pk
basis cc-pvdz
d_convergence 10
gdma_switch   0
gdma_limit    0
gdma_origin   [ 0.0,  0.0,  0.0 ]
}
molecule test {
    units Angstrom
    0 1
    --
    0 1
    C               -2.303929701262807    -2.955279342528477     1.902170135366205
    C               -1.046929701262807     0.554720657471523     1.678170135366206
    C               -0.838929701262807    -0.798279342528477     2.014170135366205
    C               -2.067929701262807    -1.499279342528477     1.733170135366205
    C               -2.945929701262807    -0.576279342528477     1.285170135366206
    C               -0.059929701262807     1.516720657471523     1.837170135366206
    C                1.162070298737193     1.101720657471523     2.306170135366206
    C                0.420070298737193    -1.196279342528477     2.471170135366206
    C                1.407070298737193    -0.237279342528477     2.625170135366206
    N               -2.341929701262806     0.654720657471523     1.257170135366206
    H               -2.811929701262807     1.520720657471523     0.976170135366206
    H               -0.247929701262807     2.549720657471522     1.584170135366206
    H               -3.967929701262806    -0.760279342528477     0.980170135366206
    H                1.958070298737193     1.824720657471523     2.422170135366206
    H                0.609070298737193    -2.232279342528477     2.711170135366205
    H               -2.167929701262806    -3.197279342528477     2.956170135366206
    H               -1.533929701262807    -3.482279342528477     1.338170135366205
    H                2.388070298737194    -0.531279342528477     2.975170135366206
    H               -3.288799701262806    -3.314789342528477     1.569320135366206
    C                2.307070298737194    -2.049279342528477    -3.222829864633794
    C               -0.283929701262807     0.458720657471523    -2.041829864633795
    C                0.499070298737193     1.605720657471523    -1.899829864633795
    C                0.303070298737193    -0.731279342528477    -2.476829864633794
    C                1.665070298737193    -0.787279342528477    -2.737829864633794
    C                1.848070298737193     1.548720657471523    -2.130829864633795
    C                2.431070298737194     0.362720657471523    -2.565829864633794
    O               -0.030929701262807     2.797720657471523    -1.492829864633795
    H               -1.339929701262806     0.505720657471523    -1.822829864633794
    H               -0.307929701262807    -1.614279342528477    -2.603829864633794
    H                2.460070298737194     2.428720657471523    -1.995829864633794
    H                0.639070298737193     3.485720657471523    -1.426829864633794
    H                1.722070298737193    -2.898279342528477    -2.868829864633795
    H                3.293070298737193    -2.127279342528477    -2.759829864633795
    H                3.492070298737194     0.307720657471523    -2.744829864633795
    H                2.426190298737194    -2.129169342528477    -4.313438864633794

}
e, wfn = energy('scf', return_wfn=True)
gdma(wfn)
dmavals = variable('DMA DISTRIBUTED MULTIPOLES')
charges = np.array(dmavals)
print(charges)
np.save('SSI-097TRP-173TYR-1-dimer.npy', np.array(charges))--------------------------------------------------------------------------

*** tstart() called on ds3
*** at Tue Apr 28 03:27:23 2020

   => Loading Basis Set <=

    Name: CC-PVDZ
    Role: ORBITAL
    Keyword: BASIS
    atoms 1-9, 20-26   entry C          line   138 file /theoryfs2/ds/metcalf/miniconda2/envs/tf2gpu/share/psi4/basis/cc-pvdz.gbs
    atoms 10           entry N          line   168 file /theoryfs2/ds/metcalf/miniconda2/envs/tf2gpu/share/psi4/basis/cc-pvdz.gbs
    atoms 11-19, 28-35 entry H          line    22 file /theoryfs2/ds/metcalf/miniconda2/envs/tf2gpu/share/psi4/basis/cc-pvdz.gbs
    atoms 27           entry O          line   198 file /theoryfs2/ds/metcalf/miniconda2/envs/tf2gpu/share/psi4/basis/cc-pvdz.gbs

         ---------------------------------------------------------
                                   SCF
               by Justin Turney, Rob Parrish, Andy Simmonett
                          and Daniel G. A. Smith
                              RHF Reference
                        1 Threads,    500 MiB Core
         ---------------------------------------------------------

  ==> Geometry <==

    Molecular point group: c1
    Full point group: C1

    Geometry (in Angstrom), charge = 0, multiplicity = 1:

       Center              X                  Y                   Z               Mass
    ------------   -----------------  -----------------  -----------------  -----------------
         C           -2.303929701263    -2.955279342528     1.902170135366    12.000000000000
         C           -1.046929701263     0.554720657472     1.678170135366    12.000000000000
         C           -0.838929701263    -0.798279342528     2.014170135366    12.000000000000
         C           -2.067929701263    -1.499279342528     1.733170135366    12.000000000000
         C           -2.945929701263    -0.576279342528     1.285170135366    12.000000000000
         C           -0.059929701263     1.516720657472     1.837170135366    12.000000000000
         C            1.162070298737     1.101720657472     2.306170135366    12.000000000000
         C            0.420070298737    -1.196279342528     2.471170135366    12.000000000000
         C            1.407070298737    -0.237279342528     2.625170135366    12.000000000000
         N           -2.341929701263     0.654720657472     1.257170135366    14.003074004430
         H           -2.811929701263     1.520720657472     0.976170135366     1.007825032230
         H           -0.247929701263     2.549720657472     1.584170135366     1.007825032230
         H           -3.967929701263    -0.760279342528     0.980170135366     1.007825032230
         H            1.958070298737     1.824720657472     2.422170135366     1.007825032230
         H            0.609070298737    -2.232279342528     2.711170135366     1.007825032230
         H           -2.167929701263    -3.197279342528     2.956170135366     1.007825032230
         H           -1.533929701263    -3.482279342528     1.338170135366     1.007825032230
         H            2.388070298737    -0.531279342528     2.975170135366     1.007825032230
         H           -3.288799701263    -3.314789342528     1.569320135366     1.007825032230
         C            2.307070298737    -2.049279342528    -3.222829864634    12.000000000000
         C           -0.283929701263     0.458720657472    -2.041829864634    12.000000000000
         C            0.499070298737     1.605720657472    -1.899829864634    12.000000000000
         C            0.303070298737    -0.731279342528    -2.476829864634    12.000000000000
         C            1.665070298737    -0.787279342528    -2.737829864634    12.000000000000
         C            1.848070298737     1.548720657472    -2.130829864634    12.000000000000
         C            2.431070298737     0.362720657472    -2.565829864634    12.000000000000
         O           -0.030929701263     2.797720657472    -1.492829864634    15.994914619570
         H           -1.339929701263     0.505720657472    -1.822829864634     1.007825032230
         H           -0.307929701263    -1.614279342528    -2.603829864634     1.007825032230
         H            2.460070298737     2.428720657472    -1.995829864634     1.007825032230
         H            0.639070298737     3.485720657472    -1.426829864634     1.007825032230
         H            1.722070298737    -2.898279342528    -2.868829864634     1.007825032230
         H            3.293070298737    -2.127279342528    -2.759829864634     1.007825032230
         H            3.492070298737     0.307720657472    -2.744829864634     1.007825032230
         H            2.426190298737    -2.129169342528    -4.313438864634     1.007825032230

  Running in c1 symmetry.

  Rotational constants: A =      0.01863  B =      0.00934  C =      0.00859 [cm^-1]
  Rotational constants: A =    558.41251  B =    280.06171  C =    257.42937 [MHz]
  Nuclear repulsion = 1232.639818540679471

  Charge       = 0
  Multiplicity = 1
  Electrons    = 128
  Nalpha       = 64
  Nbeta        = 64

  ==> Algorithm <==

  SCF Algorithm Type is PK.
  DIIS enabled.
  MOM disabled.
  Fractional occupation disabled.
  Guess Type is SAD.
  Energy threshold   = 1.00e-06
  Density threshold  = 1.00e-10
  Integral threshold = 0.00e+00

  ==> Primary Basis <==

  Basis Set: CC-PVDZ
    Blend: CC-PVDZ
    Number of shells: 159
    Number of basis function: 337
    Number of Cartesian functions: 355
    Spherical Harmonics?: true
    Max angular momentum: 2

  ==> Pre-Iterations <==

   -------------------------------------------------------
    Irrep   Nso     Nmo     Nalpha   Nbeta   Ndocc  Nsocc
   -------------------------------------------------------
     A        337     337       0       0       0       0
   -------------------------------------------------------
    Total     337     337      64      64      64       0
   -------------------------------------------------------

  ==> Integral Setup <==

  Using integral reordering PK algorithm.
  Sizing the integral batches needed.
  Building batch lookup table.
   Calculation information:
      Number of atoms:                  35
      Number of AO shells:             159
      Number of primitives:            481
      Number of atomic orbitals:       355
      Number of basis functions:       337

      Integral cutoff                 1.00e-12
      Number of threads:                 1

	Batch   1 pq = [       0,    9405] index = [             0,44231715] size =     44231715
	Batch   2 pq = [    9405,   13301] index = [      44231715,88464951] size =     44233236
	Batch   3 pq = [   13301,   16290] index = [      88464951,132690195] size =     44225244
	Batch   4 pq = [   16290,   18810] index = [     132690195,176917455] size =     44227260
	Batch   5 pq = [   18810,   21030] index = [     176917455,221140965] size =     44223510
	Batch   6 pq = [   21030,   23037] index = [     221140965,265363203] size =     44222238
	Batch   7 pq = [   23037,   24883] index = [     265363203,309594286] size =     44231083
	Batch   8 pq = [   24883,   26601] index = [     309594286,353819901] size =     44225615
	Batch   9 pq = [   26601,   28214] index = [     353819901,398029005] size =     44209104
	Batch  10 pq = [   28214,   29740] index = [     398029005,442248670] size =     44219665
	Batch  11 pq = [   29740,   31191] index = [     442248670,486454836] size =     44206166
	Batch  12 pq = [   31191,   32578] index = [     486454836,530679331] size =     44224495
	Batch  13 pq = [   32578,   33908] index = [     530679331,574893186] size =     44213855
	Batch  14 pq = [   33908,   35188] index = [     574893186,619115266] size =     44222080
	Batch  15 pq = [   35188,   36423] index = [     619115266,663335676] size =     44220410
	Batch  16 pq = [   36423,   37617] index = [     663335676,707538153] size =     44202477
	Batch  17 pq = [   37617,   38775] index = [     707538153,751769700] size =     44231547
	Batch  18 pq = [   38775,   39899] index = [     751769700,795985050] size =     44215350
	Batch  19 pq = [   39899,   40992] index = [     795985050,840192528] size =     44207478
	Batch  20 pq = [   40992,   42057] index = [     840192528,884416653] size =     44224125
	Batch  21 pq = [   42057,   43095] index = [     884416653,928611060] size =     44194407
	Batch  22 pq = [   43095,   44109] index = [     928611060,972823995] size =     44212935
	Batch  23 pq = [   44109,   45100] index = [     972823995,1017027550] size =     44203555
	Batch  24 pq = [   45100,   46070] index = [    1017027550,1061245485] size =     44217935
	Batch  25 pq = [   46070,   47020] index = [    1061245485,1105463710] size =     44218225
	Batch  26 pq = [   47020,   47951] index = [    1105463710,1149673176] size =     44209466
	Batch  27 pq = [   47951,   48864] index = [    1149673176,1193869680] size =     44196504
	Batch  28 pq = [   48864,   49761] index = [    1193869680,1238103441] size =     44233761
	Batch  29 pq = [   49761,   50642] index = [    1238103441,1282331403] size =     44227962
	Batch  30 pq = [   50642,   51508] index = [    1282331403,1326562786] size =     44231383
	Batch  31 pq = [   51508,   52359] index = [    1326562786,1370758620] size =     44195834
	Batch  32 pq = [   52359,   53197] index = [    1370758620,1414987003] size =     44228383
	Batch  33 pq = [   53197,   54022] index = [    1414987003,1459215253] size =     44228250
	Batch  34 pq = [   54022,   54834] index = [    1459215253,1503411195] size =     44195942
	Batch  35 pq = [   54834,   55634] index = [    1503411195,1547598795] size =     44187600
	Batch  36 pq = [   55634,   56423] index = [    1547598795,1591805676] size =     44206881
	Batch  37 pq = [   56423,   56953] index = [    1591805676,1621850581] size =     30044905
  Task number: 147
  Buffer size: 11059200
  Buffer per thread: 2
  We computed 98321714 shell quartets total.
  Whereas there are 80905560 unique shell quartets.
    21.53 percent of shell quartets recomputed by reordering.

  ==> DiskJK: Disk-Based J/K Matrices <==

    J tasked:                  Yes
    K tasked:                  Yes
    wK tasked:                  No
    Memory [MiB]:              375
    Schwarz Cutoff:          1E-12

    OpenMP threads:              1

  Minimum eigenvalue in the overlap matrix is 2.3753161186E-04.
  Using Symmetric Orthogonalization.

  SCF Guess: Superposition of Atomic Densities via on-the-fly atomic UHF.

  ==> Iterations <==

                        Total Energy        Delta E     RMS |[F,P]|

   @RHF iter SAD:  -744.52928831662666   -7.44529e+02   0.00000e+00
   @RHF iter   1:  -744.77486513179201   -2.45577e-01   2.23635e-03 DIIS
   @RHF iter   2:  -745.09499950938482   -3.20134e-01   9.93605e-04 DIIS
   @RHF iter   3:  -745.15153603056547   -5.65365e-02   2.58273e-04 DIIS
   @RHF iter   4:  -745.15662168440315   -5.08565e-03   1.18448e-04 DIIS
   @RHF iter   5:  -745.15753118853195   -9.09504e-04   1.82640e-05 DIIS
   @RHF iter   6:  -745.15757093928300   -3.97508e-05   8.36877e-06 DIIS
   @RHF iter   7:  -745.15757939515777   -8.45587e-06   3.03122e-06 DIIS
   @RHF iter   8:  -745.15758123332557   -1.83817e-06   1.19964e-06 DIIS
   @RHF iter   9:  -745.15758157789969   -3.44574e-07   5.39292e-07 DIIS
   @RHF iter  10:  -745.15758165508510   -7.71854e-08   2.44522e-07 DIIS
   @RHF iter  11:  -745.15758167571516   -2.06301e-08   1.05597e-07 DIIS
   @RHF iter  12:  -745.15758167871979   -3.00463e-09   4.13022e-08 DIIS
   @RHF iter  13:  -745.15758167908268   -3.62888e-10   1.46825e-08 DIIS
   @RHF iter  14:  -745.15758167911702   -3.43334e-11   4.98349e-09 DIIS
   @RHF iter  15:  -745.15758167912588   -8.86757e-12   1.66316e-09 DIIS
   @RHF iter  16:  -745.15758167913566   -9.77707e-12   7.70432e-10 DIIS
   @RHF iter  17:  -745.15758167912020    1.54614e-11   3.91114e-10 DIIS
   @RHF iter  18:  -745.15758167912793   -7.73070e-12   1.67707e-10 DIIS
   @RHF iter  19:  -745.15758167911792    1.00044e-11   7.63184e-11 DIIS
  Energy and wave function converged.

  ==> Post-Iterations <==

    Orbital Energies [Eh]
    ---------------------

    Doubly Occupied:

       1A    -20.579755     2A    -15.593633     3A    -11.291594
       4A    -11.255595     5A    -11.255379     6A    -11.231823
       7A    -11.231163     8A    -11.226148     9A    -11.225535
      10A    -11.224858    11A    -11.224082    12A    -11.222356
      13A    -11.222353    14A    -11.222109    15A    -11.221039
      16A    -11.214117    17A    -11.212507    18A    -11.210879
      19A     -1.395617    20A     -1.290963    21A     -1.147605
      22A     -1.125702    23A     -1.069903    24A     -1.035511
      25A     -1.011990    26A     -0.993533    27A     -0.984101
      28A     -0.928084    29A     -0.922001    30A     -0.841042
      31A     -0.835308    32A     -0.797451    33A     -0.797424
      34A     -0.747714    35A     -0.727523    36A     -0.712472
      37A     -0.666307    38A     -0.657069    39A     -0.638669
      40A     -0.637428    41A     -0.602602    42A     -0.598134
      43A     -0.590655    44A     -0.586026    45A     -0.581400
      46A     -0.580195    47A     -0.567344    48A     -0.566296
      49A     -0.562051    50A     -0.547379    51A     -0.532410
      52A     -0.522161    53A     -0.521153    54A     -0.493340
      55A     -0.490089    56A     -0.480752    57A     -0.467351
      58A     -0.462278    59A     -0.457349    60A     -0.365597
      61A     -0.332206    62A     -0.298113    63A     -0.288762
      64A     -0.271936

    Virtual:

      65A      0.133530    66A      0.135518    67A      0.162043
      68A      0.171500    69A      0.177991    70A      0.184926
      71A      0.188751    72A      0.195737    73A      0.212330
      74A      0.222362    75A      0.224334    76A      0.234136
      77A      0.241213    78A      0.246791    79A      0.263197
      80A      0.268920    81A      0.272892    82A      0.279982
      83A      0.285916    84A      0.289465    85A      0.296787
      86A      0.300591    87A      0.376115    88A      0.376832
      89A      0.382529    90A      0.393236    91A      0.413551
      92A      0.421186    93A      0.432960    94A      0.451777
      95A      0.461647    96A      0.477653    97A      0.486239
      98A      0.487822    99A      0.502361   100A      0.505813
     101A      0.511308   102A      0.520120   103A      0.599320
     104A      0.607196   105A      0.614678   106A      0.627333
     107A      0.631533   108A      0.642721   109A      0.643712
     110A      0.662159   111A      0.663729   112A      0.675153
     113A      0.685525   114A      0.701406   115A      0.710065
     116A      0.716186   117A      0.720083   118A      0.729859
     119A      0.734052   120A      0.738155   121A      0.740270
     122A      0.746709   123A      0.753284   124A      0.759695
     125A      0.767119   126A      0.770453   127A      0.772927
     128A      0.777986   129A      0.788774   130A      0.791472
     131A      0.798714   132A      0.803092   133A      0.816447
     134A      0.827307   135A      0.830367   136A      0.843496
     137A      0.862265   138A      0.870903   139A      0.879737
     140A      0.881179   141A      0.887717   142A      0.890210
     143A      0.893841   144A      0.902612   145A      0.905293
     146A      0.909379   147A      0.913745   148A      0.920018
     149A      0.925736   150A      0.934294   151A      0.945145
     152A      0.951055   153A      0.955670   154A      0.962176
     155A      0.964847   156A      0.966935   157A      0.997604
     158A      1.010228   159A      1.018677   160A      1.026096
     161A      1.039607   162A      1.059630   163A      1.064753
     164A      1.089846   165A      1.106725   166A      1.128397
     167A      1.131233   168A      1.144817   169A      1.150288
     170A      1.154394   171A      1.165557   172A      1.168054
     173A      1.175683   174A      1.184722   175A      1.202555
     176A      1.217609   177A      1.231360   178A      1.235433
     179A      1.241800   180A      1.248387   181A      1.259283
     182A      1.263939   183A      1.279111   184A      1.284279
     185A      1.288001   186A      1.305188   187A      1.308735
     188A      1.311750   189A      1.324503   190A      1.332656
     191A      1.339618   192A      1.346483   193A      1.366368
     194A      1.370785   195A      1.377178   196A      1.383369
     197A      1.399470   198A      1.411148   199A      1.451260
     200A      1.484560   201A      1.516652   202A      1.534889
     203A      1.536336   204A      1.560679   205A      1.584046
     206A      1.592905   207A      1.601102   208A      1.620830
     209A      1.637811   210A      1.645038   211A      1.648084
     212A      1.675737   213A      1.688942   214A      1.692414
     215A      1.697721   216A      1.711180   217A      1.735155
     218A      1.747010   219A      1.765161   220A      1.774768
     221A      1.782850   222A      1.791757   223A      1.800942
     224A      1.807033   225A      1.817017   226A      1.824964
     227A      1.840151   228A      1.851029   229A      1.875636
     230A      1.889691   231A      1.896223   232A      1.899659
     233A      1.902335   234A      1.904030   235A      1.914601
     236A      1.920850   237A      1.926490   238A      1.935741
     239A      1.943819   240A      1.944874   241A      1.947351
     242A      1.958232   243A      1.967610   244A      1.970322
     245A      1.984538   246A      1.988450   247A      1.997746
     248A      2.002014   249A      2.022988   250A      2.039485
     251A      2.042849   252A      2.049153   253A      2.059387
     254A      2.064055   255A      2.071489   256A      2.082999
     257A      2.095088   258A      2.108804   259A      2.111446
     260A      2.117634   261A      2.127382   262A      2.143614
     263A      2.151340   264A      2.154908   265A      2.156489
     266A      2.162757   267A      2.173644   268A      2.177435
     269A      2.191756   270A      2.217080   271A      2.227434
     272A      2.233759   273A      2.239086   274A      2.270348
     275A      2.283018   276A      2.304420   277A      2.306772
     278A      2.313516   279A      2.327285   280A      2.327453
     281A      2.336279   282A      2.366000   283A      2.389109
     284A      2.428407   285A      2.435659   286A      2.451320
     287A      2.461808   288A      2.465713   289A      2.475452
     290A      2.484522   291A      2.504100   292A      2.541632
     293A      2.547825   294A      2.569226   295A      2.595695
     296A      2.604919   297A      2.621456   298A      2.661219
     299A      2.666103   300A      2.674757   301A      2.694714
     302A      2.713862   303A      2.763075   304A      2.773118
     305A      2.777850   306A      2.780241   307A      2.796149
     308A      2.804349   309A      2.812901   310A      2.819188
     311A      2.823291   312A      2.855197   313A      2.874464
     314A      2.875419   315A      2.912207   316A      2.921746
     317A      2.968720   318A      2.987199   319A      3.013139
     320A      3.065808   321A      3.081513   322A      3.099230
     323A      3.106530   324A      3.122889   325A      3.143663
     326A      3.225609   327A      3.256792   328A      3.300130
     329A      3.330868   330A      3.348958   331A      3.401029
     332A      3.589105   333A      3.669291   334A      3.751438
     335A      3.977889   336A      4.013582   337A      4.187845

    Final Occupation by Irrep:
              A
    DOCC [    64 ]

  @RHF Final Energy:  -745.15758167911792

   => Energetics <=

    Nuclear Repulsion Energy =           1232.6398185406794710
    One-Electron Energy =               -3460.4069569170960676
    Two-Electron Energy =                1482.6095566972983306
    Total Energy =                       -745.1575816791180387

Computation Completed

Properties will be evaluated at   0.000000,   0.000000,   0.000000 [a0]

Properties computed using the SCF density matrix

  Nuclear Dipole Moment: [e a0]
     X:     3.1204      Y:    -9.0483      Z:    -2.8453

  Electronic Dipole Moment: [e a0]
     X:    -3.1948      Y:     9.4509      Z:     2.4845

  Dipole Moment: [e a0]
     X:    -0.0744      Y:     0.4026      Z:    -0.3608     Total:     0.5457

  Dipole Moment: [D]
     X:    -0.1891      Y:     1.0232      Z:    -0.9172     Total:     1.3870

*** tstop() called on ds3 at Tue Apr 28 03:57:02 2020
Module time:
	user time   =     918.71 seconds =      15.31 minutes
	system time =     265.79 seconds =       4.43 minutes
	total time  =       1779 seconds =      29.65 minutes
Total time:
	user time   =     918.71 seconds =      15.31 minutes
	system time =     265.79 seconds =       4.43 minutes
	total time  =       1779 seconds =      29.65 minutes
                                     G D M A

                                 by Anthony Stone

                           version 2.2.06, 22 June 2011

               Distributed Multipoles from Gaussian wavefunctions

Starting at 3:57:2 on 28 Apr 2020

Using SCF density matrix from file ./SSI/SSI-097TRP-173TYR-1-dimer.test.10298.fchk

                         Distributed Multipole Analysis

Standard DMA

Positions and radii in angstrom
Multipole moments in atomic units, ea_0^k for rank k

C          x = -2.303930  y = -2.955279  z =  1.902170 angstrom
           Maximum rank =  0   Radius =  0.650 angstrom
                   Q00  =  -0.203433

C          x = -1.046930  y =  0.554721  z =  1.678170 angstrom
           Maximum rank =  0   Radius =  0.650 angstrom
                   Q00  =   0.258388

C          x = -0.838930  y = -0.798279  z =  2.014170 angstrom
           Maximum rank =  0   Radius =  0.650 angstrom
                   Q00  =  -0.065251

C          x = -2.067930  y = -1.499279  z =  1.733170 angstrom
           Maximum rank =  0   Radius =  0.650 angstrom
                   Q00  =  -0.117911

C          x = -2.945930  y = -0.576279  z =  1.285170 angstrom
           Maximum rank =  0   Radius =  0.650 angstrom
                   Q00  =   0.073277

C          x = -0.059930  y =  1.516721  z =  1.837170 angstrom
           Maximum rank =  0   Radius =  0.650 angstrom
                   Q00  =  -0.110738

C          x =  1.162070  y =  1.101721  z =  2.306170 angstrom
           Maximum rank =  0   Radius =  0.650 angstrom
                   Q00  =   0.000909

C          x =  0.420070  y = -1.196279  z =  2.471170 angstrom
           Maximum rank =  0   Radius =  0.650 angstrom
                   Q00  =  -0.097037

C          x =  1.407070  y = -0.237279  z =  2.625170 angstrom
           Maximum rank =  0   Radius =  0.650 angstrom
                   Q00  =  -0.095277

N          x = -2.341930  y =  0.654721  z =  1.257170 angstrom
           Maximum rank =  0   Radius =  0.650 angstrom
                   Q00  =  -0.506162

H          x = -2.811930  y =  1.520721  z =  0.976170 angstrom
           Maximum rank =  0   Radius =  0.325 angstrom
                   Q00  =   0.217466

H          x = -0.247930  y =  2.549721  z =  1.584170 angstrom
           Maximum rank =  0   Radius =  0.325 angstrom
                   Q00  =   0.071421

H          x = -3.967930  y = -0.760279  z =  0.980170 angstrom
           Maximum rank =  0   Radius =  0.325 angstrom
                   Q00  =   0.099219

H          x =  1.958070  y =  1.824721  z =  2.422170 angstrom
           Maximum rank =  0   Radius =  0.325 angstrom
                   Q00  =   0.057038

H          x =  0.609070  y = -2.232279  z =  2.711170 angstrom
           Maximum rank =  0   Radius =  0.325 angstrom
                   Q00  =   0.067727

H          x = -2.167930  y = -3.197279  z =  2.956170 angstrom
           Maximum rank =  0   Radius =  0.325 angstrom
                   Q00  =   0.095824

H          x = -1.533930  y = -3.482279  z =  1.338170 angstrom
           Maximum rank =  0   Radius =  0.325 angstrom
                   Q00  =   0.094092

H          x =  2.388070  y = -0.531279  z =  2.975170 angstrom
           Maximum rank =  0   Radius =  0.325 angstrom
                   Q00  =   0.056556

H          x = -3.288800  y = -3.314789  z =  1.569320 angstrom
           Maximum rank =  0   Radius =  0.325 angstrom
                   Q00  =   0.103619

C          x =  2.307070  y = -2.049279  z = -3.222830 angstrom
           Maximum rank =  0   Radius =  0.650 angstrom
                   Q00  =  -0.197800

C          x = -0.283930  y =  0.458721  z = -2.041830 angstrom
           Maximum rank =  0   Radius =  0.650 angstrom
                   Q00  =  -0.089536

C          x =  0.499070  y =  1.605721  z = -1.899830 angstrom
           Maximum rank =  0   Radius =  0.650 angstrom
                   Q00  =   0.276191

C          x =  0.303070  y = -0.731279  z = -2.476830 angstrom
           Maximum rank =  0   Radius =  0.650 angstrom
                   Q00  =  -0.046951

C          x =  1.665070  y = -0.787279  z = -2.737830 angstrom
           Maximum rank =  0   Radius =  0.650 angstrom
                   Q00  =  -0.137689

C          x =  1.848070  y =  1.548721  z = -2.130830 angstrom
           Maximum rank =  0   Radius =  0.650 angstrom
                   Q00  =  -0.180408

C          x =  2.431070  y =  0.362721  z = -2.565830 angstrom
           Maximum rank =  0   Radius =  0.650 angstrom
                   Q00  =   0.067194

O          x = -0.030930  y =  2.797721  z = -1.492830 angstrom
           Maximum rank =  0   Radius =  0.650 angstrom
                   Q00  =  -0.649278

H          x = -1.339930  y =  0.505721  z = -1.822830 angstrom
           Maximum rank =  0   Radius =  0.325 angstrom
                   Q00  =   0.074646

H          x = -0.307930  y = -1.614279  z = -2.603830 angstrom
           Maximum rank =  0   Radius =  0.325 angstrom
                   Q00  =   0.062995

H          x =  2.460070  y =  2.428721  z = -1.995830 angstrom
           Maximum rank =  0   Radius =  0.325 angstrom
                   Q00  =   0.063660

H          x =  0.639070  y =  3.485721  z = -1.426830 angstrom
           Maximum rank =  0   Radius =  0.325 angstrom
                   Q00  =   0.406000

H          x =  1.722070  y = -2.898279  z = -2.868830 angstrom
           Maximum rank =  0   Radius =  0.325 angstrom
                   Q00  =   0.094846

H          x =  3.293070  y = -2.127279  z = -2.759830 angstrom
           Maximum rank =  0   Radius =  0.325 angstrom
                   Q00  =   0.092876

H          x =  3.492070  y =  0.307721  z = -2.744830 angstrom
           Maximum rank =  0   Radius =  0.325 angstrom
                   Q00  =   0.065167

H          x =  2.426190  y = -2.129169  z = -4.313439 angstrom
           Maximum rank =  0   Radius =  0.325 angstrom
                   Q00  =   0.098361

Total multipoles referred to origin at
           x =   0.000000,  y =    0.000000,  z =    0.000000 angstrom
                   Q00  =  -0.000000

Finished at 3:57:2 on 28 Apr 2020

  DMA results are available in the Python driver through the
	  variable('DMA DISTRIBUTED MULTIPOLES')
  and
	  variable('DMA TOTAL MULTIPOLES')
  commands.

    Psi4 stopped on: Tuesday, 28 April 2020 03:57AM
    Psi4 wall time for execution: 0:29:39.30

*** Psi4 exiting successfully. Buy a developer a beer!
