                               Psi4 1.3.2 release

  ==> Input File <==

--------------------------------------------------------------------------
import numpy as np
set {scf_type pk
basis cc-pvdz
d_convergence 10
gdma_switch   0
gdma_limit    0
gdma_origin   [ 0.0,  0.0,  0.0 ]
}
molecule test {
    units Angstrom
    0 1
    --
    0 1
    C                1.087656659452939    -1.280404566363524     1.124614562399274
    C                0.003656659452939    -1.802404566363524     2.043614562399275
    C                0.636656659452939    -1.330404566363524    -0.322385437600725
    O                1.224656659452939    -0.692404566363524    -1.177385437600726
    N               -0.449343340547061    -2.050404566363524    -0.615385437600725
    H                1.311656659452939    -0.243404566363524     1.379614562399275
    H                1.990656659452939    -1.880404566363524     1.245614562399274
    H               -0.034343340547061    -2.893404566363524     1.986614562399275
    H               -0.955343340547061    -1.401404566363524     1.708614562399275
    H               -0.704343340547061    -2.139404566363524    -1.594385437600725
    H               -0.984343340547061    -2.541404566363524     0.084614562399275
    H                0.084236659452939    -1.490964566363524     3.095524562399274
    C               -0.572343340547061     1.886595433636476    -0.226385437600725
    C               -0.890343340547061     2.356595433636476    -1.641385437600725
    C               -0.889343340547061     2.903595433636475     0.871614562399275
    H               -1.133343340547061     0.974595433636476    -0.035385437600725
    H                0.488656659452939     1.643595433636476    -0.162385437600725
    H               -1.939343340547061     2.662595433636476    -1.671385437600726
    H               -0.256343340547061     3.783595433636476     0.747614562399274
    H               -1.926343340547061     3.227595433636476     0.772614562399275
    H               -0.721483340547061     1.531205433636476    -2.348645437600725
    H               -0.250853340547061     3.222345433636475    -1.868372437600725
    H               -0.731403340547061     2.474685433636476     1.872164562399275

}
e, wfn = energy('scf', return_wfn=True)
gdma(wfn)
dmavals = variable('DMA DISTRIBUTED MULTIPOLES')
charges = np.array(dmavals)
print(charges)
np.save('SSI-019GLN-026GLU-1-dimer.npy', np.array(charges))--------------------------------------------------------------------------

*** tstart() called on ds3
*** at Mon Apr 27 23:11:17 2020

   => Loading Basis Set <=

    Name: CC-PVDZ
    Role: ORBITAL
    Keyword: BASIS
    atoms 1-3, 13-15  entry C          line   138 file /theoryfs2/ds/metcalf/miniconda2/envs/tf2gpu/share/psi4/basis/cc-pvdz.gbs
    atoms 4           entry O          line   198 file /theoryfs2/ds/metcalf/miniconda2/envs/tf2gpu/share/psi4/basis/cc-pvdz.gbs
    atoms 5           entry N          line   168 file /theoryfs2/ds/metcalf/miniconda2/envs/tf2gpu/share/psi4/basis/cc-pvdz.gbs
    atoms 6-12, 16-23 entry H          line    22 file /theoryfs2/ds/metcalf/miniconda2/envs/tf2gpu/share/psi4/basis/cc-pvdz.gbs

         ---------------------------------------------------------
                                   SCF
               by Justin Turney, Rob Parrish, Andy Simmonett
                          and Daniel G. A. Smith
                              RHF Reference
                        1 Threads,    500 MiB Core
         ---------------------------------------------------------

  ==> Geometry <==

    Molecular point group: c1
    Full point group: C1

    Geometry (in Angstrom), charge = 0, multiplicity = 1:

       Center              X                  Y                   Z               Mass
    ------------   -----------------  -----------------  -----------------  -----------------
         C            1.087656659453    -1.280404566364     1.124614562399    12.000000000000
         C            0.003656659453    -1.802404566364     2.043614562399    12.000000000000
         C            0.636656659453    -1.330404566364    -0.322385437601    12.000000000000
         O            1.224656659453    -0.692404566364    -1.177385437601    15.994914619570
         N           -0.449343340547    -2.050404566364    -0.615385437601    14.003074004430
         H            1.311656659453    -0.243404566364     1.379614562399     1.007825032230
         H            1.990656659453    -1.880404566364     1.245614562399     1.007825032230
         H           -0.034343340547    -2.893404566364     1.986614562399     1.007825032230
         H           -0.955343340547    -1.401404566364     1.708614562399     1.007825032230
         H           -0.704343340547    -2.139404566364    -1.594385437601     1.007825032230
         H           -0.984343340547    -2.541404566364     0.084614562399     1.007825032230
         H            0.084236659453    -1.490964566364     3.095524562399     1.007825032230
         C           -0.572343340547     1.886595433636    -0.226385437601    12.000000000000
         C           -0.890343340547     2.356595433636    -1.641385437601    12.000000000000
         C           -0.889343340547     2.903595433636     0.871614562399    12.000000000000
         H           -1.133343340547     0.974595433636    -0.035385437601     1.007825032230
         H            0.488656659453     1.643595433636    -0.162385437601     1.007825032230
         H           -1.939343340547     2.662595433636    -1.671385437601     1.007825032230
         H           -0.256343340547     3.783595433636     0.747614562399     1.007825032230
         H           -1.926343340547     3.227595433636     0.772614562399     1.007825032230
         H           -0.721483340547     1.531205433636    -2.348645437601     1.007825032230
         H           -0.250853340547     3.222345433636    -1.868372437601     1.007825032230
         H           -0.731403340547     2.474685433636     1.872164562399     1.007825032230

  Running in c1 symmetry.

  Rotational constants: A =      0.07774  B =      0.03129  C =      0.02602 [cm^-1]
  Rotational constants: A =   2330.68031  B =    938.19086  C =    780.18620 [MHz]
  Nuclear repulsion =  389.327722385243305

  Charge       = 0
  Multiplicity = 1
  Electrons    = 66
  Nalpha       = 33
  Nbeta        = 33

  ==> Algorithm <==

  SCF Algorithm Type is PK.
  DIIS enabled.
  MOM disabled.
  Fractional occupation disabled.
  Guess Type is SAD.
  Energy threshold   = 1.00e-06
  Density threshold  = 1.00e-10
  Integral threshold = 0.00e+00

  ==> Primary Basis <==

  Basis Set: CC-PVDZ
    Blend: CC-PVDZ
    Number of shells: 93
    Number of basis function: 187
    Number of Cartesian functions: 195
    Spherical Harmonics?: true
    Max angular momentum: 2

  ==> Pre-Iterations <==

   -------------------------------------------------------
    Irrep   Nso     Nmo     Nalpha   Nbeta   Ndocc  Nsocc
   -------------------------------------------------------
     A        187     187       0       0       0       0
   -------------------------------------------------------
    Total     187     187      33      33      33       0
   -------------------------------------------------------

  ==> Integral Setup <==

  Using integral reordering PK algorithm.
  Sizing the integral batches needed.
  Building batch lookup table.
   Calculation information:
      Number of atoms:                  23
      Number of AO shells:              93
      Number of primitives:            251
      Number of atomic orbitals:       195
      Number of basis functions:       187

      Integral cutoff                 1.00e-12
      Number of threads:                 1

	Batch   1 pq = [       0,    9405] index = [             0,44231715] size =     44231715
	Batch   2 pq = [    9405,   13301] index = [      44231715,88464951] size =     44233236
	Batch   3 pq = [   13301,   16290] index = [      88464951,132690195] size =     44225244
	Batch   4 pq = [   16290,   17578] index = [     132690195,154501831] size =     21811636
  Task number: 14
  Buffer size: 11059200
  Buffer per thread: 2
  We computed 8779055 shell quartets total.
  Whereas there are 9555006 unique shell quartets.

  ==> DiskJK: Disk-Based J/K Matrices <==

    J tasked:                  Yes
    K tasked:                  Yes
    wK tasked:                  No
    Memory [MiB]:              375
    Schwarz Cutoff:          1E-12

    OpenMP threads:              1

  Minimum eigenvalue in the overlap matrix is 2.7633420335E-03.
  Using Symmetric Orthogonalization.

  SCF Guess: Superposition of Atomic Densities via on-the-fly atomic UHF.

  ==> Iterations <==

                        Total Energy        Delta E     RMS |[F,P]|

   @RHF iter SAD:  -364.06625980433057   -3.64066e+02   0.00000e+00
   @RHF iter   1:  -365.00646265399274   -9.40203e-01   3.75199e-03 DIIS
   @RHF iter   2:  -365.23290572344536   -2.26443e-01   1.98898e-03 DIIS
   @RHF iter   3:  -365.28878846102009   -5.58827e-02   4.32681e-04 DIIS
   @RHF iter   4:  -365.29282023105935   -4.03177e-03   1.89249e-04 DIIS
   @RHF iter   5:  -365.29354072151500   -7.20490e-04   2.77377e-05 DIIS
   @RHF iter   6:  -365.29357550547087   -3.47840e-05   1.16059e-05 DIIS
   @RHF iter   7:  -365.29358051387158   -5.00840e-06   4.69116e-06 DIIS
   @RHF iter   8:  -365.29358164740728   -1.13354e-06   1.68030e-06 DIIS
   @RHF iter   9:  -365.29358179794099   -1.50534e-07   4.17023e-07 DIIS
   @RHF iter  10:  -365.29358180451737   -6.57639e-09   1.34675e-07 DIIS
   @RHF iter  11:  -365.29358180525031   -7.32939e-10   3.58987e-08 DIIS
   @RHF iter  12:  -365.29358180530045   -5.01359e-11   8.99800e-09 DIIS
   @RHF iter  13:  -365.29358180530193   -1.47793e-12   2.36112e-09 DIIS
   @RHF iter  14:  -365.29358180530232   -3.97904e-13   7.19884e-10 DIIS
   @RHF iter  15:  -365.29358180530306   -7.38964e-13   2.17107e-10 DIIS
   @RHF iter  16:  -365.29358180530096    2.10321e-12   7.78674e-11 DIIS
  Energy and wave function converged.

  ==> Post-Iterations <==

    Orbital Energies [Eh]
    ---------------------

    Doubly Occupied:

       1A    -20.503120     2A    -15.587103     3A    -11.345141
       4A    -11.242246     5A    -11.240044     6A    -11.209974
       7A    -11.205898     8A    -11.205287     9A     -1.373681
      10A     -1.214715    11A     -1.060668    12A     -1.043209
      13A     -0.915042    14A     -0.894542    15A     -0.791771
      16A     -0.784558    17A     -0.735327    18A     -0.651759
      19A     -0.639420    20A     -0.616281    21A     -0.590908
      22A     -0.585813    23A     -0.562477    24A     -0.544097
      25A     -0.538301    26A     -0.522168    27A     -0.516532
      28A     -0.504477    29A     -0.463955    30A     -0.456469
      31A     -0.454967    32A     -0.406937    33A     -0.400555

    Virtual:

      34A      0.156990    35A      0.186109    36A      0.195594
      37A      0.206649    38A      0.217626    39A      0.226222
      40A      0.237676    41A      0.247424    42A      0.254948
      43A      0.268555    44A      0.277431    45A      0.294227
      46A      0.305400    47A      0.315186    48A      0.323829
      49A      0.345183    50A      0.374019    51A      0.384137
      52A      0.413831    53A      0.441404    54A      0.496079
      55A      0.565106    56A      0.583014    57A      0.590983
      58A      0.614704    59A      0.619087    60A      0.630722
      61A      0.646560    62A      0.650174    63A      0.667073
      64A      0.701099    65A      0.735351    66A      0.791541
      67A      0.799993    68A      0.805890    69A      0.810930
      70A      0.824879    71A      0.834769    72A      0.861363
      73A      0.870631    74A      0.879750    75A      0.893303
      76A      0.899210    77A      0.903927    78A      0.906942
      79A      0.910392    80A      0.917255    81A      0.917556
      82A      0.927343    83A      0.944598    84A      0.961476
      85A      0.971339    86A      0.972144    87A      0.981616
      88A      1.005033    89A      1.052990    90A      1.057720
      91A      1.090843    92A      1.121346    93A      1.130621
      94A      1.136907    95A      1.194122    96A      1.220125
      97A      1.277702    98A      1.337539    99A      1.358956
     100A      1.379762   101A      1.388360   102A      1.420629
     103A      1.440150   104A      1.463083   105A      1.484126
     106A      1.496230   107A      1.519666   108A      1.585524
     109A      1.593362   110A      1.659226   111A      1.665169
     112A      1.680749   113A      1.685977   114A      1.693982
     115A      1.709250   116A      1.739690   117A      1.762050
     118A      1.834939   119A      1.842711   120A      1.867790
     121A      1.881769   122A      1.886183   123A      1.891462
     124A      1.907732   125A      1.922592   126A      1.926395
     127A      1.932803   128A      1.941731   129A      1.953747
     130A      1.971383   131A      1.988640   132A      1.995238
     133A      1.998445   134A      2.003951   135A      2.010761
     136A      2.015287   137A      2.020610   138A      2.033120
     139A      2.051273   140A      2.066992   141A      2.095457
     142A      2.102526   143A      2.151541   144A      2.169244
     145A      2.185787   146A      2.242109   147A      2.294267
     148A      2.304775   149A      2.316586   150A      2.335316
     151A      2.339606   152A      2.359571   153A      2.379630
     154A      2.436872   155A      2.484561   156A      2.518537
     157A      2.535632   158A      2.545567   159A      2.555782
     160A      2.577005   161A      2.598930   162A      2.603561
     163A      2.620874   164A      2.640222   165A      2.644262
     166A      2.738739   167A      2.750675   168A      2.762188
     169A      2.772216   170A      2.788999   171A      2.817663
     172A      2.838104   173A      2.879210   174A      2.904288
     175A      2.934581   176A      2.965854   177A      2.975051
     178A      2.991896   179A      3.045326   180A      3.099056
     181A      3.102460   182A      3.146655   183A      3.288708
     184A      3.516027   185A      3.550144   186A      3.881385
     187A      3.924333

    Final Occupation by Irrep:
              A
    DOCC [    33 ]

  @RHF Final Energy:  -365.29358180530096

   => Energetics <=

    Nuclear Repulsion Energy =            389.3277223852433053
    One-Electron Energy =               -1267.6277180547883745
    Two-Electron Energy =                 513.0064138642441094
    Total Energy =                       -365.2935818053009598

Computation Completed

Properties will be evaluated at   0.000000,   0.000000,   0.000000 [a0]

Properties computed using the SCF density matrix

  Nuclear Dipole Moment: [e a0]
     X:    -5.3948      Y:     6.4991      Z:     4.8826

  Electronic Dipole Moment: [e a0]
     X:     4.5416      Y:    -7.5655      Z:    -3.9764

  Dipole Moment: [e a0]
     X:    -0.8532      Y:    -1.0663      Z:     0.9062     Total:     1.6390

  Dipole Moment: [D]
     X:    -2.1685      Y:    -2.7103      Z:     2.3034     Total:     4.1658

*** tstop() called on ds3 at Mon Apr 27 23:12:39 2020
Module time:
	user time   =      56.95 seconds =       0.95 minutes
	system time =      28.38 seconds =       0.47 minutes
	total time  =         82 seconds =       1.37 minutes
Total time:
	user time   =      56.95 seconds =       0.95 minutes
	system time =      28.38 seconds =       0.47 minutes
	total time  =         82 seconds =       1.37 minutes
                                     G D M A

                                 by Anthony Stone

                           version 2.2.06, 22 June 2011

               Distributed Multipoles from Gaussian wavefunctions

Starting at 23:12:39 on 27 Apr 2020

Using SCF density matrix from file ./SSI/SSI-019GLN-026GLU-1-dimer.test.1519.fchk

                         Distributed Multipole Analysis

Standard DMA

Positions and radii in angstrom
Multipole moments in atomic units, ea_0^k for rank k

C          x =  1.087657  y = -1.280405  z =  1.124615 angstrom
           Maximum rank =  0   Radius =  0.650 angstrom
                   Q00  =  -0.096298

C          x =  0.003657  y = -1.802405  z =  2.043615 angstrom
           Maximum rank =  0   Radius =  0.650 angstrom
                   Q00  =  -0.276789

C          x =  0.636657  y = -1.330405  z = -0.322385 angstrom
           Maximum rank =  0   Radius =  0.650 angstrom
                   Q00  =   0.820931

O          x =  1.224657  y = -0.692405  z = -1.177385 angstrom
           Maximum rank =  0   Radius =  0.650 angstrom
                   Q00  =  -0.769979

N          x = -0.449343  y = -2.050405  z = -0.615385 angstrom
           Maximum rank =  0   Radius =  0.650 angstrom
                   Q00  =  -0.564547

H          x =  1.311657  y = -0.243405  z =  1.379615 angstrom
           Maximum rank =  0   Radius =  0.325 angstrom
                   Q00  =   0.103663

H          x =  1.990657  y = -1.880405  z =  1.245615 angstrom
           Maximum rank =  0   Radius =  0.325 angstrom
                   Q00  =   0.103990

H          x = -0.034343  y = -2.893405  z =  1.986615 angstrom
           Maximum rank =  0   Radius =  0.325 angstrom
                   Q00  =   0.073443

H          x = -0.955343  y = -1.401405  z =  1.708615 angstrom
           Maximum rank =  0   Radius =  0.325 angstrom
                   Q00  =   0.066876

H          x = -0.704343  y = -2.139405  z = -1.594385 angstrom
           Maximum rank =  0   Radius =  0.325 angstrom
                   Q00  =   0.219846

H          x = -0.984343  y = -2.541405  z =  0.084615 angstrom
           Maximum rank =  0   Radius =  0.325 angstrom
                   Q00  =   0.215578

H          x =  0.084237  y = -1.490965  z =  3.095525 angstrom
           Maximum rank =  0   Radius =  0.325 angstrom
                   Q00  =   0.110187

C          x = -0.572343  y =  1.886595  z = -0.226385 angstrom
           Maximum rank =  0   Radius =  0.650 angstrom
                   Q00  =  -0.069225

C          x = -0.890343  y =  2.356595  z = -1.641385 angstrom
           Maximum rank =  0   Radius =  0.650 angstrom
                   Q00  =  -0.222480

C          x = -0.889343  y =  2.903595  z =  0.871615 angstrom
           Maximum rank =  0   Radius =  0.650 angstrom
                   Q00  =  -0.257473

H          x = -1.133343  y =  0.974595  z = -0.035385 angstrom
           Maximum rank =  0   Radius =  0.325 angstrom
                   Q00  =   0.024460

H          x =  0.488657  y =  1.643595  z = -0.162385 angstrom
           Maximum rank =  0   Radius =  0.325 angstrom
                   Q00  =   0.058319

H          x = -1.939343  y =  2.662595  z = -1.671385 angstrom
           Maximum rank =  0   Radius =  0.325 angstrom
                   Q00  =   0.063058

H          x = -0.256343  y =  3.783595  z =  0.747615 angstrom
           Maximum rank =  0   Radius =  0.325 angstrom
                   Q00  =   0.077277

H          x = -1.926343  y =  3.227595  z =  0.772615 angstrom
           Maximum rank =  0   Radius =  0.325 angstrom
                   Q00  =   0.071486

H          x = -0.721483  y =  1.531205  z = -2.348645 angstrom
           Maximum rank =  0   Radius =  0.325 angstrom
                   Q00  =   0.096086

H          x = -0.250853  y =  3.222345  z = -1.868372 angstrom
           Maximum rank =  0   Radius =  0.325 angstrom
                   Q00  =   0.074972

H          x = -0.731403  y =  2.474685  z =  1.872165 angstrom
           Maximum rank =  0   Radius =  0.325 angstrom
                   Q00  =   0.076618

Total multipoles referred to origin at
           x =   0.000000,  y =    0.000000,  z =    0.000000 angstrom
                   Q00  =  -0.000000

Finished at 23:12:39 on 27 Apr 2020

  DMA results are available in the Python driver through the
	  variable('DMA DISTRIBUTED MULTIPOLES')
  and
	  variable('DMA TOTAL MULTIPOLES')
  commands.

    Psi4 stopped on: Monday, 27 April 2020 11:12PM
    Psi4 wall time for execution: 0:01:21.74

*** Psi4 exiting successfully. Buy a developer a beer!
