                               Psi4 1.3.2 release

  ==> Input File <==

--------------------------------------------------------------------------
import numpy as np
set {scf_type pk
basis cc-pvdz
d_convergence 10
gdma_switch   0
gdma_limit    0
gdma_origin   [ 0.0,  0.0,  0.0 ]
}
molecule test {
    units Angstrom
    0 1
    --
    0 1
    C                1.677202127825354     1.993697668200089    -2.387892159139636
    C                2.168202127825354     2.444697668200090    -3.769892159139637
    H                1.356202127825354     0.954697668200089    -2.407892159139637
    H                2.484202127825354     2.091697668200089    -1.662892159139637
    H                0.839202127825354     2.613697668200090    -2.068892159139637
    H                3.019202127825354     1.826697668200089    -4.046892159139636
    H                1.376468127825354     2.297017668200089    -4.519122159139636
    H                2.489672127825354     3.496517668200089    -3.751832159139637
    C                0.721202127825354     0.785697668200089     3.112107840860364
    C               -0.718797872174646     0.052697668200089    -0.349892159139637
    C               -1.126797872174646    -1.265302331799911    -0.199892159139637
    C               -0.123797872174646     0.722697668200089     0.722107840860363
    C                0.077202127825354     0.078697668200089     1.941107840860363
    C               -0.925797872174646    -1.913302331799911     1.012107840860363
    C               -0.320797872174646    -1.246302331799911     2.067107840860363
    O               -1.717797872174646    -1.928302331799911    -1.242892159139637
    H               -0.871797872174646     0.556697668200089    -1.292892159139637
    H                0.196202127825354     1.748697668200089     0.596107840860363
    H               -1.229797872174646    -2.942302331799910     1.128107840860363
    H               -1.972797872174646    -2.825302331799910    -1.000892159139637
    H                1.068202127825354     1.773697668200089     2.805107840860363
    H                1.599202127825354     0.206697668200089     3.401107840860364
    H               -0.151797872174646    -1.769302331799911     2.998107840860363
    H                0.059537127825354     0.889037668200089     3.984757840860363

}
e, wfn = energy('scf', return_wfn=True)
gdma(wfn)
dmavals = variable('DMA DISTRIBUTED MULTIPOLES')
charges = np.array(dmavals)
print(charges)
np.save('SSI-083VAL-140TYR-1-dimer.npy', np.array(charges))--------------------------------------------------------------------------

*** tstart() called on ds3
*** at Mon Apr 27 06:50:40 2020

   => Loading Basis Set <=

    Name: CC-PVDZ
    Role: ORBITAL
    Keyword: BASIS
    atoms 1-2, 9-15  entry C          line   138 file /theoryfs2/ds/metcalf/miniconda2/envs/tf2gpu/share/psi4/basis/cc-pvdz.gbs
    atoms 3-8, 17-24 entry H          line    22 file /theoryfs2/ds/metcalf/miniconda2/envs/tf2gpu/share/psi4/basis/cc-pvdz.gbs
    atoms 16         entry O          line   198 file /theoryfs2/ds/metcalf/miniconda2/envs/tf2gpu/share/psi4/basis/cc-pvdz.gbs

         ---------------------------------------------------------
                                   SCF
               by Justin Turney, Rob Parrish, Andy Simmonett
                          and Daniel G. A. Smith
                              RHF Reference
                        1 Threads,    500 MiB Core
         ---------------------------------------------------------

  ==> Geometry <==

    Molecular point group: c1
    Full point group: C1

    Geometry (in Angstrom), charge = 0, multiplicity = 1:

       Center              X                  Y                   Z               Mass
    ------------   -----------------  -----------------  -----------------  -----------------
         C            1.677202127825     1.993697668200    -2.387892159140    12.000000000000
         C            2.168202127825     2.444697668200    -3.769892159140    12.000000000000
         H            1.356202127825     0.954697668200    -2.407892159140     1.007825032230
         H            2.484202127825     2.091697668200    -1.662892159140     1.007825032230
         H            0.839202127825     2.613697668200    -2.068892159140     1.007825032230
         H            3.019202127825     1.826697668200    -4.046892159140     1.007825032230
         H            1.376468127825     2.297017668200    -4.519122159140     1.007825032230
         H            2.489672127825     3.496517668200    -3.751832159140     1.007825032230
         C            0.721202127825     0.785697668200     3.112107840860    12.000000000000
         C           -0.718797872175     0.052697668200    -0.349892159140    12.000000000000
         C           -1.126797872175    -1.265302331800    -0.199892159140    12.000000000000
         C           -0.123797872175     0.722697668200     0.722107840860    12.000000000000
         C            0.077202127825     0.078697668200     1.941107840860    12.000000000000
         C           -0.925797872175    -1.913302331800     1.012107840860    12.000000000000
         C           -0.320797872175    -1.246302331800     2.067107840860    12.000000000000
         O           -1.717797872175    -1.928302331800    -1.242892159140    15.994914619570
         H           -0.871797872175     0.556697668200    -1.292892159140     1.007825032230
         H            0.196202127825     1.748697668200     0.596107840860     1.007825032230
         H           -1.229797872175    -2.942302331800     1.128107840860     1.007825032230
         H           -1.972797872175    -2.825302331800    -1.000892159140     1.007825032230
         H            1.068202127825     1.773697668200     2.805107840860     1.007825032230
         H            1.599202127825     0.206697668200     3.401107840860     1.007825032230
         H           -0.151797872175    -1.769302331800     2.998107840860     1.007825032230
         H            0.059537127825     0.889037668200     3.984757840860     1.007825032230

  Running in c1 symmetry.

  Rotational constants: A =      0.04604  B =      0.02069  C =      0.01485 [cm^-1]
  Rotational constants: A =   1380.23610  B =    620.26670  C =    445.20752 [MHz]
  Nuclear repulsion =  485.537293067479311

  Charge       = 0
  Multiplicity = 1
  Electrons    = 76
  Nalpha       = 38
  Nbeta        = 38

  ==> Algorithm <==

  SCF Algorithm Type is PK.
  DIIS enabled.
  MOM disabled.
  Fractional occupation disabled.
  Guess Type is SAD.
  Energy threshold   = 1.00e-06
  Density threshold  = 1.00e-10
  Integral threshold = 0.00e+00

  ==> Primary Basis <==

  Basis Set: CC-PVDZ
    Blend: CC-PVDZ
    Number of shells: 102
    Number of basis function: 210
    Number of Cartesian functions: 220
    Spherical Harmonics?: true
    Max angular momentum: 2

  ==> Pre-Iterations <==

   -------------------------------------------------------
    Irrep   Nso     Nmo     Nalpha   Nbeta   Ndocc  Nsocc
   -------------------------------------------------------
     A        210     210       0       0       0       0
   -------------------------------------------------------
    Total     210     210      38      38      38       0
   -------------------------------------------------------

  ==> Integral Setup <==

  Using integral reordering PK algorithm.
  Sizing the integral batches needed.
  Building batch lookup table.
   Calculation information:
      Number of atoms:                  24
      Number of AO shells:             102
      Number of primitives:            290
      Number of atomic orbitals:       220
      Number of basis functions:       210

      Integral cutoff                 1.00e-12
      Number of threads:                 1

	Batch   1 pq = [       0,    9405] index = [             0,44231715] size =     44231715
	Batch   2 pq = [    9405,   13301] index = [      44231715,88464951] size =     44233236
	Batch   3 pq = [   13301,   16290] index = [      88464951,132690195] size =     44225244
	Batch   4 pq = [   16290,   18810] index = [     132690195,176917455] size =     44227260
	Batch   5 pq = [   18810,   21030] index = [     176917455,221140965] size =     44223510
	Batch   6 pq = [   21030,   22155] index = [     221140965,245433090] size =     24292125
  Task number: 23
  Buffer size: 11059200
  Buffer per thread: 2
  We computed 10592984 shell quartets total.
  Whereas there are 13799631 unique shell quartets.

  ==> DiskJK: Disk-Based J/K Matrices <==

    J tasked:                  Yes
    K tasked:                  Yes
    wK tasked:                  No
    Memory [MiB]:              375
    Schwarz Cutoff:          1E-12

    OpenMP threads:              1

  Minimum eigenvalue in the overlap matrix is 3.1868032674E-04.
  Using Symmetric Orthogonalization.

  SCF Guess: Superposition of Atomic Densities via on-the-fly atomic UHF.

  ==> Iterations <==

                        Total Energy        Delta E     RMS |[F,P]|

   @RHF iter SAD:  -422.67646866287100   -4.22676e+02   0.00000e+00
   @RHF iter   1:  -423.60245058784324   -9.25982e-01   2.97949e-03 DIIS
   @RHF iter   2:  -423.81911898070211   -2.16668e-01   1.25644e-03 DIIS
   @RHF iter   3:  -423.85394774575315   -3.48288e-02   2.83686e-04 DIIS
   @RHF iter   4:  -423.85680976817105   -2.86202e-03   1.16859e-04 DIIS
   @RHF iter   5:  -423.85716015020574   -3.50382e-04   2.07498e-05 DIIS
   @RHF iter   6:  -423.85717746718149   -1.73170e-05   6.32188e-06 DIIS
   @RHF iter   7:  -423.85717904149391   -1.57431e-06   2.01251e-06 DIIS
   @RHF iter   8:  -423.85717924239663   -2.00903e-07   7.37746e-07 DIIS
   @RHF iter   9:  -423.85717927087376   -2.84771e-08   2.62395e-07 DIIS
   @RHF iter  10:  -423.85717927526946   -4.39570e-09   1.01826e-07 DIIS
   @RHF iter  11:  -423.85717927640337   -1.13391e-09   4.55496e-08 DIIS
   @RHF iter  12:  -423.85717927666894   -2.65572e-10   2.49414e-08 DIIS
   @RHF iter  13:  -423.85717927673727   -6.83258e-11   7.74184e-09 DIIS
   @RHF iter  14:  -423.85717927673738   -1.13687e-13   2.06185e-09 DIIS
   @RHF iter  15:  -423.85717927674176   -4.37694e-12   7.31581e-10 DIIS
   @RHF iter  16:  -423.85717927673966    2.10321e-12   2.50954e-10 DIIS
   @RHF iter  17:  -423.85717927673903    6.25278e-13   1.16162e-10 DIIS
   @RHF iter  18:  -423.85717927674068   -1.64846e-12   5.90155e-11 DIIS
  Energy and wave function converged.

  ==> Post-Iterations <==

    Orbital Energies [Eh]
    ---------------------

    Doubly Occupied:

       1A    -20.581699     2A    -11.297629     3A    -11.237392
       4A    -11.236640     5A    -11.232479     6A    -11.232141
       7A    -11.228870     8A    -11.228305     9A    -11.217297
      10A    -11.214336    11A     -1.395434    12A     -1.151467
      13A     -1.037169    14A     -1.017600    15A     -1.014176
      16A     -0.926094    17A     -0.843717    18A     -0.835928
      19A     -0.800901    20A     -0.730400    21A     -0.667799
      22A     -0.639546    23A     -0.606757    24A     -0.595680
      25A     -0.594725    26A     -0.585017    27A     -0.584650
      28A     -0.569097    29A     -0.565662    30A     -0.527050
      31A     -0.498684    32A     -0.496045    33A     -0.487323
      34A     -0.483375    35A     -0.481317    36A     -0.466820
      37A     -0.337601    38A     -0.302247

    Virtual:

      39A      0.130742    40A      0.157082    41A      0.178482
      42A      0.180820    43A      0.192430    44A      0.213726
      45A      0.221846    46A      0.246051    47A      0.254998
      48A      0.260915    49A      0.270037    50A      0.274924
      51A      0.281220    52A      0.290473    53A      0.298888
      54A      0.316709    55A      0.369593    56A      0.378501
      57A      0.401692    58A      0.427943    59A      0.454016
      60A      0.491725    61A      0.496154    62A      0.509977
      63A      0.597687    64A      0.601757    65A      0.606048
      66A      0.619070    67A      0.632836    68A      0.649579
      69A      0.663632    70A      0.688107    71A      0.693398
      72A      0.695346    73A      0.703783    74A      0.721543
      75A      0.733340    76A      0.737954    77A      0.769892
      78A      0.776681    79A      0.778411    80A      0.790748
      81A      0.793898    82A      0.818219    83A      0.840495
      84A      0.846360    85A      0.879925    86A      0.884121
      87A      0.894696    88A      0.895017    89A      0.896554
      90A      0.899626    91A      0.911279    92A      0.917005
      93A      0.922329    94A      0.925617    95A      0.939105
      96A      0.945246    97A      0.951407    98A      0.968471
      99A      0.989605   100A      1.018454   101A      1.034345
     102A      1.063506   103A      1.113943   104A      1.127689
     105A      1.143952   106A      1.146024   107A      1.157695
     108A      1.179259   109A      1.211710   110A      1.234933
     111A      1.248116   112A      1.252878   113A      1.275430
     114A      1.289572   115A      1.292289   116A      1.313215
     117A      1.319145   118A      1.361705   119A      1.364822
     120A      1.385345   121A      1.470753   122A      1.482573
     123A      1.493120   124A      1.513506   125A      1.523634
     126A      1.556047   127A      1.586376   128A      1.620316
     129A      1.625423   130A      1.683386   131A      1.684278
     132A      1.689201   133A      1.698964   134A      1.732275
     135A      1.749294   136A      1.784911   137A      1.804740
     138A      1.808883   139A      1.859396   140A      1.875420
     141A      1.883618   142A      1.890500   143A      1.898480
     144A      1.900964   145A      1.912948   146A      1.924509
     147A      1.928164   148A      1.947692   149A      1.950396
     150A      1.951572   151A      1.954140   152A      1.958233
     153A      1.964343   154A      1.972041   155A      1.998964
     156A      2.014359   157A      2.025988   158A      2.051260
     159A      2.064881   160A      2.071229   161A      2.080556
     162A      2.093739   163A      2.117684   164A      2.130299
     165A      2.150813   166A      2.190110   167A      2.197741
     168A      2.224570   169A      2.260520   170A      2.273966
     171A      2.299682   172A      2.307258   173A      2.342319
     174A      2.366897   175A      2.373920   176A      2.397010
     177A      2.454368   178A      2.457060   179A      2.467247
     180A      2.486728   181A      2.510241   182A      2.526093
     183A      2.538628   184A      2.559879   185A      2.574521
     186A      2.615555   187A      2.644414   188A      2.747643
     189A      2.763776   190A      2.771474   191A      2.790954
     192A      2.794290   193A      2.817844   194A      2.844823
     195A      2.851809   196A      2.864745   197A      2.891771
     198A      2.949888   199A      2.962758   200A      2.968630
     201A      3.008105   202A      3.090311   203A      3.124253
     204A      3.248983   205A      3.290003   206A      3.345150
     207A      3.571808   208A      3.669058   209A      3.976708
     210A      4.190254

    Final Occupation by Irrep:
              A
    DOCC [    38 ]

  @RHF Final Energy:  -423.85717927674068

   => Energetics <=

    Nuclear Repulsion Energy =            485.5372930674793110
    One-Electron Energy =               -1536.8907991404321365
    Two-Electron Energy =                 627.4963267962120881
    Total Energy =                       -423.8571792767406805

Computation Completed

Properties will be evaluated at   0.000000,   0.000000,   0.000000 [a0]

Properties computed using the SCF density matrix

  Nuclear Dipole Moment: [e a0]
     X:     9.6120      Y:    10.2263      Z:    -5.4789

  Electronic Dipole Moment: [e a0]
     X:    -9.5619      Y:   -10.6066      Z:     5.9569

  Dipole Moment: [e a0]
     X:     0.0501      Y:    -0.3804      Z:     0.4780     Total:     0.6129

  Dipole Moment: [D]
     X:     0.1273      Y:    -0.9668      Z:     1.2148     Total:     1.5578

*** tstop() called on ds3 at Mon Apr 27 06:52:46 2020
Module time:
	user time   =      82.05 seconds =       1.37 minutes
	system time =      41.95 seconds =       0.70 minutes
	total time  =        126 seconds =       2.10 minutes
Total time:
	user time   =      82.05 seconds =       1.37 minutes
	system time =      41.95 seconds =       0.70 minutes
	total time  =        126 seconds =       2.10 minutes
                                     G D M A

                                 by Anthony Stone

                           version 2.2.06, 22 June 2011

               Distributed Multipoles from Gaussian wavefunctions

Starting at 6:52:46 on 27 Apr 2020

Using SCF density matrix from file ./SSI/SSI-083VAL-140TYR-1-dimer.test.4261.fchk

                         Distributed Multipole Analysis

Standard DMA

Positions and radii in angstrom
Multipole moments in atomic units, ea_0^k for rank k

C          x =  1.677202  y =  1.993698  z = -2.387892 angstrom
           Maximum rank =  0   Radius =  0.650 angstrom
                   Q00  =  -0.237283

C          x =  2.168202  y =  2.444698  z = -3.769892 angstrom
           Maximum rank =  0   Radius =  0.650 angstrom
                   Q00  =  -0.241589

H          x =  1.356202  y =  0.954698  z = -2.407892 angstrom
           Maximum rank =  0   Radius =  0.325 angstrom
                   Q00  =   0.089276

H          x =  2.484202  y =  2.091698  z = -1.662892 angstrom
           Maximum rank =  0   Radius =  0.325 angstrom
                   Q00  =   0.078898

H          x =  0.839202  y =  2.613698  z = -2.068892 angstrom
           Maximum rank =  0   Radius =  0.325 angstrom
                   Q00  =   0.071953

H          x =  3.019202  y =  1.826698  z = -4.046892 angstrom
           Maximum rank =  0   Radius =  0.325 angstrom
                   Q00  =   0.079667

H          x =  1.376468  y =  2.297018  z = -4.519122 angstrom
           Maximum rank =  0   Radius =  0.325 angstrom
                   Q00  =   0.079971

H          x =  2.489672  y =  3.496518  z = -3.751832 angstrom
           Maximum rank =  0   Radius =  0.325 angstrom
                   Q00  =   0.079546

C          x =  0.721202  y =  0.785698  z =  3.112108 angstrom
           Maximum rank =  0   Radius =  0.650 angstrom
                   Q00  =  -0.201996

C          x = -0.718798  y =  0.052698  z = -0.349892 angstrom
           Maximum rank =  0   Radius =  0.650 angstrom
                   Q00  =  -0.124885

C          x = -1.126798  y = -1.265302  z = -0.199892 angstrom
           Maximum rank =  0   Radius =  0.650 angstrom
                   Q00  =   0.337246

C          x = -0.123798  y =  0.722698  z =  0.722108 angstrom
           Maximum rank =  0   Radius =  0.650 angstrom
                   Q00  =  -0.011211

C          x =  0.077202  y =  0.078698  z =  1.941108 angstrom
           Maximum rank =  0   Radius =  0.650 angstrom
                   Q00  =  -0.137516

C          x = -0.925798  y = -1.913302  z =  1.012108 angstrom
           Maximum rank =  0   Radius =  0.650 angstrom
                   Q00  =  -0.194158

C          x = -0.320798  y = -1.246302  z =  2.067108 angstrom
           Maximum rank =  0   Radius =  0.650 angstrom
                   Q00  =   0.034525

O          x = -1.717798  y = -1.928302  z = -1.242892 angstrom
           Maximum rank =  0   Radius =  0.650 angstrom
                   Q00  =  -0.684583

H          x = -0.871798  y =  0.556698  z = -1.292892 angstrom
           Maximum rank =  0   Radius =  0.325 angstrom
                   Q00  =   0.080872

H          x =  0.196202  y =  1.748698  z =  0.596108 angstrom
           Maximum rank =  0   Radius =  0.325 angstrom
                   Q00  =   0.066576

H          x = -1.229798  y = -2.942302  z =  1.128108 angstrom
           Maximum rank =  0   Radius =  0.325 angstrom
                   Q00  =   0.070073

H          x = -1.972798  y = -2.825302  z = -1.000892 angstrom
           Maximum rank =  0   Radius =  0.325 angstrom
                   Q00  =   0.405919

H          x =  1.068202  y =  1.773698  z =  2.805108 angstrom
           Maximum rank =  0   Radius =  0.325 angstrom
                   Q00  =   0.097700

H          x =  1.599202  y =  0.206698  z =  3.401108 angstrom
           Maximum rank =  0   Radius =  0.325 angstrom
                   Q00  =   0.096155

H          x = -0.151798  y = -1.769302  z =  2.998108 angstrom
           Maximum rank =  0   Radius =  0.325 angstrom
                   Q00  =   0.065303

H          x =  0.059537  y =  0.889038  z =  3.984758 angstrom
           Maximum rank =  0   Radius =  0.325 angstrom
                   Q00  =   0.099541

Total multipoles referred to origin at
           x =   0.000000,  y =    0.000000,  z =    0.000000 angstrom
                   Q00  =  -0.000000

Finished at 6:52:46 on 27 Apr 2020

  DMA results are available in the Python driver through the
	  variable('DMA DISTRIBUTED MULTIPOLES')
  and
	  variable('DMA TOTAL MULTIPOLES')
  commands.

    Psi4 stopped on: Monday, 27 April 2020 06:52AM
    Psi4 wall time for execution: 0:02:06.31

*** Psi4 exiting successfully. Buy a developer a beer!
