                               Psi4 1.3.2 release

  ==> Input File <==

--------------------------------------------------------------------------
import numpy as np
set {scf_type pk
basis cc-pvdz
d_convergence 10
gdma_switch   0
gdma_limit    0
gdma_origin   [ 0.0,  0.0,  0.0 ]
}
molecule test {
    units Angstrom
    0 1
    --
    0 1
    C                0.076052148877466     3.117826643029650     1.005795570938015
    C               -0.921947851122534    -0.367173356970349     1.119795570938015
    C               -0.585947851122534     1.787826643029651     0.824795570938015
    C               -1.628947851122534     1.413826643029651     0.036795570938015
    N               -0.167947851122534     0.653826643029651     1.490795570938015
    N               -1.820947851122534     0.063826643029651     0.240795570938015
    H               -0.797947851122534    -1.391173356970349     1.453795570938015
    H               -2.503947851122534    -0.522173356970349    -0.225204429061985
    H               -2.197947851122534     2.054826643029651    -0.614204429061985
    H                0.881052148877466     3.205826643029650     0.286795570938015
    H                0.535052148877466     3.090826643029651     1.990795570938015
    H               -0.595567851122534     3.986476643029651     0.939640570938015
    C                1.048052148877466    -2.281173356970350    -1.554204429061985
    C                1.640052148877466    -1.043173356970349    -2.241204429061985
    C                1.996052148877466    -2.943173356970349    -0.564204429061985
    H                0.125052148877466    -2.010173356970350    -1.041204429061985
    H                0.795052148877466    -3.029173356970349    -2.301204429061985
    H                2.616052148877466    -1.311173356970349    -2.640204429061985
    H                2.086052148877465    -2.343173356970349     0.340795570938015
    H                1.606052148877466    -3.920173356970349    -0.292204429061985
    H                2.978052148877466    -3.081173356970349    -1.016204429061985
    H                0.997949148877466    -0.726050356970349    -3.076152429061985
    H                1.780329148877466    -0.221652356970349    -1.523272429061985

}
e, wfn = energy('scf', return_wfn=True)
gdma(wfn)
dmavals = variable('DMA DISTRIBUTED MULTIPOLES')
charges = np.array(dmavals)
print(charges)
np.save('SSI-196HIE-249ILE-1-dimer.npy', np.array(charges))--------------------------------------------------------------------------

*** tstart() called on ds3
*** at Tue Apr 28 04:12:29 2020

   => Loading Basis Set <=

    Name: CC-PVDZ
    Role: ORBITAL
    Keyword: BASIS
    atoms 1-4, 13-15  entry C          line   138 file /theoryfs2/ds/metcalf/miniconda2/envs/tf2gpu/share/psi4/basis/cc-pvdz.gbs
    atoms 5-6         entry N          line   168 file /theoryfs2/ds/metcalf/miniconda2/envs/tf2gpu/share/psi4/basis/cc-pvdz.gbs
    atoms 7-12, 16-23 entry H          line    22 file /theoryfs2/ds/metcalf/miniconda2/envs/tf2gpu/share/psi4/basis/cc-pvdz.gbs

         ---------------------------------------------------------
                                   SCF
               by Justin Turney, Rob Parrish, Andy Simmonett
                          and Daniel G. A. Smith
                              RHF Reference
                        1 Threads,    500 MiB Core
         ---------------------------------------------------------

  ==> Geometry <==

    Molecular point group: c1
    Full point group: C1

    Geometry (in Angstrom), charge = 0, multiplicity = 1:

       Center              X                  Y                   Z               Mass
    ------------   -----------------  -----------------  -----------------  -----------------
         C            0.076052148877     3.117826643030     1.005795570938    12.000000000000
         C           -0.921947851123    -0.367173356970     1.119795570938    12.000000000000
         C           -0.585947851123     1.787826643030     0.824795570938    12.000000000000
         C           -1.628947851123     1.413826643030     0.036795570938    12.000000000000
         N           -0.167947851123     0.653826643030     1.490795570938    14.003074004430
         N           -1.820947851123     0.063826643030     0.240795570938    14.003074004430
         H           -0.797947851123    -1.391173356970     1.453795570938     1.007825032230
         H           -2.503947851123    -0.522173356970    -0.225204429062     1.007825032230
         H           -2.197947851123     2.054826643030    -0.614204429062     1.007825032230
         H            0.881052148877     3.205826643030     0.286795570938     1.007825032230
         H            0.535052148877     3.090826643030     1.990795570938     1.007825032230
         H           -0.595567851123     3.986476643030     0.939640570938     1.007825032230
         C            1.048052148877    -2.281173356970    -1.554204429062    12.000000000000
         C            1.640052148877    -1.043173356970    -2.241204429062    12.000000000000
         C            1.996052148877    -2.943173356970    -0.564204429062    12.000000000000
         H            0.125052148877    -2.010173356970    -1.041204429062     1.007825032230
         H            0.795052148877    -3.029173356970    -2.301204429062     1.007825032230
         H            2.616052148877    -1.311173356970    -2.640204429062     1.007825032230
         H            2.086052148877    -2.343173356970     0.340795570938     1.007825032230
         H            1.606052148877    -3.920173356970    -0.292204429062     1.007825032230
         H            2.978052148877    -3.081173356970    -1.016204429062     1.007825032230
         H            0.997949148877    -0.726050356970    -3.076152429062     1.007825032230
         H            1.780329148877    -0.221652356970    -1.523272429062     1.007825032230

  Running in c1 symmetry.

  Rotational constants: A =      0.07762  B =      0.02261  C =      0.02133 [cm^-1]
  Rotational constants: A =   2327.01472  B =    677.72212  C =    639.54162 [MHz]
  Nuclear repulsion =  431.965008795881829

  Charge       = 0
  Multiplicity = 1
  Electrons    = 70
  Nalpha       = 35
  Nbeta        = 35

  ==> Algorithm <==

  SCF Algorithm Type is PK.
  DIIS enabled.
  MOM disabled.
  Fractional occupation disabled.
  Guess Type is SAD.
  Energy threshold   = 1.00e-06
  Density threshold  = 1.00e-10
  Integral threshold = 0.00e+00

  ==> Primary Basis <==

  Basis Set: CC-PVDZ
    Blend: CC-PVDZ
    Number of shells: 96
    Number of basis function: 196
    Number of Cartesian functions: 205
    Spherical Harmonics?: true
    Max angular momentum: 2

  ==> Pre-Iterations <==

   -------------------------------------------------------
    Irrep   Nso     Nmo     Nalpha   Nbeta   Ndocc  Nsocc
   -------------------------------------------------------
     A        196     196       0       0       0       0
   -------------------------------------------------------
    Total     196     196      35      35      35       0
   -------------------------------------------------------

  ==> Integral Setup <==

  Using integral reordering PK algorithm.
  Sizing the integral batches needed.
  Building batch lookup table.
   Calculation information:
      Number of atoms:                  23
      Number of AO shells:              96
      Number of primitives:            268
      Number of atomic orbitals:       205
      Number of basis functions:       196

      Integral cutoff                 1.00e-12
      Number of threads:                 1

	Batch   1 pq = [       0,    9405] index = [             0,44231715] size =     44231715
	Batch   2 pq = [    9405,   13301] index = [      44231715,88464951] size =     44233236
	Batch   3 pq = [   13301,   16290] index = [      88464951,132690195] size =     44225244
	Batch   4 pq = [   16290,   18810] index = [     132690195,176917455] size =     44227260
	Batch   5 pq = [   18810,   19306] index = [     176917455,186370471] size =      9453016
  Task number: 17
  Buffer size: 11059200
  Buffer per thread: 2
  We computed 9202549 shell quartets total.
  Whereas there are 10841496 unique shell quartets.

  ==> DiskJK: Disk-Based J/K Matrices <==

    J tasked:                  Yes
    K tasked:                  Yes
    wK tasked:                  No
    Memory [MiB]:              375
    Schwarz Cutoff:          1E-12

    OpenMP threads:              1

  Minimum eigenvalue in the overlap matrix is 1.1910355887E-03.
  Using Symmetric Orthogonalization.

  SCF Guess: Superposition of Atomic Densities via on-the-fly atomic UHF.

  ==> Iterations <==

                        Total Energy        Delta E     RMS |[F,P]|

   @RHF iter SAD:  -381.22994041359647   -3.81230e+02   0.00000e+00
   @RHF iter   1:  -381.89274409510642   -6.62804e-01   3.14894e-03 DIIS
   @RHF iter   2:  -382.09150838911080   -1.98764e-01   1.58164e-03 DIIS
   @RHF iter   3:  -382.13749352534785   -4.59851e-02   3.95821e-04 DIIS
   @RHF iter   4:  -382.14130996853294   -3.81644e-03   1.70574e-04 DIIS
   @RHF iter   5:  -382.14193505783078   -6.25089e-04   2.51055e-05 DIIS
   @RHF iter   6:  -382.14195838165318   -2.33238e-05   1.03199e-05 DIIS
   @RHF iter   7:  -382.14196209565284   -3.71400e-06   3.57747e-06 DIIS
   @RHF iter   8:  -382.14196284841080   -7.52758e-07   1.49021e-06 DIIS
   @RHF iter   9:  -382.14196301561390   -1.67203e-07   5.33326e-07 DIIS
   @RHF iter  10:  -382.14196303358528   -1.79714e-08   1.56822e-07 DIIS
   @RHF iter  11:  -382.14196303550602   -1.92074e-09   6.79808e-08 DIIS
   @RHF iter  12:  -382.14196303574022   -2.34195e-10   2.85676e-08 DIIS
   @RHF iter  13:  -382.14196303578285   -4.26326e-11   8.93274e-09 DIIS
   @RHF iter  14:  -382.14196303578899   -6.13909e-12   2.94331e-09 DIIS
   @RHF iter  15:  -382.14196303579115   -2.16005e-12   1.12020e-09 DIIS
   @RHF iter  16:  -382.14196303578791    3.24007e-12   4.09738e-10 DIIS
   @RHF iter  17:  -382.14196303578967   -1.76215e-12   1.38956e-10 DIIS
   @RHF iter  18:  -382.14196303578899    6.82121e-13   4.24847e-11 DIIS
  Energy and wave function converged.

  ==> Post-Iterations <==

    Orbital Energies [Eh]
    ---------------------

    Doubly Occupied:

       1A    -15.620945     2A    -15.528386     3A    -11.292367
       4A    -11.249469     5A    -11.242051     6A    -11.222130
       7A    -11.217245     8A    -11.213273     9A    -11.211097
      10A     -1.341966    11A     -1.154416    12A     -1.050876
      13A     -1.031417    14A     -0.942610    15A     -0.921955
      16A     -0.817250    17A     -0.794824    18A     -0.762964
      19A     -0.741336    20A     -0.624765    21A     -0.610968
      22A     -0.603491    23A     -0.597151    24A     -0.592720
      25A     -0.553781    26A     -0.546291    27A     -0.539860
      28A     -0.528335    29A     -0.522413    30A     -0.470145
      31A     -0.467519    32A     -0.464052    33A     -0.410418
      34A     -0.378976    35A     -0.309102

    Virtual:

      36A      0.162781    37A      0.180577    38A      0.194590
      39A      0.199931    40A      0.213865    41A      0.223397
      42A      0.234414    43A      0.241397    44A      0.248789
      45A      0.261460    46A      0.273612    47A      0.276380
      48A      0.290036    49A      0.304744    50A      0.307711
      51A      0.329194    52A      0.371029    53A      0.375286
      54A      0.407120    55A      0.418099    56A      0.429925
      57A      0.477516    58A      0.496351    59A      0.575628
      60A      0.594406    61A      0.609186    62A      0.617925
      63A      0.623307    64A      0.632438    65A      0.636267
      66A      0.646450    67A      0.665441    68A      0.711275
      69A      0.748658    70A      0.757037    71A      0.769730
      72A      0.775096    73A      0.796897    74A      0.811222
      75A      0.826974    76A      0.843322    77A      0.851397
      78A      0.860937    79A      0.880085    80A      0.880420
      81A      0.895091    82A      0.901150    83A      0.901817
      84A      0.905977    85A      0.909475    86A      0.920212
      87A      0.936794    88A      0.941881    89A      0.954858
      90A      0.973449    91A      0.977933    92A      0.982806
      93A      0.998102    94A      1.028443    95A      1.081527
      96A      1.100488    97A      1.105059    98A      1.120665
      99A      1.129490   100A      1.141625   101A      1.154879
     102A      1.184227   103A      1.233096   104A      1.246139
     105A      1.279670   106A      1.303674   107A      1.328000
     108A      1.331322   109A      1.383501   110A      1.426195
     111A      1.449809   112A      1.472839   113A      1.475657
     114A      1.497491   115A      1.522252   116A      1.525889
     117A      1.569678   118A      1.620128   119A      1.635827
     120A      1.651706   121A      1.670682   122A      1.692856
     123A      1.695687   124A      1.705781   125A      1.722489
     126A      1.791447   127A      1.808954   128A      1.833516
     129A      1.846334   130A      1.851008   131A      1.873635
     132A      1.896628   133A      1.906775   134A      1.910910
     135A      1.920578   136A      1.931172   137A      1.936663
     138A      1.957013   139A      1.961695   140A      1.962765
     141A      1.970147   142A      1.976043   143A      1.984615
     144A      1.992448   145A      2.004289   146A      2.008160
     147A      2.035178   148A      2.064592   149A      2.080160
     150A      2.117609   151A      2.122844   152A      2.154072
     153A      2.164134   154A      2.207446   155A      2.225310
     156A      2.243610   157A      2.291034   158A      2.303371
     159A      2.310377   160A      2.323991   161A      2.359484
     162A      2.363759   163A      2.376250   164A      2.424135
     165A      2.453380   166A      2.482841   167A      2.492308
     168A      2.544213   169A      2.561365   170A      2.576328
     171A      2.607159   172A      2.625990   173A      2.641333
     174A      2.681749   175A      2.731078   176A      2.764205
     177A      2.769464   178A      2.777886   179A      2.789106
     180A      2.794941   181A      2.801798   182A      2.823316
     183A      2.844757   184A      2.860962   185A      2.893093
     186A      2.922918   187A      2.932604   188A      2.966814
     189A      2.975776   190A      2.978200   191A      3.068095
     192A      3.076170   193A      3.165047   194A      3.233129
     195A      3.475193   196A      3.804075

    Final Occupation by Irrep:
              A
    DOCC [    35 ]

  @RHF Final Energy:  -382.14196303578899

   => Energetics <=

    Nuclear Repulsion Energy =            431.9650087958818290
    One-Electron Energy =               -1373.0608144237014585
    Two-Electron Energy =                 558.9538425920305826
    Total Energy =                       -382.1419630357889901

Computation Completed

Properties will be evaluated at   0.000000,   0.000000,   0.000000 [a0]

Properties computed using the SCF density matrix

  Nuclear Dipole Moment: [e a0]
     X:     7.7917      Y:    -5.8314      Z:    -7.2404

  Electronic Dipole Moment: [e a0]
     X:    -8.7933      Y:     5.4700      Z:     6.4897

  Dipole Moment: [e a0]
     X:    -1.0016      Y:    -0.3614      Z:    -0.7508     Total:     1.3029

  Dipole Moment: [D]
     X:    -2.5457      Y:    -0.9187      Z:    -1.9083     Total:     3.3116

*** tstop() called on ds3 at Tue Apr 28 04:15:16 2020
Module time:
	user time   =      63.05 seconds =       1.05 minutes
	system time =      27.28 seconds =       0.45 minutes
	total time  =        167 seconds =       2.78 minutes
Total time:
	user time   =      63.05 seconds =       1.05 minutes
	system time =      27.28 seconds =       0.45 minutes
	total time  =        167 seconds =       2.78 minutes
                                     G D M A

                                 by Anthony Stone

                           version 2.2.06, 22 June 2011

               Distributed Multipoles from Gaussian wavefunctions

Starting at 4:15:16 on 28 Apr 2020

Using SCF density matrix from file ./SSI/SSI-196HIE-249ILE-1-dimer.test.27352.fchk

                         Distributed Multipole Analysis

Standard DMA

Positions and radii in angstrom
Multipole moments in atomic units, ea_0^k for rank k

C          x =  0.076052  y =  3.117827  z =  1.005796 angstrom
           Maximum rank =  0   Radius =  0.650 angstrom
                   Q00  =  -0.201012

C          x = -0.921948  y = -0.367173  z =  1.119796 angstrom
           Maximum rank =  0   Radius =  0.650 angstrom
                   Q00  =   0.468626

C          x = -0.585948  y =  1.787827  z =  0.824796 angstrom
           Maximum rank =  0   Radius =  0.650 angstrom
                   Q00  =   0.228026

C          x = -1.628948  y =  1.413827  z =  0.036796 angstrom
           Maximum rank =  0   Radius =  0.650 angstrom
                   Q00  =   0.002371

N          x = -0.167948  y =  0.653827  z =  1.490796 angstrom
           Maximum rank =  0   Radius =  0.650 angstrom
                   Q00  =  -0.781595

N          x = -1.820948  y =  0.063827  z =  0.240796 angstrom
           Maximum rank =  0   Radius =  0.650 angstrom
                   Q00  =  -0.482219

H          x = -0.797948  y = -1.391173  z =  1.453796 angstrom
           Maximum rank =  0   Radius =  0.325 angstrom
                   Q00  =   0.124467

H          x = -2.503948  y = -0.522173  z = -0.225204 angstrom
           Maximum rank =  0   Radius =  0.325 angstrom
                   Q00  =   0.220428

H          x = -2.197948  y =  2.054827  z = -0.614204 angstrom
           Maximum rank =  0   Radius =  0.325 angstrom
                   Q00  =   0.100036

H          x =  0.881052  y =  3.205827  z =  0.286796 angstrom
           Maximum rank =  0   Radius =  0.325 angstrom
                   Q00  =   0.105922

H          x =  0.535052  y =  3.090827  z =  1.990796 angstrom
           Maximum rank =  0   Radius =  0.325 angstrom
                   Q00  =   0.120302

H          x = -0.595568  y =  3.986477  z =  0.939641 angstrom
           Maximum rank =  0   Radius =  0.325 angstrom
                   Q00  =   0.096568

C          x =  1.048052  y = -2.281173  z = -1.554204 angstrom
           Maximum rank =  0   Radius =  0.650 angstrom
                   Q00  =  -0.083434

C          x =  1.640052  y = -1.043173  z = -2.241204 angstrom
           Maximum rank =  0   Radius =  0.650 angstrom
                   Q00  =  -0.228300

C          x =  1.996052  y = -2.943173  z = -0.564204 angstrom
           Maximum rank =  0   Radius =  0.650 angstrom
                   Q00  =  -0.243054

H          x =  0.125052  y = -2.010173  z = -1.041204 angstrom
           Maximum rank =  0   Radius =  0.325 angstrom
                   Q00  =   0.031592

H          x =  0.795052  y = -3.029173  z = -2.301204 angstrom
           Maximum rank =  0   Radius =  0.325 angstrom
                   Q00  =   0.038647

H          x =  2.616052  y = -1.311173  z = -2.640204 angstrom
           Maximum rank =  0   Radius =  0.325 angstrom
                   Q00  =   0.073766

H          x =  2.086052  y = -2.343173  z =  0.340796 angstrom
           Maximum rank =  0   Radius =  0.325 angstrom
                   Q00  =   0.083916

H          x =  1.606052  y = -3.920173  z = -0.292204 angstrom
           Maximum rank =  0   Radius =  0.325 angstrom
                   Q00  =   0.076756

H          x =  2.978052  y = -3.081173  z = -1.016204 angstrom
           Maximum rank =  0   Radius =  0.325 angstrom
                   Q00  =   0.077739

H          x =  0.997949  y = -0.726050  z = -3.076152 angstrom
           Maximum rank =  0   Radius =  0.325 angstrom
                   Q00  =   0.080315

H          x =  1.780329  y = -0.221652  z = -1.523272 angstrom
           Maximum rank =  0   Radius =  0.325 angstrom
                   Q00  =   0.090136

Total multipoles referred to origin at
           x =   0.000000,  y =    0.000000,  z =    0.000000 angstrom
                   Q00  =  -0.000000

Finished at 4:15:16 on 28 Apr 2020

  DMA results are available in the Python driver through the
	  variable('DMA DISTRIBUTED MULTIPOLES')
  and
	  variable('DMA TOTAL MULTIPOLES')
  commands.

    Psi4 stopped on: Tuesday, 28 April 2020 04:15AM
    Psi4 wall time for execution: 0:02:47.14

*** Psi4 exiting successfully. Buy a developer a beer!
