                               Psi4 1.3.2 release

  ==> Input File <==

--------------------------------------------------------------------------
import numpy as np
set {scf_type pk
basis cc-pvdz
d_convergence 10
gdma_switch   0
gdma_limit    0
gdma_origin   [ 0.0,  0.0,  0.0 ]
}
molecule test {
    units Angstrom
    0 1
    --
    0 1
    C               -2.171246252812475     0.366912435445974    -2.534589722896909
    C                0.800753747187525    -0.616087564554026    -0.645589722896909
    C               -1.166246252812475    -0.188087564554026    -1.542589722896909
    C               -1.369246252812475    -0.920087564554026    -0.411589722896909
    N                0.203753747187525    -0.010087564554026    -1.677589722896909
    N               -0.123246252812475    -1.176087564554026     0.131410277103091
    H                1.858753747187525    -0.626087564554026    -0.454589722896909
    H                0.044753747187525    -1.662087564554026     1.013410277103091
    H               -2.324246252812475    -1.214087564554026    -0.005589722896909
    H               -2.099246252812475     1.447912435445974    -2.504589722896909
    H               -3.152246252812475     0.079912435445974    -2.176589722896909
    H               -2.021556252812475     0.037162435445974    -3.573269722896909
    C                1.315753747187525     1.136912435445974     2.433410277103091
    C                2.248753747187525     1.181912435445974     3.626410277103091
    H                1.842753747187525     0.748912435445974     1.564410277103091
    H                0.469753747187525     0.485912435445974     2.647410277103091
    H                0.942753747187525     2.135912435445974     2.209410277103091
    H                2.620753747187524     0.178912435445974     3.837410277103091
    H                3.080913747187525     1.868472435445974     3.411591277103091
    H                1.684173747187525     1.552172435445973     4.494831277103090

}
e, wfn = energy('scf', return_wfn=True)
gdma(wfn)
dmavals = variable('DMA DISTRIBUTED MULTIPOLES')
charges = np.array(dmavals)
print(charges)
np.save('SSI-124HIE-143VAL-1-dimer.npy', np.array(charges))--------------------------------------------------------------------------

*** tstart() called on ds3
*** at Mon Apr 27 14:09:40 2020

   => Loading Basis Set <=

    Name: CC-PVDZ
    Role: ORBITAL
    Keyword: BASIS
    atoms 1-4, 13-14  entry C          line   138 file /theoryfs2/ds/metcalf/miniconda2/envs/tf2gpu/share/psi4/basis/cc-pvdz.gbs
    atoms 5-6         entry N          line   168 file /theoryfs2/ds/metcalf/miniconda2/envs/tf2gpu/share/psi4/basis/cc-pvdz.gbs
    atoms 7-12, 15-20 entry H          line    22 file /theoryfs2/ds/metcalf/miniconda2/envs/tf2gpu/share/psi4/basis/cc-pvdz.gbs

         ---------------------------------------------------------
                                   SCF
               by Justin Turney, Rob Parrish, Andy Simmonett
                          and Daniel G. A. Smith
                              RHF Reference
                        1 Threads,    500 MiB Core
         ---------------------------------------------------------

  ==> Geometry <==

    Molecular point group: c1
    Full point group: C1

    Geometry (in Angstrom), charge = 0, multiplicity = 1:

       Center              X                  Y                   Z               Mass
    ------------   -----------------  -----------------  -----------------  -----------------
         C           -2.171246252812     0.366912435446    -2.534589722897    12.000000000000
         C            0.800753747188    -0.616087564554    -0.645589722897    12.000000000000
         C           -1.166246252812    -0.188087564554    -1.542589722897    12.000000000000
         C           -1.369246252812    -0.920087564554    -0.411589722897    12.000000000000
         N            0.203753747188    -0.010087564554    -1.677589722897    14.003074004430
         N           -0.123246252812    -1.176087564554     0.131410277103    14.003074004430
         H            1.858753747188    -0.626087564554    -0.454589722897     1.007825032230
         H            0.044753747188    -1.662087564554     1.013410277103     1.007825032230
         H           -2.324246252812    -1.214087564554    -0.005589722897     1.007825032230
         H           -2.099246252812     1.447912435446    -2.504589722897     1.007825032230
         H           -3.152246252812     0.079912435446    -2.176589722897     1.007825032230
         H           -2.021556252812     0.037162435446    -3.573269722897     1.007825032230
         C            1.315753747188     1.136912435446     2.433410277103    12.000000000000
         C            2.248753747188     1.181912435446     3.626410277103    12.000000000000
         H            1.842753747188     0.748912435446     1.564410277103     1.007825032230
         H            0.469753747188     0.485912435446     2.647410277103     1.007825032230
         H            0.942753747188     2.135912435446     2.209410277103     1.007825032230
         H            2.620753747188     0.178912435446     3.837410277103     1.007825032230
         H            3.080913747188     1.868472435446     3.411591277103     1.007825032230
         H            1.684173747188     1.552172435446     4.494831277103     1.007825032230

  Running in c1 symmetry.

  Rotational constants: A =      0.14257  B =      0.02314  C =      0.02293 [cm^-1]
  Rotational constants: A =   4274.26599  B =    693.62568  C =    687.29592 [MHz]
  Nuclear repulsion =  350.527966807669429

  Charge       = 0
  Multiplicity = 1
  Electrons    = 62
  Nalpha       = 31
  Nbeta        = 31

  ==> Algorithm <==

  SCF Algorithm Type is PK.
  DIIS enabled.
  MOM disabled.
  Fractional occupation disabled.
  Guess Type is SAD.
  Energy threshold   = 1.00e-06
  Density threshold  = 1.00e-10
  Integral threshold = 0.00e+00

  ==> Primary Basis <==

  Basis Set: CC-PVDZ
    Blend: CC-PVDZ
    Number of shells: 84
    Number of basis function: 172
    Number of Cartesian functions: 180
    Spherical Harmonics?: true
    Max angular momentum: 2

  ==> Pre-Iterations <==

   -------------------------------------------------------
    Irrep   Nso     Nmo     Nalpha   Nbeta   Ndocc  Nsocc
   -------------------------------------------------------
     A        172     172       0       0       0       0
   -------------------------------------------------------
    Total     172     172      31      31      31       0
   -------------------------------------------------------

  ==> Integral Setup <==

  Using integral reordering PK algorithm.
  Sizing the integral batches needed.
  Building batch lookup table.
   Calculation information:
      Number of atoms:                  20
      Number of AO shells:              84
      Number of primitives:            236
      Number of atomic orbitals:       180
      Number of basis functions:       172

      Integral cutoff                 1.00e-12
      Number of threads:                 1

	Batch   1 pq = [       0,    9405] index = [             0,44231715] size =     44231715
	Batch   2 pq = [    9405,   13301] index = [      44231715,88464951] size =     44233236
	Batch   3 pq = [   13301,   14878] index = [      88464951,110684881] size =     22219930
  Task number: 11
  Buffer size: 11059200
  Buffer per thread: 2
  We computed 4994072 shell quartets total.
  Whereas there are 6374235 unique shell quartets.

  ==> DiskJK: Disk-Based J/K Matrices <==

    J tasked:                  Yes
    K tasked:                  Yes
    wK tasked:                  No
    Memory [MiB]:              375
    Schwarz Cutoff:          1E-12

    OpenMP threads:              1

  Minimum eigenvalue in the overlap matrix is 1.2507062561E-03.
  Using Symmetric Orthogonalization.

  SCF Guess: Superposition of Atomic Densities via on-the-fly atomic UHF.

  ==> Iterations <==

                        Total Energy        Delta E     RMS |[F,P]|

   @RHF iter SAD:  -342.15663745047419   -3.42157e+02   0.00000e+00
   @RHF iter   1:  -342.88628356389245   -7.29646e-01   3.35981e-03 DIIS
   @RHF iter   2:  -343.05840606493007   -1.72123e-01   1.70237e-03 DIIS
   @RHF iter   3:  -343.09898405253443   -4.05780e-02   4.41588e-04 DIIS
   @RHF iter   4:  -343.10254526003621   -3.56121e-03   1.84285e-04 DIIS
   @RHF iter   5:  -343.10312714153054   -5.81881e-04   2.69056e-05 DIIS
   @RHF iter   6:  -343.10314914423753   -2.20027e-05   1.18391e-05 DIIS
   @RHF iter   7:  -343.10315284780040   -3.70356e-06   4.16298e-06 DIIS
   @RHF iter   8:  -343.10315367455235   -8.26752e-07   1.67131e-06 DIIS
   @RHF iter   9:  -343.10315384562949   -1.71077e-07   5.71977e-07 DIIS
   @RHF iter  10:  -343.10315386119203   -1.55625e-08   1.78114e-07 DIIS
   @RHF iter  11:  -343.10315386296600   -1.77397e-09   8.13033e-08 DIIS
   @RHF iter  12:  -343.10315386322668   -2.60684e-10   3.26163e-08 DIIS
   @RHF iter  13:  -343.10315386327699   -5.03064e-11   9.54205e-09 DIIS
   @RHF iter  14:  -343.10315386327989   -2.89901e-12   3.54978e-09 DIIS
   @RHF iter  15:  -343.10315386328205   -2.16005e-12   1.42873e-09 DIIS
   @RHF iter  16:  -343.10315386328091    1.13687e-12   4.54839e-10 DIIS
   @RHF iter  17:  -343.10315386328131   -3.97904e-13   1.30895e-10 DIIS
   @RHF iter  18:  -343.10315386328011    1.19371e-12   4.94852e-11 DIIS
  Energy and wave function converged.

  ==> Post-Iterations <==

    Orbital Energies [Eh]
    ---------------------

    Doubly Occupied:

       1A    -15.620720     2A    -15.528741     3A    -11.292817
       4A    -11.250227     5A    -11.243082     6A    -11.224018
       7A    -11.223298     8A    -11.219960     9A     -1.335238
      10A     -1.148392    11A     -1.028171    12A     -1.026601
      13A     -0.938902    14A     -0.839873    15A     -0.816599
      16A     -0.759565    17A     -0.738582    18A     -0.610070
      19A     -0.608093    20A     -0.603077    21A     -0.598007
      22A     -0.595610    23A     -0.551572    24A     -0.539672
      25A     -0.519500    26A     -0.505384    27A     -0.491578
      28A     -0.488772    29A     -0.410532    30A     -0.375057
      31A     -0.308208

    Virtual:

      32A      0.159090    33A      0.183855    34A      0.196129
      35A      0.202191    36A      0.217213    37A      0.228030
      38A      0.236710    39A      0.243156    40A      0.259496
      41A      0.272202    42A      0.280082    43A      0.284241
      44A      0.298869    45A      0.334837    46A      0.373350
      47A      0.386269    48A      0.396020    49A      0.414245
      50A      0.475922    51A      0.492737    52A      0.585755
      53A      0.593867    54A      0.598153    55A      0.611914
      56A      0.616884    57A      0.636033    58A      0.653512
      59A      0.667098    60A      0.687003    61A      0.706407
      62A      0.749849    63A      0.760807    64A      0.783619
      65A      0.801495    66A      0.812652    67A      0.838248
      68A      0.848072    69A      0.874975    70A      0.882696
      71A      0.886886    72A      0.890414    73A      0.896725
      74A      0.902334    75A      0.909079    76A      0.922478
      77A      0.935208    78A      0.953538    79A      0.961039
      80A      0.974004    81A      0.980602    82A      1.026136
      83A      1.076746    84A      1.099762    85A      1.103702
      86A      1.120595    87A      1.127854    88A      1.143277
      89A      1.155035    90A      1.191437    91A      1.232853
      92A      1.254820    93A      1.268101    94A      1.322984
      95A      1.329410    96A      1.337980    97A      1.419509
      98A      1.434315    99A      1.475690   100A      1.480171
     101A      1.499785   102A      1.515565   103A      1.559899
     104A      1.578378   105A      1.591476   106A      1.642879
     107A      1.670878   108A      1.687831   109A      1.689665
     110A      1.711839   111A      1.784663   112A      1.802272
     113A      1.812389   114A      1.847424   115A      1.860373
     116A      1.872841   117A      1.900581   118A      1.910405
     119A      1.925941   120A      1.939889   121A      1.942973
     122A      1.944988   123A      1.954310   124A      1.960585
     125A      1.965980   126A      1.979318   127A      1.996494
     128A      2.009743   129A      2.031693   130A      2.099851
     131A      2.103315   132A      2.109292   133A      2.122488
     134A      2.133289   135A      2.170374   136A      2.200447
     137A      2.224238   138A      2.292832   139A      2.299318
     140A      2.315547   141A      2.343783   142A      2.396885
     143A      2.438280   144A      2.450878   145A      2.458807
     146A      2.468479   147A      2.485682   148A      2.546159
     149A      2.563685   150A      2.568836   151A      2.612337
     152A      2.679800   153A      2.738213   154A      2.749359
     155A      2.759029   156A      2.780950   157A      2.791780
     158A      2.796307   159A      2.823047   160A      2.842687
     161A      2.849540   162A      2.860727   163A      2.894466
     164A      2.917421   165A      2.943550   166A      2.961258
     167A      2.973464   168A      3.056572   169A      3.151478
     170A      3.233393   171A      3.455571   172A      3.783802

    Final Occupation by Irrep:
              A
    DOCC [    31 ]

  @RHF Final Energy:  -343.10315386328011

   => Energetics <=

    Nuclear Repulsion Energy =            350.5279668076694293
    One-Electron Energy =               -1158.3824057001172605
    Two-Electron Energy =                 464.7512850291677751
    Total Energy =                       -343.1031538632801130

Computation Completed

Properties will be evaluated at   0.000000,   0.000000,   0.000000 [a0]

Properties computed using the SCF density matrix

  Nuclear Dipole Moment: [e a0]
     X:     2.7628      Y:     4.7217      Z:     9.8140

  Electronic Dipole Moment: [e a0]
     X:    -2.9483      Y:    -5.3589      Z:    -8.6598

  Dipole Moment: [e a0]
     X:    -0.1855      Y:    -0.6372      Z:     1.1542     Total:     1.3314

  Dipole Moment: [D]
     X:    -0.4715      Y:    -1.6195      Z:     2.9338     Total:     3.3841

*** tstop() called on ds3 at Mon Apr 27 14:10:31 2020
Module time:
	user time   =      35.06 seconds =       0.58 minutes
	system time =      17.12 seconds =       0.29 minutes
	total time  =         51 seconds =       0.85 minutes
Total time:
	user time   =      35.06 seconds =       0.58 minutes
	system time =      17.12 seconds =       0.29 minutes
	total time  =         51 seconds =       0.85 minutes
                                     G D M A

                                 by Anthony Stone

                           version 2.2.06, 22 June 2011

               Distributed Multipoles from Gaussian wavefunctions

Starting at 14:10:31 on 27 Apr 2020

Using SCF density matrix from file ./SSI/SSI-124HIE-143VAL-1-dimer.test.8843.fchk

                         Distributed Multipole Analysis

Standard DMA

Positions and radii in angstrom
Multipole moments in atomic units, ea_0^k for rank k

C          x = -2.171246  y =  0.366912  z = -2.534590 angstrom
           Maximum rank =  0   Radius =  0.650 angstrom
                   Q00  =  -0.188250

C          x =  0.800754  y = -0.616088  z = -0.645590 angstrom
           Maximum rank =  0   Radius =  0.650 angstrom
                   Q00  =   0.460943

C          x = -1.166246  y = -0.188088  z = -1.542590 angstrom
           Maximum rank =  0   Radius =  0.650 angstrom
                   Q00  =   0.212468

C          x = -1.369246  y = -0.920088  z = -0.411590 angstrom
           Maximum rank =  0   Radius =  0.650 angstrom
                   Q00  =  -0.004318

N          x =  0.203754  y = -0.010088  z = -1.677590 angstrom
           Maximum rank =  0   Radius =  0.650 angstrom
                   Q00  =  -0.762066

N          x = -0.123246  y = -1.176088  z =  0.131410 angstrom
           Maximum rank =  0   Radius =  0.650 angstrom
                   Q00  =  -0.480932

H          x =  1.858754  y = -0.626088  z = -0.454590 angstrom
           Maximum rank =  0   Radius =  0.325 angstrom
                   Q00  =   0.122819

H          x =  0.044754  y = -1.662088  z =  1.013410 angstrom
           Maximum rank =  0   Radius =  0.325 angstrom
                   Q00  =   0.224521

H          x = -2.324246  y = -1.214088  z = -0.005590 angstrom
           Maximum rank =  0   Radius =  0.325 angstrom
                   Q00  =   0.102160

H          x = -2.099246  y =  1.447912  z = -2.504590 angstrom
           Maximum rank =  0   Radius =  0.325 angstrom
                   Q00  =   0.109728

H          x = -3.152246  y =  0.079912  z = -2.176590 angstrom
           Maximum rank =  0   Radius =  0.325 angstrom
                   Q00  =   0.091467

H          x = -2.021556  y =  0.037162  z = -3.573270 angstrom
           Maximum rank =  0   Radius =  0.325 angstrom
                   Q00  =   0.112434

C          x =  1.315754  y =  1.136912  z =  2.433410 angstrom
           Maximum rank =  0   Radius =  0.650 angstrom
                   Q00  =  -0.221345

C          x =  2.248754  y =  1.181912  z =  3.626410 angstrom
           Maximum rank =  0   Radius =  0.650 angstrom
                   Q00  =  -0.236440

H          x =  1.842754  y =  0.748912  z =  1.564410 angstrom
           Maximum rank =  0   Radius =  0.325 angstrom
                   Q00  =   0.070827

H          x =  0.469754  y =  0.485912  z =  2.647410 angstrom
           Maximum rank =  0   Radius =  0.325 angstrom
                   Q00  =   0.064612

H          x =  0.942754  y =  2.135912  z =  2.209410 angstrom
           Maximum rank =  0   Radius =  0.325 angstrom
                   Q00  =   0.088682

H          x =  2.620754  y =  0.178912  z =  3.837410 angstrom
           Maximum rank =  0   Radius =  0.325 angstrom
                   Q00  =   0.074018

H          x =  3.080914  y =  1.868472  z =  3.411591 angstrom
           Maximum rank =  0   Radius =  0.325 angstrom
                   Q00  =   0.081380

H          x =  1.684174  y =  1.552172  z =  4.494831 angstrom
           Maximum rank =  0   Radius =  0.325 angstrom
                   Q00  =   0.077292

Total multipoles referred to origin at
           x =   0.000000,  y =    0.000000,  z =    0.000000 angstrom
                   Q00  =  -0.000000

Finished at 14:10:31 on 27 Apr 2020

  DMA results are available in the Python driver through the
	  variable('DMA DISTRIBUTED MULTIPOLES')
  and
	  variable('DMA TOTAL MULTIPOLES')
  commands.

    Psi4 stopped on: Monday, 27 April 2020 02:10PM
    Psi4 wall time for execution: 0:00:50.94

*** Psi4 exiting successfully. Buy a developer a beer!
