                               Psi4 1.3.2 release

  ==> Input File <==

--------------------------------------------------------------------------
import numpy as np
set {scf_type pk
basis cc-pvdz
d_convergence 10
gdma_switch   0
gdma_limit    0
gdma_origin   [ 0.0,  0.0,  0.0 ]
}
molecule test {
    units Angstrom
    0 1
    --
    0 1
    C               -0.524401563020400     1.042831738478971     0.656716224883508
    C               -1.335401563020400     2.239831738478972     1.149716224883508
    C                0.382598436979600     0.512831738478971     1.766716224883508
    H               -1.205401563020400     0.251831738478971     0.334716224883508
    H                0.090598436979600     1.340831738478971    -0.195283775116492
    H               -0.645401563020400     3.002831738478971     1.514716224883508
    H               -1.989401563020400     1.923831738478971     1.961716224883508
    H                0.821598436979600    -0.431168261521029     1.426716224883508
    H                1.205598436979600     1.219831738478971     1.917716224883508
    H               -1.972751563020400     2.667371738478971     0.361683224883508
    H               -0.153731563020400     0.365691738478971     2.715770224883508
    C                0.393598436979600    -2.364168261521029    -1.916283775116492
    O                0.889598436979600    -1.151168261521029    -1.382283775116492
    H                1.824598436979600    -1.074168261521029    -1.628283775116492
    H                0.924598436979600    -3.209168261521028    -1.474283775116492
    H                0.569598436979600    -2.367168261521029    -2.994283775116492
    H               -0.686161563020400    -2.463238261521028    -1.731059375116492

}
e, wfn = energy('scf', return_wfn=True)
gdma(wfn)
dmavals = variable('DMA DISTRIBUTED MULTIPOLES')
charges = np.array(dmavals)
print(charges)
np.save('SSI-007LYS-093SER-1-dimer.npy', np.array(charges))--------------------------------------------------------------------------

*** tstart() called on ds3
*** at Mon Apr 27 17:34:48 2020

   => Loading Basis Set <=

    Name: CC-PVDZ
    Role: ORBITAL
    Keyword: BASIS
    atoms 1-3, 12     entry C          line   138 file /theoryfs2/ds/metcalf/miniconda2/envs/tf2gpu/share/psi4/basis/cc-pvdz.gbs
    atoms 4-11, 14-17 entry H          line    22 file /theoryfs2/ds/metcalf/miniconda2/envs/tf2gpu/share/psi4/basis/cc-pvdz.gbs
    atoms 13          entry O          line   198 file /theoryfs2/ds/metcalf/miniconda2/envs/tf2gpu/share/psi4/basis/cc-pvdz.gbs

         ---------------------------------------------------------
                                   SCF
               by Justin Turney, Rob Parrish, Andy Simmonett
                          and Daniel G. A. Smith
                              RHF Reference
                        1 Threads,    500 MiB Core
         ---------------------------------------------------------

  ==> Geometry <==

    Molecular point group: c1
    Full point group: C1

    Geometry (in Angstrom), charge = 0, multiplicity = 1:

       Center              X                  Y                   Z               Mass
    ------------   -----------------  -----------------  -----------------  -----------------
         C           -0.524401563020     1.042831738479     0.656716224884    12.000000000000
         C           -1.335401563020     2.239831738479     1.149716224884    12.000000000000
         C            0.382598436980     0.512831738479     1.766716224884    12.000000000000
         H           -1.205401563020     0.251831738479     0.334716224884     1.007825032230
         H            0.090598436980     1.340831738479    -0.195283775116     1.007825032230
         H           -0.645401563020     3.002831738479     1.514716224884     1.007825032230
         H           -1.989401563020     1.923831738479     1.961716224884     1.007825032230
         H            0.821598436980    -0.431168261521     1.426716224884     1.007825032230
         H            1.205598436980     1.219831738479     1.917716224884     1.007825032230
         H           -1.972751563020     2.667371738479     0.361683224884     1.007825032230
         H           -0.153731563020     0.365691738479     2.715770224884     1.007825032230
         C            0.393598436980    -2.364168261521    -1.916283775116    12.000000000000
         O            0.889598436980    -1.151168261521    -1.382283775116    15.994914619570
         H            1.824598436980    -1.074168261521    -1.628283775116     1.007825032230
         H            0.924598436980    -3.209168261521    -1.474283775116     1.007825032230
         H            0.569598436980    -2.367168261521    -2.994283775116     1.007825032230
         H           -0.686161563020    -2.463238261521    -1.731059375116     1.007825032230

  Running in c1 symmetry.

  Rotational constants: A =      0.28518  B =      0.04274  C =      0.03965 [cm^-1]
  Rotational constants: A =   8549.59672  B =   1281.38918  C =   1188.68883 [MHz]
  Nuclear repulsion =  179.755709201286038

  Charge       = 0
  Multiplicity = 1
  Electrons    = 44
  Nalpha       = 22
  Nbeta        = 22

  ==> Algorithm <==

  SCF Algorithm Type is PK.
  DIIS enabled.
  MOM disabled.
  Fractional occupation disabled.
  Guess Type is SAD.
  Energy threshold   = 1.00e-06
  Density threshold  = 1.00e-10
  Integral threshold = 0.00e+00

  ==> Primary Basis <==

  Basis Set: CC-PVDZ
    Blend: CC-PVDZ
    Number of shells: 66
    Number of basis function: 130
    Number of Cartesian functions: 135
    Spherical Harmonics?: true
    Max angular momentum: 2

  ==> Pre-Iterations <==

   -------------------------------------------------------
    Irrep   Nso     Nmo     Nalpha   Nbeta   Ndocc  Nsocc
   -------------------------------------------------------
     A        130     130       0       0       0       0
   -------------------------------------------------------
    Total     130     130      22      22      22       0
   -------------------------------------------------------

  ==> Integral Setup <==

  Using integral reordering PK algorithm.
  Sizing the integral batches needed.
  Building batch lookup table.
   Calculation information:
      Number of atoms:                  17
      Number of AO shells:              66
      Number of primitives:            170
      Number of atomic orbitals:       135
      Number of basis functions:       130

      Integral cutoff                 1.00e-12
      Number of threads:                 1

	Batch   1 pq = [       0,    8515] index = [             0,36256870] size =     36256870
  Task number: 4
  Buffer size: 11059200
  Buffer per thread: 2
  We computed 1969474 shell quartets total.
  Whereas there are 2445366 unique shell quartets.

  ==> DiskJK: Disk-Based J/K Matrices <==

    J tasked:                  Yes
    K tasked:                  Yes
    wK tasked:                  No
    Memory [MiB]:              375
    Schwarz Cutoff:          1E-12

    OpenMP threads:              1

  Minimum eigenvalue in the overlap matrix is 5.5219505786E-03.
  Using Symmetric Orthogonalization.

  SCF Guess: Superposition of Atomic Densities via on-the-fly atomic UHF.

  ==> Iterations <==

                        Total Energy        Delta E     RMS |[F,P]|

   @RHF iter SAD:  -232.08530683551021   -2.32085e+02   0.00000e+00
   @RHF iter   1:  -233.14061088159281   -1.05530e+00   4.17291e-03 DIIS
   @RHF iter   2:  -233.28660146336978   -1.45991e-01   2.00704e-03 DIIS
   @RHF iter   3:  -233.31687722069060   -3.02758e-02   3.88696e-04 DIIS
   @RHF iter   4:  -233.31896991314940   -2.09269e-03   1.16069e-04 DIIS
   @RHF iter   5:  -233.31909780929601   -1.27896e-04   2.48806e-05 DIIS
   @RHF iter   6:  -233.31910556013037   -7.75083e-06   5.34846e-06 DIIS
   @RHF iter   7:  -233.31910602204823   -4.61918e-07   1.39908e-06 DIIS
   @RHF iter   8:  -233.31910605285640   -3.08082e-08   4.43265e-07 DIIS
   @RHF iter   9:  -233.31910605682214   -3.96574e-09   9.57913e-08 DIIS
   @RHF iter  10:  -233.31910605704388   -2.21746e-10   1.96610e-08 DIIS
   @RHF iter  11:  -233.31910605705329   -9.40759e-12   4.67530e-09 DIIS
   @RHF iter  12:  -233.31910605705332   -2.84217e-14   1.31346e-09 DIIS
   @RHF iter  13:  -233.31910605705403   -7.10543e-13   3.73406e-10 DIIS
   @RHF iter  14:  -233.31910605705372    3.12639e-13   8.90971e-11 DIIS
  Energy and wave function converged.

  ==> Post-Iterations <==

    Orbital Energies [Eh]
    ---------------------

    Doubly Occupied:

       1A    -20.554349     2A    -11.278565     3A    -11.203979
       4A    -11.203311     5A    -11.202396     6A     -1.353647
       7A     -1.039580     8A     -0.922410     9A     -0.908997
      10A     -0.781036    11A     -0.684025    12A     -0.620109
      13A     -0.612943    14A     -0.596099    15A     -0.579841
      16A     -0.532926    17A     -0.519012    18A     -0.496731
      19A     -0.458217    20A     -0.454712    21A     -0.452002
      22A     -0.443091

    Virtual:

      23A      0.171206    24A      0.200222    25A      0.211798
      26A      0.242154    27A      0.245112    28A      0.251364
      29A      0.260792    30A      0.278493    31A      0.290763
      32A      0.300486    33A      0.315945    34A      0.324010
      35A      0.363019    36A      0.386302    37A      0.439314
      38A      0.592558    39A      0.620331    40A      0.625114
      41A      0.628408    42A      0.632808    43A      0.638318
      44A      0.657398    45A      0.734612    46A      0.799429
      47A      0.818181    48A      0.822104    49A      0.857830
      50A      0.862815    51A      0.885795    52A      0.891558
      53A      0.896233    54A      0.906350    55A      0.908394
      56A      0.914005    57A      0.926049    58A      0.942797
      59A      0.947555    60A      0.970968    61A      0.983726
      62A      1.129675    63A      1.141625    64A      1.143445
      65A      1.154062    66A      1.170759    67A      1.211562
      68A      1.312669    69A      1.353109    70A      1.391528
      71A      1.465904    72A      1.486915    73A      1.493458
      74A      1.576116    75A      1.615937    76A      1.658537
      77A      1.662614    78A      1.669126    79A      1.692923
      80A      1.703125    81A      1.727725    82A      1.857050
      83A      1.874534    84A      1.882102    85A      1.892924
      86A      1.899504    87A      1.906380    88A      1.919152
      89A      1.948394    90A      1.960504    91A      1.967373
      92A      1.979210    93A      1.989967    94A      1.997340
      95A      2.019645    96A      2.030615    97A      2.065542
      98A      2.071277    99A      2.155800   100A      2.168108
     101A      2.173386   102A      2.297603   103A      2.308273
     104A      2.322034   105A      2.343508   106A      2.355337
     107A      2.361744   108A      2.372647   109A      2.499883
     110A      2.507808   111A      2.543431   112A      2.577100
     113A      2.629298   114A      2.632644   115A      2.744417
     116A      2.756879   117A      2.762626   118A      2.769096
     119A      2.779244   120A      2.801259   121A      2.845547
     122A      2.909713   123A      2.977543   124A      2.984495
     125A      3.059565   126A      3.298536   127A      3.382025
     128A      3.461151   129A      3.591068   130A      4.083618

    Final Occupation by Irrep:
              A
    DOCC [    22 ]

  @RHF Final Energy:  -233.31910605705372

   => Energetics <=

    Nuclear Repulsion Energy =            179.7557092012860380
    One-Electron Energy =                -672.3536723524014178
    Two-Electron Energy =                 259.2788570940616637
    Total Energy =                       -233.3191060570537161

Computation Completed

Properties will be evaluated at   0.000000,   0.000000,   0.000000 [a0]

Properties computed using the SCF density matrix

  Nuclear Dipole Moment: [e a0]
     X:    -1.1359      Y:     1.1450      Z:     2.0650

  Electronic Dipole Moment: [e a0]
     X:     1.5591      Y:    -1.7422      Z:    -2.6102

  Dipole Moment: [e a0]
     X:     0.4232      Y:    -0.5971      Z:    -0.5452     Total:     0.9126

  Dipole Moment: [D]
     X:     1.0755      Y:    -1.5178      Z:    -1.3858     Total:     2.3196

*** tstop() called on ds3 at Mon Apr 27 17:35:04 2020
Module time:
	user time   =      11.13 seconds =       0.19 minutes
	system time =       5.04 seconds =       0.08 minutes
	total time  =         16 seconds =       0.27 minutes
Total time:
	user time   =      11.13 seconds =       0.19 minutes
	system time =       5.04 seconds =       0.08 minutes
	total time  =         16 seconds =       0.27 minutes
                                     G D M A

                                 by Anthony Stone

                           version 2.2.06, 22 June 2011

               Distributed Multipoles from Gaussian wavefunctions

Starting at 17:35:4 on 27 Apr 2020

Using SCF density matrix from file ./SSI/SSI-007LYS-093SER-1-dimer.test.31320.fchk

                         Distributed Multipole Analysis

Standard DMA

Positions and radii in angstrom
Multipole moments in atomic units, ea_0^k for rank k

C          x = -0.524402  y =  1.042832  z =  0.656716 angstrom
           Maximum rank =  0   Radius =  0.650 angstrom
                   Q00  =  -0.058023

C          x = -1.335402  y =  2.239832  z =  1.149716 angstrom
           Maximum rank =  0   Radius =  0.650 angstrom
                   Q00  =  -0.245600

C          x =  0.382598  y =  0.512832  z =  1.766716 angstrom
           Maximum rank =  0   Radius =  0.650 angstrom
                   Q00  =  -0.245907

H          x = -1.205402  y =  0.251832  z =  0.334716 angstrom
           Maximum rank =  0   Radius =  0.325 angstrom
                   Q00  =   0.045831

H          x =  0.090598  y =  1.340832  z = -0.195284 angstrom
           Maximum rank =  0   Radius =  0.325 angstrom
                   Q00  =   0.053438

H          x = -0.645402  y =  3.002832  z =  1.514716 angstrom
           Maximum rank =  0   Radius =  0.325 angstrom
                   Q00  =   0.071178

H          x = -1.989402  y =  1.923832  z =  1.961716 angstrom
           Maximum rank =  0   Radius =  0.325 angstrom
                   Q00  =   0.072934

H          x =  0.821598  y = -0.431168  z =  1.426716 angstrom
           Maximum rank =  0   Radius =  0.325 angstrom
                   Q00  =   0.083788

H          x =  1.205598  y =  1.219832  z =  1.917716 angstrom
           Maximum rank =  0   Radius =  0.325 angstrom
                   Q00  =   0.067738

H          x = -1.972752  y =  2.667372  z =  0.361683 angstrom
           Maximum rank =  0   Radius =  0.325 angstrom
                   Q00  =   0.077919

H          x = -0.153732  y =  0.365692  z =  2.715770 angstrom
           Maximum rank =  0   Radius =  0.325 angstrom
                   Q00  =   0.069844

C          x =  0.393598  y = -2.364168  z = -1.916284 angstrom
           Maximum rank =  0   Radius =  0.650 angstrom
                   Q00  =  -0.040377

O          x =  0.889598  y = -1.151168  z = -1.382284 angstrom
           Maximum rank =  0   Radius =  0.650 angstrom
                   Q00  =  -0.584338

H          x =  1.824598  y = -1.074168  z = -1.628284 angstrom
           Maximum rank =  0   Radius =  0.325 angstrom
                   Q00  =   0.383004

H          x =  0.924598  y = -3.209168  z = -1.474284 angstrom
           Maximum rank =  0   Radius =  0.325 angstrom
                   Q00  =   0.067368

H          x =  0.569598  y = -2.367168  z = -2.994284 angstrom
           Maximum rank =  0   Radius =  0.325 angstrom
                   Q00  =   0.065031

H          x = -0.686162  y = -2.463238  z = -1.731059 angstrom
           Maximum rank =  0   Radius =  0.325 angstrom
                   Q00  =   0.116173

Total multipoles referred to origin at
           x =   0.000000,  y =    0.000000,  z =    0.000000 angstrom
                   Q00  =  -0.000000

Finished at 17:35:4 on 27 Apr 2020

  DMA results are available in the Python driver through the
	  variable('DMA DISTRIBUTED MULTIPOLES')
  and
	  variable('DMA TOTAL MULTIPOLES')
  commands.

    Psi4 stopped on: Monday, 27 April 2020 05:35PM
    Psi4 wall time for execution: 0:00:16.16

*** Psi4 exiting successfully. Buy a developer a beer!
