                               Psi4 1.3.2 release

  ==> Input File <==

--------------------------------------------------------------------------
import numpy as np
set {scf_type pk
basis cc-pvdz
d_convergence 10
gdma_switch   0
gdma_limit    0
gdma_origin   [ 0.0,  0.0,  0.0 ]
}
molecule test {
    units Angstrom
    0 1
    --
    0 1
    C               -1.649170154876518    -1.385922961690840     1.454865044913259
    C               -3.122170154876518    -1.521922961690840     1.083865044913259
    H               -1.093170154876518    -2.245922961690840     1.102865044913259
    H               -1.244170154876518    -0.490922961690840     0.985865044913259
    H               -1.520170154876518    -1.273922961690841     2.531865044913259
    H               -3.640170154876518    -0.663922961690840     1.504865044913259
    H               -3.564330154876518    -2.450603961690840     1.473795044913259
    H               -3.254750154876518    -1.495261961690840    -0.007794955086741
    C                1.163829845123482    -1.277922961690840    -2.099134955086742
    C               -0.285170154876518     1.754077038309160    -0.292134955086741
    C               -0.034170154876518     0.783077038309160    -1.270134955086741
    C                0.458829845123482     1.788077038309160     0.868865044913259
    C                0.957829845123482    -0.185922961690840    -1.074134955086741
    C                1.448829845123482     0.829077038309160     1.065865044913259
    C                1.694829845123482    -0.156922961690840     0.112865044913259
    H               -1.060170154876518     2.492077038309160    -0.449134955086741
    H               -0.627170154876518     0.774077038309160    -2.174134955086741
    H                0.272829845123482     2.543077038309159     1.617865044913259
    H                2.028829845123482     0.846077038309160     1.977865044913259
    H                2.197829845123482    -1.624922961690840    -2.066134955086741
    H                1.013829845123482    -0.855922961690840    -3.080134955086741
    H                2.465829845123482    -0.877922961690840     0.295865044913259
    H                0.482349845123482    -2.126004961690841    -1.936842955086741

}
e, wfn = energy('scf', return_wfn=True)
gdma(wfn)
dmavals = variable('DMA DISTRIBUTED MULTIPOLES')
charges = np.array(dmavals)
print(charges)
np.save('SSI-082VAL-127PHE-1-dimer.npy', np.array(charges))--------------------------------------------------------------------------

*** tstart() called on ds3
*** at Mon Apr 27 08:22:46 2020

   => Loading Basis Set <=

    Name: CC-PVDZ
    Role: ORBITAL
    Keyword: BASIS
    atoms 1-2, 9-15  entry C          line   138 file /theoryfs2/ds/metcalf/miniconda2/envs/tf2gpu/share/psi4/basis/cc-pvdz.gbs
    atoms 3-8, 16-23 entry H          line    22 file /theoryfs2/ds/metcalf/miniconda2/envs/tf2gpu/share/psi4/basis/cc-pvdz.gbs

         ---------------------------------------------------------
                                   SCF
               by Justin Turney, Rob Parrish, Andy Simmonett
                          and Daniel G. A. Smith
                              RHF Reference
                        1 Threads,    500 MiB Core
         ---------------------------------------------------------

  ==> Geometry <==

    Molecular point group: c1
    Full point group: C1

    Geometry (in Angstrom), charge = 0, multiplicity = 1:

       Center              X                  Y                   Z               Mass
    ------------   -----------------  -----------------  -----------------  -----------------
         C           -1.649170154877    -1.385922961691     1.454865044913    12.000000000000
         C           -3.122170154877    -1.521922961691     1.083865044913    12.000000000000
         H           -1.093170154877    -2.245922961691     1.102865044913     1.007825032230
         H           -1.244170154877    -0.490922961691     0.985865044913     1.007825032230
         H           -1.520170154877    -1.273922961691     2.531865044913     1.007825032230
         H           -3.640170154877    -0.663922961691     1.504865044913     1.007825032230
         H           -3.564330154877    -2.450603961691     1.473795044913     1.007825032230
         H           -3.254750154877    -1.495261961691    -0.007794955087     1.007825032230
         C            1.163829845123    -1.277922961691    -2.099134955087    12.000000000000
         C           -0.285170154877     1.754077038309    -0.292134955087    12.000000000000
         C           -0.034170154877     0.783077038309    -1.270134955087    12.000000000000
         C            0.458829845123     1.788077038309     0.868865044913    12.000000000000
         C            0.957829845123    -0.185922961691    -1.074134955087    12.000000000000
         C            1.448829845123     0.829077038309     1.065865044913    12.000000000000
         C            1.694829845123    -0.156922961691     0.112865044913    12.000000000000
         H           -1.060170154877     2.492077038309    -0.449134955087     1.007825032230
         H           -0.627170154877     0.774077038309    -2.174134955087     1.007825032230
         H            0.272829845123     2.543077038309     1.617865044913     1.007825032230
         H            2.028829845123     0.846077038309     1.977865044913     1.007825032230
         H            2.197829845123    -1.624922961691    -2.066134955087     1.007825032230
         H            1.013829845123    -0.855922961691    -3.080134955087     1.007825032230
         H            2.465829845123    -0.877922961691     0.295865044913     1.007825032230
         H            0.482349845123    -2.126004961691    -1.936842955087     1.007825032230

  Running in c1 symmetry.

  Rotational constants: A =      0.05650  B =      0.03426  C =      0.02836 [cm^-1]
  Rotational constants: A =   1693.88117  B =   1027.02909  C =    850.12770 [MHz]
  Nuclear repulsion =  419.641189342784799

  Charge       = 0
  Multiplicity = 1
  Electrons    = 68
  Nalpha       = 34
  Nbeta        = 34

  ==> Algorithm <==

  SCF Algorithm Type is PK.
  DIIS enabled.
  MOM disabled.
  Fractional occupation disabled.
  Guess Type is SAD.
  Energy threshold   = 1.00e-06
  Density threshold  = 1.00e-10
  Integral threshold = 0.00e+00

  ==> Primary Basis <==

  Basis Set: CC-PVDZ
    Blend: CC-PVDZ
    Number of shells: 96
    Number of basis function: 196
    Number of Cartesian functions: 205
    Spherical Harmonics?: true
    Max angular momentum: 2

  ==> Pre-Iterations <==

   -------------------------------------------------------
    Irrep   Nso     Nmo     Nalpha   Nbeta   Ndocc  Nsocc
   -------------------------------------------------------
     A        196     196       0       0       0       0
   -------------------------------------------------------
    Total     196     196      34      34      34       0
   -------------------------------------------------------

  ==> Integral Setup <==

  Using integral reordering PK algorithm.
  Sizing the integral batches needed.
  Building batch lookup table.
   Calculation information:
      Number of atoms:                  23
      Number of AO shells:              96
      Number of primitives:            268
      Number of atomic orbitals:       205
      Number of basis functions:       196

      Integral cutoff                 1.00e-12
      Number of threads:                 1

	Batch   1 pq = [       0,    9405] index = [             0,44231715] size =     44231715
	Batch   2 pq = [    9405,   13301] index = [      44231715,88464951] size =     44233236
	Batch   3 pq = [   13301,   16290] index = [      88464951,132690195] size =     44225244
	Batch   4 pq = [   16290,   18810] index = [     132690195,176917455] size =     44227260
	Batch   5 pq = [   18810,   19306] index = [     176917455,186370471] size =      9453016
  Task number: 17
  Buffer size: 11059200
  Buffer per thread: 2
  We computed 10619524 shell quartets total.
  Whereas there are 10841496 unique shell quartets.

  ==> DiskJK: Disk-Based J/K Matrices <==

    J tasked:                  Yes
    K tasked:                  Yes
    wK tasked:                  No
    Memory [MiB]:              375
    Schwarz Cutoff:          1E-12

    OpenMP threads:              1

  Minimum eigenvalue in the overlap matrix is 3.1550601639E-04.
  Using Symmetric Orthogonalization.

  SCF Guess: Superposition of Atomic Densities via on-the-fly atomic UHF.

  ==> Iterations <==

                        Total Energy        Delta E     RMS |[F,P]|

   @RHF iter SAD:  -347.87770892922134   -3.47878e+02   0.00000e+00
   @RHF iter   1:  -348.76772551255777   -8.90017e-01   2.89137e-03 DIIS
   @RHF iter   2:  -348.95974307735304   -1.92018e-01   1.19041e-03 DIIS
   @RHF iter   3:  -348.98937698494666   -2.96339e-02   2.56105e-04 DIIS
   @RHF iter   4:  -348.99181687078095   -2.43989e-03   4.98458e-05 DIIS
   @RHF iter   5:  -348.99188432238736   -6.74516e-05   1.66630e-05 DIIS
   @RHF iter   6:  -348.99189121686635   -6.89448e-06   4.58011e-06 DIIS
   @RHF iter   7:  -348.99189180980346   -5.92937e-07   1.30165e-06 DIIS
   @RHF iter   8:  -348.99189186110482   -5.13014e-08   2.94855e-07 DIIS
   @RHF iter   9:  -348.99189186638279   -5.27797e-09   1.16349e-07 DIIS
   @RHF iter  10:  -348.99189186742575   -1.04296e-09   5.22768e-08 DIIS
   @RHF iter  11:  -348.99189186774390   -3.18153e-10   2.02831e-08 DIIS
   @RHF iter  12:  -348.99189186779950   -5.55929e-11   9.25959e-09 DIIS
   @RHF iter  13:  -348.99189186781149   -1.19940e-11   3.84337e-09 DIIS
   @RHF iter  14:  -348.99189186780990    1.59162e-12   9.62256e-10 DIIS
   @RHF iter  15:  -348.99189186780916    7.38964e-13   3.36581e-10 DIIS
   @RHF iter  16:  -348.99189186781041   -1.25056e-12   1.18701e-10 DIIS
   @RHF iter  17:  -348.99189186781012    2.84217e-13   5.17177e-11 DIIS
  Energy and wave function converged.

  ==> Post-Iterations <==

    Orbital Energies [Eh]
    ---------------------

    Doubly Occupied:

       1A    -11.243640     2A    -11.236296     3A    -11.236153
       4A    -11.232793     5A    -11.231261     6A    -11.230820
       7A    -11.229956     8A    -11.210436     9A    -11.201523
      10A     -1.152927    11A     -1.045778    12A     -1.010968
      13A     -1.008597    14A     -0.933647    15A     -0.827114
      16A     -0.825778    17A     -0.795661    18A     -0.692769
      19A     -0.631340    20A     -0.630794    21A     -0.591148
      22A     -0.587701    23A     -0.581649    24A     -0.578353
      25A     -0.564897    26A     -0.536760    27A     -0.501375
      28A     -0.487014    29A     -0.484435    30A     -0.482431
      31A     -0.475985    32A     -0.463602    33A     -0.332508
      34A     -0.324300

    Virtual:

      35A      0.133733    36A      0.139700    37A      0.173415
      38A      0.197127    39A      0.204523    40A      0.216230
      41A      0.237651    42A      0.248777    43A      0.252734
      44A      0.255714    45A      0.268722    46A      0.276940
      47A      0.285864    48A      0.298941    49A      0.306045
      50A      0.330853    51A      0.365054    52A      0.374847
      53A      0.405432    54A      0.450717    55A      0.463739
      56A      0.476319    57A      0.488722    58A      0.556005
      59A      0.580015    60A      0.588446    61A      0.601664
      62A      0.618614    63A      0.639370    64A      0.660801
      65A      0.676039    66A      0.679231    67A      0.685682
      68A      0.697264    69A      0.741501    70A      0.742932
      71A      0.754133    72A      0.760463    73A      0.765739
      74A      0.779112    75A      0.805409    76A      0.837373
      77A      0.840599    78A      0.854838    79A      0.865525
      80A      0.876349    81A      0.885575    82A      0.892208
      83A      0.896229    84A      0.898652    85A      0.903197
      86A      0.917270    87A      0.922001    88A      0.925759
      89A      0.931712    90A      0.940481    91A      0.941059
      92A      0.965374    93A      0.976346    94A      0.998253
      95A      1.043588    96A      1.117360    97A      1.125872
      98A      1.131148    99A      1.138269   100A      1.149755
     101A      1.154681   102A      1.163008   103A      1.197956
     104A      1.233682   105A      1.238995   106A      1.249513
     107A      1.258948   108A      1.291853   109A      1.303136
     110A      1.316775   111A      1.322713   112A      1.367824
     113A      1.443751   114A      1.481795   115A      1.490559
     116A      1.509936   117A      1.516455   118A      1.565671
     119A      1.598545   120A      1.623419   121A      1.661228
     122A      1.691857   123A      1.700149   124A      1.709246
     125A      1.733689   126A      1.748212   127A      1.761064
     128A      1.788930   129A      1.822870   130A      1.858372
     131A      1.869377   132A      1.876162   133A      1.889882
     134A      1.896232   135A      1.904309   136A      1.916401
     137A      1.920480   138A      1.939628   139A      1.942308
     140A      1.947216   141A      1.952742   142A      1.960295
     143A      1.967355   144A      1.973570   145A      1.982497
     146A      1.986573   147A      1.996653   148A      2.021167
     149A      2.044920   150A      2.065413   151A      2.069855
     152A      2.102067   153A      2.110316   154A      2.134498
     155A      2.151970   156A      2.159622   157A      2.175089
     158A      2.179046   159A      2.190091   160A      2.259159
     161A      2.277291   162A      2.284928   163A      2.303923
     164A      2.308163   165A      2.315598   166A      2.320717
     167A      2.342975   168A      2.451994   169A      2.477460
     170A      2.484594   171A      2.489244   172A      2.496328
     173A      2.532527   174A      2.565671   175A      2.599910
     176A      2.626321   177A      2.749738   178A      2.753456
     179A      2.771022   180A      2.773925   181A      2.787017
     182A      2.812134   183A      2.822904   184A      2.843719
     185A      2.867018   186A      2.883706   187A      2.888472
     188A      2.965117   189A      2.990282   190A      3.005543
     191A      3.010050   192A      3.023180   193A      3.149463
     194A      3.198568   195A      3.295581   196A      3.963013

    Final Occupation by Irrep:
              A
    DOCC [    34 ]

  @RHF Final Energy:  -348.99189186781012

   => Energetics <=

    Nuclear Repulsion Energy =            419.6411893427847986
    One-Electron Energy =               -1302.0653417961391369
    Two-Electron Energy =                 533.4322605855442134
    Total Energy =                       -348.9918918678100681

Computation Completed

Properties will be evaluated at   0.000000,   0.000000,   0.000000 [a0]

Properties computed using the SCF density matrix

  Nuclear Dipole Moment: [e a0]
     X:    -7.0710      Y:    -6.9842      Z:     1.6656

  Electronic Dipole Moment: [e a0]
     X:     7.1801      Y:     6.9577      Z:    -1.7751

  Dipole Moment: [e a0]
     X:     0.1092      Y:    -0.0264      Z:    -0.1095     Total:     0.1569

  Dipole Moment: [D]
     X:     0.2775      Y:    -0.0672      Z:    -0.2784     Total:     0.3988

*** tstop() called on ds3 at Mon Apr 27 08:26:40 2020
Module time:
	user time   =      72.73 seconds =       1.21 minutes
	system time =      25.17 seconds =       0.42 minutes
	total time  =        234 seconds =       3.90 minutes
Total time:
	user time   =      72.73 seconds =       1.21 minutes
	system time =      25.17 seconds =       0.42 minutes
	total time  =        234 seconds =       3.90 minutes
                                     G D M A

                                 by Anthony Stone

                           version 2.2.06, 22 June 2011

               Distributed Multipoles from Gaussian wavefunctions

Starting at 8:26:40 on 27 Apr 2020

Using SCF density matrix from file ./SSI/SSI-082VAL-127PHE-1-dimer.test.868.fchk

                         Distributed Multipole Analysis

Standard DMA

Positions and radii in angstrom
Multipole moments in atomic units, ea_0^k for rank k

C          x = -1.649170  y = -1.385923  z =  1.454865 angstrom
           Maximum rank =  0   Radius =  0.650 angstrom
                   Q00  =  -0.244290

C          x = -3.122170  y = -1.521923  z =  1.083865 angstrom
           Maximum rank =  0   Radius =  0.650 angstrom
                   Q00  =  -0.228448

H          x = -1.093170  y = -2.245923  z =  1.102865 angstrom
           Maximum rank =  0   Radius =  0.325 angstrom
                   Q00  =   0.071794

H          x = -1.244170  y = -0.490923  z =  0.985865 angstrom
           Maximum rank =  0   Radius =  0.325 angstrom
                   Q00  =   0.098479

H          x = -1.520170  y = -1.273923  z =  2.531865 angstrom
           Maximum rank =  0   Radius =  0.325 angstrom
                   Q00  =   0.071841

H          x = -3.640170  y = -0.663923  z =  1.504865 angstrom
           Maximum rank =  0   Radius =  0.325 angstrom
                   Q00  =   0.073992

H          x = -3.564330  y = -2.450604  z =  1.473795 angstrom
           Maximum rank =  0   Radius =  0.325 angstrom
                   Q00  =   0.075128

H          x = -3.254750  y = -1.495262  z = -0.007795 angstrom
           Maximum rank =  0   Radius =  0.325 angstrom
                   Q00  =   0.073465

C          x =  1.163830  y = -1.277923  z = -2.099135 angstrom
           Maximum rank =  0   Radius =  0.650 angstrom
                   Q00  =  -0.203509

C          x = -0.285170  y =  1.754077  z = -0.292135 angstrom
           Maximum rank =  0   Radius =  0.650 angstrom
                   Q00  =  -0.082376

C          x = -0.034170  y =  0.783077  z = -1.270135 angstrom
           Maximum rank =  0   Radius =  0.650 angstrom
                   Q00  =  -0.075708

C          x =  0.458830  y =  1.788077  z =  0.868865 angstrom
           Maximum rank =  0   Radius =  0.650 angstrom
                   Q00  =  -0.089907

C          x =  0.957830  y = -0.185923  z = -1.074135 angstrom
           Maximum rank =  0   Radius =  0.650 angstrom
                   Q00  =  -0.095990

C          x =  1.448830  y =  0.829077  z =  1.065865 angstrom
           Maximum rank =  0   Radius =  0.650 angstrom
                   Q00  =   0.027513

C          x =  1.694830  y = -0.156923  z =  0.112865 angstrom
           Maximum rank =  0   Radius =  0.650 angstrom
                   Q00  =  -0.084950

H          x = -1.060170  y =  2.492077  z = -0.449135 angstrom
           Maximum rank =  0   Radius =  0.325 angstrom
                   Q00  =   0.064157

H          x = -0.627170  y =  0.774077  z = -2.174135 angstrom
           Maximum rank =  0   Radius =  0.325 angstrom
                   Q00  =   0.057653

H          x =  0.272830  y =  2.543077  z =  1.617865 angstrom
           Maximum rank =  0   Radius =  0.325 angstrom
                   Q00  =   0.062131

H          x =  2.028830  y =  0.846077  z =  1.977865 angstrom
           Maximum rank =  0   Radius =  0.325 angstrom
                   Q00  =   0.064289

H          x =  2.197830  y = -1.624923  z = -2.066135 angstrom
           Maximum rank =  0   Radius =  0.325 angstrom
                   Q00  =   0.098424

H          x =  1.013830  y = -0.855923  z = -3.080135 angstrom
           Maximum rank =  0   Radius =  0.325 angstrom
                   Q00  =   0.101678

H          x =  2.465830  y = -0.877923  z =  0.295865 angstrom
           Maximum rank =  0   Radius =  0.325 angstrom
                   Q00  =   0.058138

H          x =  0.482350  y = -2.126005  z = -1.936843 angstrom
           Maximum rank =  0   Radius =  0.325 angstrom
                   Q00  =   0.106495

Total multipoles referred to origin at
           x =   0.000000,  y =    0.000000,  z =    0.000000 angstrom
                   Q00  =  -0.000000

Finished at 8:26:40 on 27 Apr 2020

  DMA results are available in the Python driver through the
	  variable('DMA DISTRIBUTED MULTIPOLES')
  and
	  variable('DMA TOTAL MULTIPOLES')
  commands.

    Psi4 stopped on: Monday, 27 April 2020 08:26AM
    Psi4 wall time for execution: 0:03:54.04

*** Psi4 exiting successfully. Buy a developer a beer!
