                               Psi4 1.3.2 release

  ==> Input File <==

--------------------------------------------------------------------------
import numpy as np
set {scf_type pk
basis cc-pvdz
d_convergence 10
gdma_switch   0
gdma_limit    0
gdma_origin   [ 0.0,  0.0,  0.0 ]
}
molecule test {
    units Angstrom
    0 1
    --
    0 1
    C               -0.195912888234335     2.360203910710028    -1.507271600408348
    C               -0.788912888234335     3.767203910710028    -1.565271600408348
    C                0.757087111765665     2.037203910710028    -0.392271600408348
    C                0.284087111765665     1.597203910710028     0.847728399591652
    C                2.133087111765665     2.062203910710028    -0.623271600408348
    C                1.174087111765665     1.180203910710028     1.839728399591652
    C                3.026087111765664     1.646203910710028     0.354728399591652
    C                2.549087111765665     1.199203910710028     1.586728399591652
    O                3.432087111765664     0.771203910710028     2.532728399591653
    H               -1.016912888234335     1.642203910710028    -1.468271600408348
    H                0.326087111765665     2.170203910710028    -2.445271600408347
    H                0.011087111765665     4.491203910710028    -1.521271600408348
    H               -0.780912888234335     1.545203910710028     1.027728399591652
    H                2.517087111765664     2.403203910710028    -1.562271600408348
    H                0.800087111765665     0.830203910710028     2.787728399591652
    H                4.078087111765664     1.678203910710028     0.150728399591652
    H                2.987087111765665     0.556203910710028     3.355728399591653
    H               -1.485402888234335     3.924843910710027    -0.728581600408348
    H               -1.292212888234335     3.814933910710028    -2.542211600408348
    C               -3.585912888234335    -0.924796089289972    -2.003271600408348
    C               -1.392912888234335    -1.526796089289972    -0.739271600408348
    C               -2.819912888234335    -1.393796089289972    -0.827271600408348
    C               -1.100912888234335    -2.090796089289972     0.528728399591652
    C               -3.324912888234335    -1.856796089289972     0.343728399591652
    C               -0.329912888234335    -1.232796089289972    -1.607271600408348
    C                0.976087111765665    -1.504796089289972    -1.191271600408348
    C                1.232087111765665    -2.063796089289972     0.073728399591652
    C                0.199087111765665    -2.361796089289972     0.945728399591652
    N               -2.302912888234335    -2.276796089289972     1.159728399591652
    H               -0.519912888234335    -0.804796089289972    -2.580271600408348
    H                1.808087111765665    -1.277796089289972    -1.845271600408348
    H                2.254087111765665    -2.256796089289972     0.371728399591652
    H               -4.354912888234336    -1.664796089289972    -2.208271600408347
    H               -2.911912888234335    -0.923796089289972    -2.859271600408348
    H               -4.380912888234334    -1.916796089289972     0.583728399591652
    H               -2.443912888234335    -2.727796089289972     2.062728399591652
    H                0.390087111765665    -2.789796089289972     1.918728399591652
    H               -4.067382888234334     0.062643910710028    -1.947051600408348

}
e, wfn = energy('scf', return_wfn=True)
gdma(wfn)
dmavals = variable('DMA DISTRIBUTED MULTIPOLES')
charges = np.array(dmavals)
print(charges)
np.save('SSI-080TYR-129TRP-1-dimer.npy', np.array(charges))--------------------------------------------------------------------------

*** tstart() called on ds3
*** at Mon Apr 27 18:02:05 2020

   => Loading Basis Set <=

    Name: CC-PVDZ
    Role: ORBITAL
    Keyword: BASIS
    atoms 1-8, 20-28   entry C          line   138 file /theoryfs2/ds/metcalf/miniconda2/envs/tf2gpu/share/psi4/basis/cc-pvdz.gbs
    atoms 9            entry O          line   198 file /theoryfs2/ds/metcalf/miniconda2/envs/tf2gpu/share/psi4/basis/cc-pvdz.gbs
    atoms 10-19, 30-38 entry H          line    22 file /theoryfs2/ds/metcalf/miniconda2/envs/tf2gpu/share/psi4/basis/cc-pvdz.gbs
    atoms 29           entry N          line   168 file /theoryfs2/ds/metcalf/miniconda2/envs/tf2gpu/share/psi4/basis/cc-pvdz.gbs

         ---------------------------------------------------------
                                   SCF
               by Justin Turney, Rob Parrish, Andy Simmonett
                          and Daniel G. A. Smith
                              RHF Reference
                        1 Threads,    500 MiB Core
         ---------------------------------------------------------

  ==> Geometry <==

    Molecular point group: c1
    Full point group: C1

    Geometry (in Angstrom), charge = 0, multiplicity = 1:

       Center              X                  Y                   Z               Mass
    ------------   -----------------  -----------------  -----------------  -----------------
         C           -0.195912888234     2.360203910710    -1.507271600408    12.000000000000
         C           -0.788912888234     3.767203910710    -1.565271600408    12.000000000000
         C            0.757087111766     2.037203910710    -0.392271600408    12.000000000000
         C            0.284087111766     1.597203910710     0.847728399592    12.000000000000
         C            2.133087111766     2.062203910710    -0.623271600408    12.000000000000
         C            1.174087111766     1.180203910710     1.839728399592    12.000000000000
         C            3.026087111766     1.646203910710     0.354728399592    12.000000000000
         C            2.549087111766     1.199203910710     1.586728399592    12.000000000000
         O            3.432087111766     0.771203910710     2.532728399592    15.994914619570
         H           -1.016912888234     1.642203910710    -1.468271600408     1.007825032230
         H            0.326087111766     2.170203910710    -2.445271600408     1.007825032230
         H            0.011087111766     4.491203910710    -1.521271600408     1.007825032230
         H           -0.780912888234     1.545203910710     1.027728399592     1.007825032230
         H            2.517087111766     2.403203910710    -1.562271600408     1.007825032230
         H            0.800087111766     0.830203910710     2.787728399592     1.007825032230
         H            4.078087111766     1.678203910710     0.150728399592     1.007825032230
         H            2.987087111766     0.556203910710     3.355728399592     1.007825032230
         H           -1.485402888234     3.924843910710    -0.728581600408     1.007825032230
         H           -1.292212888234     3.814933910710    -2.542211600408     1.007825032230
         C           -3.585912888234    -0.924796089290    -2.003271600408    12.000000000000
         C           -1.392912888234    -1.526796089290    -0.739271600408    12.000000000000
         C           -2.819912888234    -1.393796089290    -0.827271600408    12.000000000000
         C           -1.100912888234    -2.090796089290     0.528728399592    12.000000000000
         C           -3.324912888234    -1.856796089290     0.343728399592    12.000000000000
         C           -0.329912888234    -1.232796089290    -1.607271600408    12.000000000000
         C            0.976087111766    -1.504796089290    -1.191271600408    12.000000000000
         C            1.232087111766    -2.063796089290     0.073728399592    12.000000000000
         C            0.199087111766    -2.361796089290     0.945728399592    12.000000000000
         N           -2.302912888234    -2.276796089290     1.159728399592    14.003074004430
         H           -0.519912888234    -0.804796089290    -2.580271600408     1.007825032230
         H            1.808087111766    -1.277796089290    -1.845271600408     1.007825032230
         H            2.254087111766    -2.256796089290     0.371728399592     1.007825032230
         H           -4.354912888234    -1.664796089290    -2.208271600408     1.007825032230
         H           -2.911912888234    -0.923796089290    -2.859271600408     1.007825032230
         H           -4.380912888234    -1.916796089290     0.583728399592     1.007825032230
         H           -2.443912888234    -2.727796089290     2.062728399592     1.007825032230
         H            0.390087111766    -2.789796089290     1.918728399592     1.007825032230
         H           -4.067382888234     0.062643910710    -1.947051600408     1.007825032230

  Running in c1 symmetry.

  Rotational constants: A =      0.01710  B =      0.00955  C =      0.00743 [cm^-1]
  Rotational constants: A =    512.60215  B =    286.32903  C =    222.66557 [MHz]
  Nuclear repulsion = 1378.406591280720477

  Charge       = 0
  Multiplicity = 1
  Electrons    = 136
  Nalpha       = 68
  Nbeta        = 68

  ==> Algorithm <==

  SCF Algorithm Type is PK.
  DIIS enabled.
  MOM disabled.
  Fractional occupation disabled.
  Guess Type is SAD.
  Energy threshold   = 1.00e-06
  Density threshold  = 1.00e-10
  Integral threshold = 0.00e+00

  ==> Primary Basis <==

  Basis Set: CC-PVDZ
    Blend: CC-PVDZ
    Number of shells: 171
    Number of basis function: 361
    Number of Cartesian functions: 380
    Spherical Harmonics?: true
    Max angular momentum: 2

  ==> Pre-Iterations <==

   -------------------------------------------------------
    Irrep   Nso     Nmo     Nalpha   Nbeta   Ndocc  Nsocc
   -------------------------------------------------------
     A        361     361       0       0       0       0
   -------------------------------------------------------
    Total     361     361      68      68      68       0
   -------------------------------------------------------

  ==> Integral Setup <==

  Using Yoshimine PK algorithm.
  Sizing the integral batches needed.
  Building batch lookup table.
   Calculation information:
      Number of atoms:                  38
      Number of AO shells:             171
      Number of primitives:            513
      Number of atomic orbitals:       380
      Number of basis functions:       361

      Integral cutoff                 1.00e-12
      Number of threads:                 1

	Batch   1 pq = [       0,    9405] index = [             0,44231715] size =     44231715
	Batch   2 pq = [    9405,   13301] index = [      44231715,88464951] size =     44233236
	Batch   3 pq = [   13301,   16290] index = [      88464951,132690195] size =     44225244
	Batch   4 pq = [   16290,   18810] index = [     132690195,176917455] size =     44227260
	Batch   5 pq = [   18810,   21030] index = [     176917455,221140965] size =     44223510
	Batch   6 pq = [   21030,   23037] index = [     221140965,265363203] size =     44222238
	Batch   7 pq = [   23037,   24883] index = [     265363203,309594286] size =     44231083
	Batch   8 pq = [   24883,   26601] index = [     309594286,353819901] size =     44225615
	Batch   9 pq = [   26601,   28214] index = [     353819901,398029005] size =     44209104
	Batch  10 pq = [   28214,   29740] index = [     398029005,442248670] size =     44219665
	Batch  11 pq = [   29740,   31191] index = [     442248670,486454836] size =     44206166
	Batch  12 pq = [   31191,   32578] index = [     486454836,530679331] size =     44224495
	Batch  13 pq = [   32578,   33908] index = [     530679331,574893186] size =     44213855
	Batch  14 pq = [   33908,   35188] index = [     574893186,619115266] size =     44222080
	Batch  15 pq = [   35188,   36423] index = [     619115266,663335676] size =     44220410
	Batch  16 pq = [   36423,   37617] index = [     663335676,707538153] size =     44202477
	Batch  17 pq = [   37617,   38775] index = [     707538153,751769700] size =     44231547
	Batch  18 pq = [   38775,   39899] index = [     751769700,795985050] size =     44215350
	Batch  19 pq = [   39899,   40992] index = [     795985050,840192528] size =     44207478
	Batch  20 pq = [   40992,   42057] index = [     840192528,884416653] size =     44224125
	Batch  21 pq = [   42057,   43095] index = [     884416653,928611060] size =     44194407
	Batch  22 pq = [   43095,   44109] index = [     928611060,972823995] size =     44212935
	Batch  23 pq = [   44109,   45100] index = [     972823995,1017027550] size =     44203555
	Batch  24 pq = [   45100,   46070] index = [    1017027550,1061245485] size =     44217935
	Batch  25 pq = [   46070,   47020] index = [    1061245485,1105463710] size =     44218225
	Batch  26 pq = [   47020,   47951] index = [    1105463710,1149673176] size =     44209466
	Batch  27 pq = [   47951,   48864] index = [    1149673176,1193869680] size =     44196504
	Batch  28 pq = [   48864,   49761] index = [    1193869680,1238103441] size =     44233761
	Batch  29 pq = [   49761,   50642] index = [    1238103441,1282331403] size =     44227962
	Batch  30 pq = [   50642,   51508] index = [    1282331403,1326562786] size =     44231383
	Batch  31 pq = [   51508,   52359] index = [    1326562786,1370758620] size =     44195834
	Batch  32 pq = [   52359,   53197] index = [    1370758620,1414987003] size =     44228383
	Batch  33 pq = [   53197,   54022] index = [    1414987003,1459215253] size =     44228250
	Batch  34 pq = [   54022,   54834] index = [    1459215253,1503411195] size =     44195942
	Batch  35 pq = [   54834,   55634] index = [    1503411195,1547598795] size =     44187600
	Batch  36 pq = [   55634,   56423] index = [    1547598795,1591805676] size =     44206881
	Batch  37 pq = [   56423,   57201] index = [    1591805676,1636005801] size =     44200125
	Batch  38 pq = [   57201,   57969] index = [    1636005801,1680231465] size =     44225664
	Batch  39 pq = [   57969,   58727] index = [    1680231465,1724459628] size =     44228163
	Batch  40 pq = [   58727,   59475] index = [    1724459628,1768667550] size =     44207922
	Batch  41 pq = [   59475,   60214] index = [    1768667550,1812893005] size =     44225455
	Batch  42 pq = [   60214,   60944] index = [    1812893005,1857116040] size =     44223035
	Batch  43 pq = [   60944,   61665] index = [    1857116040,1901316945] size =     44200905
	Batch  44 pq = [   61665,   62378] index = [    1901316945,1945538631] size =     44221686
	Batch  45 pq = [   62378,   63083] index = [    1945538631,1989763986] size =     44225355
	Batch  46 pq = [   63083,   63780] index = [    1989763986,2033976090] size =     44212104
	Batch  47 pq = [   63780,   64469] index = [    2033976090,2078158215] size =     44182125
	Batch  48 pq = [   64469,   65151] index = [    2078158215,2122358976] size =     44200761
	Batch  49 pq = [   65151,   65341] index = [    2122358976,2134755811] size =     12396835
  ==> DiskJK: Disk-Based J/K Matrices <==

    J tasked:                  Yes
    K tasked:                  Yes
    wK tasked:                  No
    Memory [MiB]:              375
    Schwarz Cutoff:          1E-12

    OpenMP threads:              1

  Minimum eigenvalue in the overlap matrix is 2.3583771649E-04.
  Using Symmetric Orthogonalization.

  SCF Guess: Superposition of Atomic Densities via on-the-fly atomic UHF.

  ==> Iterations <==

                        Total Energy        Delta E     RMS |[F,P]|

   @RHF iter SAD:  -783.40944884441592   -7.83409e+02   0.00000e+00
   @RHF iter   1:  -783.77596057322296   -3.66512e-01   2.16016e-03 DIIS
   @RHF iter   2:  -784.11566813710147   -3.39708e-01   9.82470e-04 DIIS
   @RHF iter   3:  -784.17911429048218   -6.34462e-02   2.67057e-04 DIIS
   @RHF iter   4:  -784.18513861073438   -6.02432e-03   1.24105e-04 DIIS
   @RHF iter   5:  -784.18630013886752   -1.16153e-03   1.76768e-05 DIIS
   @RHF iter   6:  -784.18634363359752   -4.34947e-05   8.19229e-06 DIIS
   @RHF iter   7:  -784.18635293193438   -9.29834e-06   3.02189e-06 DIIS
   @RHF iter   8:  -784.18635505362829   -2.12169e-06   1.19212e-06 DIIS
   @RHF iter   9:  -784.18635547029680   -4.16669e-07   5.79213e-07 DIIS
   @RHF iter  10:  -784.18635557277446   -1.02478e-07   2.66972e-07 DIIS
   @RHF iter  11:  -784.18635560078974   -2.80153e-08   9.96627e-08 DIIS
   @RHF iter  12:  -784.18635560441544   -3.62570e-09   4.27493e-08 DIIS
   @RHF iter  13:  -784.18635560482619   -4.10751e-10   1.44362e-08 DIIS
   @RHF iter  14:  -784.18635560484233   -1.61435e-11   4.83606e-09 DIIS
   @RHF iter  15:  -784.18635560485859   -1.62572e-11   1.87633e-09 DIIS
   @RHF iter  16:  -784.18635560485052    8.07177e-12   9.34414e-10 DIIS
   @RHF iter  17:  -784.18635560485325   -2.72848e-12   4.22513e-10 DIIS
   @RHF iter  18:  -784.18635560485677   -3.52429e-12   1.82409e-10 DIIS
   @RHF iter  19:  -784.18635560485995   -3.18323e-12   9.07152e-11 DIIS
  Energy and wave function converged.

  ==> Post-Iterations <==

    Orbital Energies [Eh]
    ---------------------

    Doubly Occupied:

       1A    -20.576867     2A    -15.601124     3A    -11.291495
       4A    -11.261376     5A    -11.261287     6A    -11.228861
       7A    -11.228118     8A    -11.227122     9A    -11.226503
      10A    -11.225214    11A    -11.224412    12A    -11.224063
      13A    -11.219506    14A    -11.219188    15A    -11.218331
      16A    -11.217908    17A    -11.216513    18A    -11.215309
      19A    -11.214983    20A     -1.393999    21A     -1.294450
      22A     -1.140901    23A     -1.123377    24A     -1.074529
      25A     -1.049007    26A     -1.008667    27A     -0.993673
      28A     -0.985075    29A     -0.969222    30A     -0.931964
      31A     -0.853538    32A     -0.836912    33A     -0.833571
      34A     -0.800556    35A     -0.782165    36A     -0.750756
      37A     -0.724224    38A     -0.717652    39A     -0.662234
      40A     -0.660822    41A     -0.639461    42A     -0.638355
      43A     -0.605848    44A     -0.601848    45A     -0.592505
      46A     -0.588995    47A     -0.587488    48A     -0.578639
      49A     -0.576710    50A     -0.567685    51A     -0.561383
      52A     -0.552772    53A     -0.539402    54A     -0.537666
      55A     -0.521803    56A     -0.516118    57A     -0.491468
      58A     -0.489055    59A     -0.470293    60A     -0.468692
      61A     -0.464740    62A     -0.461743    63A     -0.445267
      64A     -0.371047    65A     -0.328408    66A     -0.293668
      67A     -0.288925    68A     -0.270304

    Virtual:

      69A      0.126517    70A      0.140550    71A      0.156094
      72A      0.171229    73A      0.174040    74A      0.183115
      75A      0.185611    76A      0.198263    77A      0.202418
      78A      0.216914    79A      0.221256    80A      0.223500
      81A      0.230607    82A      0.241223    83A      0.252120
      84A      0.255833    85A      0.263415    86A      0.269817
      87A      0.277819    88A      0.293377    89A      0.302787
      90A      0.307606    91A      0.312632    92A      0.332827
      93A      0.361885    94A      0.374750    95A      0.384011
      96A      0.393677    97A      0.407617    98A      0.420355
      99A      0.429273   100A      0.433957   101A      0.447547
     102A      0.470503   103A      0.479627   104A      0.483494
     105A      0.492947   106A      0.508509   107A      0.513695
     108A      0.519180   109A      0.533919   110A      0.579035
     111A      0.601136   112A      0.604996   113A      0.608859
     114A      0.624896   115A      0.635783   116A      0.642030
     117A      0.650200   118A      0.655265   119A      0.662617
     120A      0.670040   121A      0.682808   122A      0.689286
     123A      0.700102   124A      0.710148   125A      0.718493
     126A      0.721089   127A      0.725670   128A      0.734353
     129A      0.741720   130A      0.743519   131A      0.744280
     132A      0.753447   133A      0.757942   134A      0.767575
     135A      0.771427   136A      0.780466   137A      0.791936
     138A      0.792779   139A      0.799038   140A      0.817715
     141A      0.822860   142A      0.833975   143A      0.852117
     144A      0.858940   145A      0.869157   146A      0.872417
     147A      0.874902   148A      0.885651   149A      0.889367
     150A      0.895923   151A      0.897957   152A      0.902369
     153A      0.906746   154A      0.910193   155A      0.915885
     156A      0.926205   157A      0.926458   158A      0.937459
     159A      0.939061   160A      0.945398   161A      0.949129
     162A      0.955154   163A      0.957971   164A      0.966377
     165A      0.974437   166A      0.979714   167A      0.989086
     168A      1.002794   169A      1.016886   170A      1.017486
     171A      1.030852   172A      1.041503   173A      1.043358
     174A      1.073440   175A      1.079304   176A      1.088294
     177A      1.104101   178A      1.121054   179A      1.133684
     180A      1.136544   181A      1.148445   182A      1.150913
     183A      1.157608   184A      1.160705   185A      1.176216
     186A      1.193071   187A      1.201121   188A      1.216135
     189A      1.226018   190A      1.232521   191A      1.236514
     192A      1.251084   193A      1.259197   194A      1.269910
     195A      1.273805   196A      1.288465   197A      1.289509
     198A      1.298625   199A      1.307689   200A      1.315042
     201A      1.318672   202A      1.330360   203A      1.345617
     204A      1.348714   205A      1.361168   206A      1.369955
     207A      1.374089   208A      1.378310   209A      1.396370
     210A      1.433624   211A      1.449512   212A      1.455642
     213A      1.464281   214A      1.497753   215A      1.509678
     216A      1.516229   217A      1.538272   218A      1.567687
     219A      1.572194   220A      1.594685   221A      1.608173
     222A      1.618317   223A      1.633085   224A      1.638812
     225A      1.647495   226A      1.671156   227A      1.681908
     228A      1.694159   229A      1.701210   230A      1.711729
     231A      1.731969   232A      1.736892   233A      1.750926
     234A      1.759284   235A      1.777607   236A      1.787102
     237A      1.798656   238A      1.816680   239A      1.822927
     240A      1.828802   241A      1.847423   242A      1.858138
     243A      1.869474   244A      1.870632   245A      1.885863
     246A      1.893182   247A      1.897793   248A      1.899713
     249A      1.907595   250A      1.911719   251A      1.916387
     252A      1.919551   253A      1.923792   254A      1.930880
     255A      1.941958   256A      1.947451   257A      1.954336
     258A      1.964561   259A      1.966323   260A      1.982220
     261A      1.984806   262A      1.999647   263A      2.001840
     264A      2.009621   265A      2.018950   266A      2.020541
     267A      2.029245   268A      2.035664   269A      2.038107
     270A      2.047676   271A      2.061967   272A      2.074209
     273A      2.081851   274A      2.086554   275A      2.089215
     276A      2.098581   277A      2.101558   278A      2.111984
     279A      2.118542   280A      2.130769   281A      2.136313
     282A      2.149625   283A      2.156784   284A      2.157750
     285A      2.172645   286A      2.178741   287A      2.184889
     288A      2.200034   289A      2.211442   290A      2.237805
     291A      2.250209   292A      2.269809   293A      2.272222
     294A      2.282767   295A      2.289410   296A      2.315535
     297A      2.324038   298A      2.334561   299A      2.341129
     300A      2.348404   301A      2.360679   302A      2.380511
     303A      2.395210   304A      2.415076   305A      2.425338
     306A      2.451352   307A      2.456403   308A      2.470430
     309A      2.472992   310A      2.475583   311A      2.500286
     312A      2.520510   313A      2.537656   314A      2.551126
     315A      2.564073   316A      2.576434   317A      2.596155
     318A      2.616025   319A      2.618762   320A      2.648559
     321A      2.654891   322A      2.672925   323A      2.689073
     324A      2.736861   325A      2.762940   326A      2.774108
     327A      2.783554   328A      2.785834   329A      2.790384
     330A      2.809415   331A      2.819379   332A      2.828052
     333A      2.835706   334A      2.857280   335A      2.862804
     336A      2.886571   337A      2.891071   338A      2.921964
     339A      2.937818   340A      2.984116   341A      2.993944
     342A      3.004558   343A      3.021511   344A      3.043432
     345A      3.058268   346A      3.073849   347A      3.111994
     348A      3.124070   349A      3.189895   350A      3.210179
     351A      3.261744   352A      3.301444   353A      3.307119
     354A      3.353534   355A      3.383802   356A      3.583434
     357A      3.689707   358A      3.740338   359A      3.950930
     360A      3.977943   361A      4.203487

    Final Occupation by Irrep:
              A
    DOCC [    68 ]

  @RHF Final Energy:  -784.18635560485995

   => Energetics <=

    Nuclear Repulsion Energy =           1378.4065912807204768
    One-Electron Energy =               -3803.7143611749925185
    Two-Electron Energy =                1641.1214142894120869
    Total Energy =                       -784.1863556048599548

Computation Completed

Properties will be evaluated at   0.000000,   0.000000,   0.000000 [a0]

Properties computed using the SCF density matrix

  Nuclear Dipole Moment: [e a0]
     X:    -7.5540      Y:     8.2194      Z:    -8.8495

  Electronic Dipole Moment: [e a0]
     X:     6.5474      Y:    -8.6191      Z:     9.5826

  Dipole Moment: [e a0]
     X:    -1.0066      Y:    -0.3996      Z:     0.7331     Total:     1.3078

  Dipole Moment: [D]
     X:    -2.5585      Y:    -1.0157      Z:     1.8634     Total:     3.3241

*** tstop() called on ds3 at Mon Apr 27 22:28:36 2020
Module time:
	user time   =     653.57 seconds =      10.89 minutes
	system time =     612.30 seconds =      10.21 minutes
	total time  =      15991 seconds =     266.52 minutes
Total time:
	user time   =     653.57 seconds =      10.89 minutes
	system time =     612.30 seconds =      10.21 minutes
	total time  =      15991 seconds =     266.52 minutes
                                     G D M A

                                 by Anthony Stone

                           version 2.2.06, 22 June 2011

               Distributed Multipoles from Gaussian wavefunctions

Starting at 22:28:36 on 27 Apr 2020

Using SCF density matrix from file ./SSI/SSI-080TYR-129TRP-1-dimer.test.18694.fchk

                         Distributed Multipole Analysis

Standard DMA

Positions and radii in angstrom
Multipole moments in atomic units, ea_0^k for rank k

C          x = -0.195913  y =  2.360204  z = -1.507272 angstrom
           Maximum rank =  0   Radius =  0.650 angstrom
                   Q00  =  -0.026150

C          x = -0.788913  y =  3.767204  z = -1.565272 angstrom
           Maximum rank =  0   Radius =  0.650 angstrom
                   Q00  =  -0.238505

C          x =  0.757087  y =  2.037204  z = -0.392272 angstrom
           Maximum rank =  0   Radius =  0.650 angstrom
                   Q00  =  -0.132019

C          x =  0.284087  y =  1.597204  z =  0.847728 angstrom
           Maximum rank =  0   Radius =  0.650 angstrom
                   Q00  =  -0.019072

C          x =  2.133087  y =  2.062204  z = -0.623272 angstrom
           Maximum rank =  0   Radius =  0.650 angstrom
                   Q00  =   0.032785

C          x =  1.174087  y =  1.180204  z =  1.839728 angstrom
           Maximum rank =  0   Radius =  0.650 angstrom
                   Q00  =  -0.191177

C          x =  3.026087  y =  1.646204  z =  0.354728 angstrom
           Maximum rank =  0   Radius =  0.650 angstrom
                   Q00  =  -0.113299

C          x =  2.549087  y =  1.199204  z =  1.586728 angstrom
           Maximum rank =  0   Radius =  0.650 angstrom
                   Q00  =   0.317061

O          x =  3.432087  y =  0.771204  z =  2.532728 angstrom
           Maximum rank =  0   Radius =  0.650 angstrom
                   Q00  =  -0.669783

H          x = -1.016913  y =  1.642204  z = -1.468272 angstrom
           Maximum rank =  0   Radius =  0.325 angstrom
                   Q00  =   0.066545

H          x =  0.326087  y =  2.170204  z = -2.445272 angstrom
           Maximum rank =  0   Radius =  0.325 angstrom
                   Q00  =   0.051972

H          x =  0.011087  y =  4.491204  z = -1.521272 angstrom
           Maximum rank =  0   Radius =  0.325 angstrom
                   Q00  =   0.084144

H          x = -0.780913  y =  1.545204  z =  1.027728 angstrom
           Maximum rank =  0   Radius =  0.325 angstrom
                   Q00  =   0.071693

H          x =  2.517087  y =  2.403204  z = -1.562272 angstrom
           Maximum rank =  0   Radius =  0.325 angstrom
                   Q00  =   0.057739

H          x =  0.800087  y =  0.830204  z =  2.787728 angstrom
           Maximum rank =  0   Radius =  0.325 angstrom
                   Q00  =   0.067506

H          x =  4.078087  y =  1.678204  z =  0.150728 angstrom
           Maximum rank =  0   Radius =  0.325 angstrom
                   Q00  =   0.074279

H          x =  2.987087  y =  0.556204  z =  3.355728 angstrom
           Maximum rank =  0   Radius =  0.325 angstrom
                   Q00  =   0.401688

H          x = -1.485403  y =  3.924844  z = -0.728582 angstrom
           Maximum rank =  0   Radius =  0.325 angstrom
                   Q00  =   0.080755

H          x = -1.292213  y =  3.814934  z = -2.542212 angstrom
           Maximum rank =  0   Radius =  0.325 angstrom
                   Q00  =   0.079953

C          x = -3.585913  y = -0.924796  z = -2.003272 angstrom
           Maximum rank =  0   Radius =  0.650 angstrom
                   Q00  =  -0.226696

C          x = -1.392913  y = -1.526796  z = -0.739272 angstrom
           Maximum rank =  0   Radius =  0.650 angstrom
                   Q00  =  -0.054261

C          x = -2.819913  y = -1.393796  z = -0.827272 angstrom
           Maximum rank =  0   Radius =  0.650 angstrom
                   Q00  =  -0.112116

C          x = -1.100913  y = -2.090796  z =  0.528728 angstrom
           Maximum rank =  0   Radius =  0.650 angstrom
                   Q00  =   0.287539

C          x = -3.324913  y = -1.856796  z =  0.343728 angstrom
           Maximum rank =  0   Radius =  0.650 angstrom
                   Q00  =   0.071233

C          x = -0.329913  y = -1.232796  z = -1.607272 angstrom
           Maximum rank =  0   Radius =  0.650 angstrom
                   Q00  =  -0.103122

C          x =  0.976087  y = -1.504796  z = -1.191272 angstrom
           Maximum rank =  0   Radius =  0.650 angstrom
                   Q00  =  -0.074164

C          x =  1.232087  y = -2.063796  z =  0.073728 angstrom
           Maximum rank =  0   Radius =  0.650 angstrom
                   Q00  =  -0.056008

C          x =  0.199087  y = -2.361796  z =  0.945728 angstrom
           Maximum rank =  0   Radius =  0.650 angstrom
                   Q00  =  -0.121739

N          x = -2.302913  y = -2.276796  z =  1.159728 angstrom
           Maximum rank =  0   Radius =  0.650 angstrom
                   Q00  =  -0.493960

H          x = -0.519913  y = -0.804796  z = -2.580272 angstrom
           Maximum rank =  0   Radius =  0.325 angstrom
                   Q00  =   0.069046

H          x =  1.808087  y = -1.277796  z = -1.845272 angstrom
           Maximum rank =  0   Radius =  0.325 angstrom
                   Q00  =   0.062183

H          x =  2.254087  y = -2.256796  z =  0.371728 angstrom
           Maximum rank =  0   Radius =  0.325 angstrom
                   Q00  =   0.067771

H          x = -4.354913  y = -1.664796  z = -2.208272 angstrom
           Maximum rank =  0   Radius =  0.325 angstrom
                   Q00  =   0.102441

H          x = -2.911913  y = -0.923796  z = -2.859272 angstrom
           Maximum rank =  0   Radius =  0.325 angstrom
                   Q00  =   0.106695

H          x = -4.380913  y = -1.916796  z =  0.583728 angstrom
           Maximum rank =  0   Radius =  0.325 angstrom
                   Q00  =   0.097864

H          x = -2.443913  y = -2.727796  z =  2.062728 angstrom
           Maximum rank =  0   Radius =  0.325 angstrom
                   Q00  =   0.214705

H          x =  0.390087  y = -2.789796  z =  1.918728 angstrom
           Maximum rank =  0   Radius =  0.325 angstrom
                   Q00  =   0.067431

H          x = -4.067383  y =  0.062644  z = -1.947052 angstrom
           Maximum rank =  0   Radius =  0.325 angstrom
                   Q00  =   0.099043

Total multipoles referred to origin at
           x =   0.000000,  y =    0.000000,  z =    0.000000 angstrom
                   Q00  =  -0.000000

Finished at 22:28:36 on 27 Apr 2020

  DMA results are available in the Python driver through the
	  variable('DMA DISTRIBUTED MULTIPOLES')
  and
	  variable('DMA TOTAL MULTIPOLES')
  commands.

    Psi4 stopped on: Monday, 27 April 2020 10:28PM
    Psi4 wall time for execution: 4:26:30.82

*** Psi4 exiting successfully. Buy a developer a beer!
