                               Psi4 1.3.2 release

  ==> Input File <==

--------------------------------------------------------------------------
import numpy as np
set {scf_type pk
basis cc-pvdz
d_convergence 10
gdma_switch   0
gdma_limit    0
gdma_origin   [ 0.0,  0.0,  0.0 ]
}
molecule test {
    units Angstrom
    0 1
    --
    0 1
    C                1.974307023719854     2.152526812581199    -1.064036132040519
    C                3.472307023719854     1.894526812581198    -1.092036132040519
    H                1.524307023719854     1.671526812581199    -1.929036132040518
    H                1.541307023719854     1.705526812581199    -0.173036132040519
    H                1.790307023719854     3.222526812581199    -1.119036132040519
    H                3.524307023719854     0.831526812581199    -1.026036132040519
    H                3.979477023719854     2.304306812581199    -0.206116132040519
    H                3.905597023719854     2.357166812581198    -1.991051132040519
    C                0.793307023719854    -1.359473187418802    -0.737036132040519
    C                0.416307023719854    -2.779473187418802    -1.202036132040519
    C               -0.286692976280146    -0.658473187418801     0.046963867959481
    C               -1.272692976280146     0.074526812581199    -0.606036132040519
    C               -0.293692976280146    -0.733473187418801     1.433963867959481
    C               -2.261692976280146     0.712526812581199     0.120963867959481
    C               -1.281692976280146    -0.088473187418801     2.173963867959481
    C               -2.259692976280146     0.648526812581199     1.506963867959481
    H                1.691307023719854    -1.412473187418801    -0.119036132040519
    H                1.047307023719854    -0.756473187418801    -1.610036132040519
    H                1.254307023719854    -3.274473187418802    -1.677036132040519
    H               -1.261692976280146     0.153526812581199    -1.683036132040519
    H                0.465307023719854    -1.305473187418802     1.949963867959481
    H               -3.022692976280146     1.293526812581199    -0.377036132040519
    H               -1.303692976280146    -0.183473187418801     3.247963867959481
    H               -3.034692976280146     1.150526812581198     2.069963867959481
    H               -0.388952976280146    -2.711423187418802    -1.948315132040519
    H                0.194187023719854    -3.418329187418802    -0.334556132040519

}
e, wfn = energy('scf', return_wfn=True)
gdma(wfn)
dmavals = variable('DMA DISTRIBUTED MULTIPOLES')
charges = np.array(dmavals)
print(charges)
np.save('SSI-031THR-128PHE-1-dimer.npy', np.array(charges))--------------------------------------------------------------------------

*** tstart() called on ds3
*** at Mon Apr 27 12:57:04 2020

   => Loading Basis Set <=

    Name: CC-PVDZ
    Role: ORBITAL
    Keyword: BASIS
    atoms 1-2, 9-16  entry C          line   138 file /theoryfs2/ds/metcalf/miniconda2/envs/tf2gpu/share/psi4/basis/cc-pvdz.gbs
    atoms 3-8, 17-26 entry H          line    22 file /theoryfs2/ds/metcalf/miniconda2/envs/tf2gpu/share/psi4/basis/cc-pvdz.gbs

         ---------------------------------------------------------
                                   SCF
               by Justin Turney, Rob Parrish, Andy Simmonett
                          and Daniel G. A. Smith
                              RHF Reference
                        1 Threads,    500 MiB Core
         ---------------------------------------------------------

  ==> Geometry <==

    Molecular point group: c1
    Full point group: C1

    Geometry (in Angstrom), charge = 0, multiplicity = 1:

       Center              X                  Y                   Z               Mass
    ------------   -----------------  -----------------  -----------------  -----------------
         C            1.974307023720     2.152526812581    -1.064036132041    12.000000000000
         C            3.472307023720     1.894526812581    -1.092036132041    12.000000000000
         H            1.524307023720     1.671526812581    -1.929036132041     1.007825032230
         H            1.541307023720     1.705526812581    -0.173036132041     1.007825032230
         H            1.790307023720     3.222526812581    -1.119036132041     1.007825032230
         H            3.524307023720     0.831526812581    -1.026036132041     1.007825032230
         H            3.979477023720     2.304306812581    -0.206116132041     1.007825032230
         H            3.905597023720     2.357166812581    -1.991051132041     1.007825032230
         C            0.793307023720    -1.359473187419    -0.737036132041    12.000000000000
         C            0.416307023720    -2.779473187419    -1.202036132041    12.000000000000
         C           -0.286692976280    -0.658473187419     0.046963867959    12.000000000000
         C           -1.272692976280     0.074526812581    -0.606036132041    12.000000000000
         C           -0.293692976280    -0.733473187419     1.433963867959    12.000000000000
         C           -2.261692976280     0.712526812581     0.120963867959    12.000000000000
         C           -1.281692976280    -0.088473187419     2.173963867959    12.000000000000
         C           -2.259692976280     0.648526812581     1.506963867959    12.000000000000
         H            1.691307023720    -1.412473187419    -0.119036132041     1.007825032230
         H            1.047307023720    -0.756473187419    -1.610036132041     1.007825032230
         H            1.254307023720    -3.274473187419    -1.677036132041     1.007825032230
         H           -1.261692976280     0.153526812581    -1.683036132041     1.007825032230
         H            0.465307023720    -1.305473187419     1.949963867959     1.007825032230
         H           -3.022692976280     1.293526812581    -0.377036132041     1.007825032230
         H           -1.303692976280    -0.183473187419     3.247963867959     1.007825032230
         H           -3.034692976280     1.150526812581     2.069963867959     1.007825032230
         H           -0.388952976280    -2.711423187419    -1.948315132041     1.007825032230
         H            0.194187023720    -3.418329187419    -0.334556132041     1.007825032230

  Running in c1 symmetry.

  Rotational constants: A =      0.04399  B =      0.02526  C =      0.01973 [cm^-1]
  Rotational constants: A =   1318.78792  B =    757.26586  C =    591.35554 [MHz]
  Nuclear repulsion =  497.164713391905707

  Charge       = 0
  Multiplicity = 1
  Electrons    = 76
  Nalpha       = 38
  Nbeta        = 38

  ==> Algorithm <==

  SCF Algorithm Type is PK.
  DIIS enabled.
  MOM disabled.
  Fractional occupation disabled.
  Guess Type is SAD.
  Energy threshold   = 1.00e-06
  Density threshold  = 1.00e-10
  Integral threshold = 0.00e+00

  ==> Primary Basis <==

  Basis Set: CC-PVDZ
    Blend: CC-PVDZ
    Number of shells: 108
    Number of basis function: 220
    Number of Cartesian functions: 230
    Spherical Harmonics?: true
    Max angular momentum: 2

  ==> Pre-Iterations <==

   -------------------------------------------------------
    Irrep   Nso     Nmo     Nalpha   Nbeta   Ndocc  Nsocc
   -------------------------------------------------------
     A        220     220       0       0       0       0
   -------------------------------------------------------
    Total     220     220      38      38      38       0
   -------------------------------------------------------

  ==> Integral Setup <==

  Using integral reordering PK algorithm.
  Sizing the integral batches needed.
  Building batch lookup table.
   Calculation information:
      Number of atoms:                  26
      Number of AO shells:             108
      Number of primitives:            300
      Number of atomic orbitals:       230
      Number of basis functions:       220

      Integral cutoff                 1.00e-12
      Number of threads:                 1

	Batch   1 pq = [       0,    9405] index = [             0,44231715] size =     44231715
	Batch   2 pq = [    9405,   13301] index = [      44231715,88464951] size =     44233236
	Batch   3 pq = [   13301,   16290] index = [      88464951,132690195] size =     44225244
	Batch   4 pq = [   16290,   18810] index = [     132690195,176917455] size =     44227260
	Batch   5 pq = [   18810,   21030] index = [     176917455,221140965] size =     44223510
	Batch   6 pq = [   21030,   23037] index = [     221140965,265363203] size =     44222238
	Batch   7 pq = [   23037,   24310] index = [     265363203,295500205] size =     30137002
  Task number: 27
  Buffer size: 11059200
  Buffer per thread: 2
  We computed 16196552 shell quartets total.
  Whereas there are 17325441 unique shell quartets.

  ==> DiskJK: Disk-Based J/K Matrices <==

    J tasked:                  Yes
    K tasked:                  Yes
    wK tasked:                  No
    Memory [MiB]:              375
    Schwarz Cutoff:          1E-12

    OpenMP threads:              1

  Minimum eigenvalue in the overlap matrix is 3.0637214627E-04.
  Using Symmetric Orthogonalization.

  SCF Guess: Superposition of Atomic Densities via on-the-fly atomic UHF.

  ==> Iterations <==

                        Total Energy        Delta E     RMS |[F,P]|

   @RHF iter SAD:  -386.92900071267627   -3.86929e+02   0.00000e+00
   @RHF iter   1:  -387.77023144098757   -8.41231e-01   2.73906e-03 DIIS
   @RHF iter   2:  -387.98651770430627   -2.16286e-01   1.13775e-03 DIIS
   @RHF iter   3:  -388.02073655807442   -3.42189e-02   2.48062e-04 DIIS
   @RHF iter   4:  -388.02356205499325   -2.82550e-03   6.02936e-05 DIIS
   @RHF iter   5:  -388.02367118626358   -1.09131e-04   2.12884e-05 DIIS
   @RHF iter   6:  -388.02368568282543   -1.44966e-05   4.00765e-06 DIIS
   @RHF iter   7:  -388.02368635972414   -6.76899e-07   1.18061e-06 DIIS
   @RHF iter   8:  -388.02368641919918   -5.94750e-08   3.39848e-07 DIIS
   @RHF iter   9:  -388.02368642940667   -1.02075e-08   1.53702e-07 DIIS
   @RHF iter  10:  -388.02368643240078   -2.99411e-09   8.10780e-08 DIIS
   @RHF iter  11:  -388.02368643333534   -9.34563e-10   2.60907e-08 DIIS
   @RHF iter  12:  -388.02368643341555   -8.02061e-11   1.08506e-08 DIIS
   @RHF iter  13:  -388.02368643342112   -5.57066e-12   4.27787e-09 DIIS
   @RHF iter  14:  -388.02368643342288   -1.76215e-12   1.17473e-09 DIIS
   @RHF iter  15:  -388.02368643342214    7.38964e-13   3.89519e-10 DIIS
   @RHF iter  16:  -388.02368643342299   -8.52651e-13   1.42397e-10 DIIS
   @RHF iter  17:  -388.02368643342345   -4.54747e-13   6.65544e-11 DIIS
  Energy and wave function converged.

  ==> Post-Iterations <==

    Orbital Energies [Eh]
    ---------------------

    Doubly Occupied:

       1A    -11.236794     2A    -11.235629     3A    -11.233669
       4A    -11.230801     5A    -11.230414     6A    -11.230292
       7A    -11.229617     8A    -11.224268     9A    -11.212173
      10A    -11.208266    11A     -1.155761    12A     -1.061650
      13A     -1.019705    14A     -1.013682    15A     -0.981379
      16A     -0.863662    17A     -0.829976    18A     -0.825829
      19A     -0.786460    20A     -0.691068    21A     -0.641589
      22A     -0.633545    23A     -0.610406    24A     -0.591212
      25A     -0.589347    26A     -0.586658    27A     -0.580096
      28A     -0.544397    29A     -0.512569    30A     -0.502217
      31A     -0.495708    32A     -0.487192    33A     -0.481673
      34A     -0.478369    35A     -0.470254    36A     -0.467646
      37A     -0.333455    38A     -0.321735

    Virtual:

      39A      0.135729    40A      0.139321    41A      0.173450
      42A      0.190597    43A      0.203696    44A      0.203974
      45A      0.234159    46A      0.235672    47A      0.242728
      48A      0.255804    49A      0.261518    50A      0.264216
      51A      0.274344    52A      0.285985    53A      0.286494
      54A      0.299210    55A      0.319456    56A      0.340984
      57A      0.353623    58A      0.389535    59A      0.400920
      60A      0.416004    61A      0.453698    62A      0.468213
      63A      0.491429    64A      0.497753    65A      0.570895
      66A      0.574821    67A      0.586646    68A      0.596128
      69A      0.606770    70A      0.622181    71A      0.632006
      72A      0.651925    73A      0.680306    74A      0.684995
      75A      0.701831    76A      0.717351    77A      0.728280
      78A      0.737775    79A      0.741463    80A      0.746035
      81A      0.746203    82A      0.768991    83A      0.797420
      84A      0.804512    85A      0.824598    86A      0.843646
      87A      0.857238    88A      0.863421    89A      0.875876
      90A      0.887802    91A      0.889484    92A      0.894695
      93A      0.898623    94A      0.901183    95A      0.908383
      96A      0.912322    97A      0.925140    98A      0.936808
      99A      0.947262   100A      0.955487   101A      0.961421
     102A      0.966437   103A      0.975443   104A      0.996000
     105A      1.013293   106A      1.021500   107A      1.041674
     108A      1.092160   109A      1.118118   110A      1.127872
     111A      1.141757   112A      1.147891   113A      1.150634
     114A      1.161526   115A      1.188465   116A      1.223729
     117A      1.236185   118A      1.248607   119A      1.250275
     120A      1.273063   121A      1.291902   122A      1.301455
     123A      1.310514   124A      1.329996   125A      1.395052
     126A      1.422111   127A      1.434735   128A      1.480622
     129A      1.494077   130A      1.506484   131A      1.538886
     132A      1.594350   133A      1.608261   134A      1.624617
     135A      1.672208   136A      1.675659   137A      1.685173
     138A      1.706905   139A      1.725559   140A      1.744821
     141A      1.764492   142A      1.776372   143A      1.846125
     144A      1.849768   145A      1.859755   146A      1.869728
     147A      1.879826   148A      1.883432   149A      1.888467
     150A      1.902274   151A      1.904193   152A      1.919397
     153A      1.929149   154A      1.939306   155A      1.942819
     156A      1.947333   157A      1.951166   158A      1.960199
     159A      1.965255   160A      1.974978   161A      1.977684
     162A      1.989414   163A      1.995034   164A      2.003281
     165A      2.012278   166A      2.032361   167A      2.051927
     168A      2.062069   169A      2.080142   170A      2.099682
     171A      2.118273   172A      2.128696   173A      2.151382
     174A      2.154971   175A      2.165098   176A      2.165764
     177A      2.173214   178A      2.195006   179A      2.240271
     180A      2.252518   181A      2.278035   182A      2.284146
     183A      2.305202   184A      2.320165   185A      2.322910
     186A      2.354817   187A      2.390105   188A      2.453076
     189A      2.459524   190A      2.463944   191A      2.495250
     192A      2.496237   193A      2.516768   194A      2.546529
     195A      2.566257   196A      2.575535   197A      2.617865
     198A      2.634046   199A      2.748287   200A      2.767427
     201A      2.778398   202A      2.786878   203A      2.792175
     204A      2.804073   205A      2.822388   206A      2.837914
     207A      2.841876   208A      2.873558   209A      2.884027
     210A      2.927693   211A      2.960607   212A      2.985093
     213A      2.994541   214A      3.008988   215A      3.029167
     216A      3.055141   217A      3.186355   218A      3.207277
     219A      3.314451   220A      3.980884

    Final Occupation by Irrep:
              A
    DOCC [    38 ]

  @RHF Final Energy:  -388.02368643342345

   => Energetics <=

    Nuclear Repulsion Energy =            497.1647133919057069
    One-Electron Energy =               -1508.7184647679728187
    Two-Electron Energy =                 623.5300649426436621
    Total Energy =                       -388.0236864334234497

Computation Completed

Properties will be evaluated at   0.000000,   0.000000,   0.000000 [a0]

Properties computed using the SCF density matrix

  Nuclear Dipole Moment: [e a0]
     X:    11.1615      Y:     1.5262      Z:    -6.4924

  Electronic Dipole Moment: [e a0]
     X:   -11.1349      Y:    -1.6139      Z:     6.4609

  Dipole Moment: [e a0]
     X:     0.0266      Y:    -0.0877      Z:    -0.0315     Total:     0.0969

  Dipole Moment: [D]
     X:     0.0675      Y:    -0.2229      Z:    -0.0800     Total:     0.2463

*** tstop() called on ds3 at Mon Apr 27 12:59:57 2020
Module time:
	user time   =     123.37 seconds =       2.06 minutes
	system time =      56.53 seconds =       0.94 minutes
	total time  =        173 seconds =       2.88 minutes
Total time:
	user time   =     123.37 seconds =       2.06 minutes
	system time =      56.53 seconds =       0.94 minutes
	total time  =        173 seconds =       2.88 minutes
                                     G D M A

                                 by Anthony Stone

                           version 2.2.06, 22 June 2011

               Distributed Multipoles from Gaussian wavefunctions

Starting at 12:59:57 on 27 Apr 2020

Using SCF density matrix from file ./SSI/SSI-031THR-128PHE-1-dimer.test.4735.fchk

                         Distributed Multipole Analysis

Standard DMA

Positions and radii in angstrom
Multipole moments in atomic units, ea_0^k for rank k

C          x =  1.974307  y =  2.152527  z = -1.064036 angstrom
           Maximum rank =  0   Radius =  0.650 angstrom
                   Q00  =  -0.232601

C          x =  3.472307  y =  1.894527  z = -1.092036 angstrom
           Maximum rank =  0   Radius =  0.650 angstrom
                   Q00  =  -0.203730

H          x =  1.524307  y =  1.671527  z = -1.929036 angstrom
           Maximum rank =  0   Radius =  0.325 angstrom
                   Q00  =   0.068462

H          x =  1.541307  y =  1.705527  z = -0.173036 angstrom
           Maximum rank =  0   Radius =  0.325 angstrom
                   Q00  =   0.088892

H          x =  1.790307  y =  3.222527  z = -1.119036 angstrom
           Maximum rank =  0   Radius =  0.325 angstrom
                   Q00  =   0.074878

H          x =  3.524307  y =  0.831527  z = -1.026036 angstrom
           Maximum rank =  0   Radius =  0.325 angstrom
                   Q00  =   0.060866

H          x =  3.979477  y =  2.304307  z = -0.206116 angstrom
           Maximum rank =  0   Radius =  0.325 angstrom
                   Q00  =   0.076129

H          x =  3.905597  y =  2.357167  z = -1.991051 angstrom
           Maximum rank =  0   Radius =  0.325 angstrom
                   Q00  =   0.065848

C          x =  0.793307  y = -1.359473  z = -0.737036 angstrom
           Maximum rank =  0   Radius =  0.650 angstrom
                   Q00  =  -0.028739

C          x =  0.416307  y = -2.779473  z = -1.202036 angstrom
           Maximum rank =  0   Radius =  0.650 angstrom
                   Q00  =  -0.217054

C          x = -0.286693  y = -0.658473  z =  0.046964 angstrom
           Maximum rank =  0   Radius =  0.650 angstrom
                   Q00  =  -0.115738

C          x = -1.272693  y =  0.074527  z = -0.606036 angstrom
           Maximum rank =  0   Radius =  0.650 angstrom
                   Q00  =  -0.012404

C          x = -0.293693  y = -0.733473  z =  1.433964 angstrom
           Maximum rank =  0   Radius =  0.650 angstrom
                   Q00  =  -0.050869

C          x = -2.261693  y =  0.712527  z =  0.120964 angstrom
           Maximum rank =  0   Radius =  0.650 angstrom
                   Q00  =  -0.075379

C          x = -1.281693  y = -0.088473  z =  2.173964 angstrom
           Maximum rank =  0   Radius =  0.650 angstrom
                   Q00  =  -0.069947

C          x = -2.259693  y =  0.648527  z =  1.506964 angstrom
           Maximum rank =  0   Radius =  0.650 angstrom
                   Q00  =  -0.090029

H          x =  1.691307  y = -1.412473  z = -0.119036 angstrom
           Maximum rank =  0   Radius =  0.325 angstrom
                   Q00  =   0.064485

H          x =  1.047307  y = -0.756473  z = -1.610036 angstrom
           Maximum rank =  0   Radius =  0.325 angstrom
                   Q00  =   0.065965

H          x =  1.254307  y = -3.274473  z = -1.677036 angstrom
           Maximum rank =  0   Radius =  0.325 angstrom
                   Q00  =   0.084184

H          x = -1.261693  y =  0.153527  z = -1.683036 angstrom
           Maximum rank =  0   Radius =  0.325 angstrom
                   Q00  =   0.055214

H          x =  0.465307  y = -1.305473  z =  1.949964 angstrom
           Maximum rank =  0   Radius =  0.325 angstrom
                   Q00  =   0.054895

H          x = -3.022693  y =  1.293527  z = -0.377036 angstrom
           Maximum rank =  0   Radius =  0.325 angstrom
                   Q00  =   0.063385

H          x = -1.303693  y = -0.183473  z =  3.247964 angstrom
           Maximum rank =  0   Radius =  0.325 angstrom
                   Q00  =   0.066234

H          x = -3.034693  y =  1.150527  z =  2.069964 angstrom
           Maximum rank =  0   Radius =  0.325 angstrom
                   Q00  =   0.061066

H          x = -0.388953  y = -2.711423  z = -1.948315 angstrom
           Maximum rank =  0   Radius =  0.325 angstrom
                   Q00  =   0.072898

H          x =  0.194187  y = -3.418329  z = -0.334556 angstrom
           Maximum rank =  0   Radius =  0.325 angstrom
                   Q00  =   0.073089

Total multipoles referred to origin at
           x =   0.000000,  y =    0.000000,  z =    0.000000 angstrom
                   Q00  =  -0.000000

Finished at 12:59:57 on 27 Apr 2020

  DMA results are available in the Python driver through the
	  variable('DMA DISTRIBUTED MULTIPOLES')
  and
	  variable('DMA TOTAL MULTIPOLES')
  commands.

    Psi4 stopped on: Monday, 27 April 2020 12:59PM
    Psi4 wall time for execution: 0:02:52.71

*** Psi4 exiting successfully. Buy a developer a beer!
