                               Psi4 1.3.2 release

  ==> Input File <==

--------------------------------------------------------------------------
import numpy as np
set {scf_type pk
basis cc-pvdz
d_convergence 10
gdma_switch   0
gdma_limit    0
gdma_origin   [ 0.0,  0.0,  0.0 ]
}
molecule test {
    units Angstrom
    -1 1
    --
    -1 1
    C                1.404338776154184    -4.492881475835936     0.412592818875260
    C               -0.024661223845816    -0.487881475835936     1.037592818875260
    C                0.168338776154184    -1.348881475835936     2.119592818875260
    C                0.219338776154184    -0.949881475835937    -0.256407181124740
    C                0.623338776154184    -2.637881475835936     1.915592818875260
    C                0.701338776154184    -2.236881475835936    -0.443407181124740
    C                0.904338776154184    -3.095881475835936     0.634592818875260
    O               -0.511661223845816     0.772118524164064     1.270592818875260
    H               -0.598661223845816     0.955118524164064     2.205592818875260
    H               -0.022661223845816    -1.010881475835937     3.126592818875260
    H                0.072338776154184    -0.284881475835936    -1.094407181124740
    H                0.780338776154184    -3.289881475835936     2.763592818875260
    H                0.919338776154184    -2.576881475835937    -1.448407181124740
    H                2.288338776154184    -4.638881475835936     1.034592818875260
    H                1.708338776154184    -4.613881475835937    -0.628407181124740
    H                0.660458776154184    -5.261271475835936     0.669923818875260
    C               -2.214661223845816     3.197118524164063    -1.663407181124740
    C               -0.702661223845816     3.233118524164064    -1.535407181124740
    O               -0.064661223845816     2.394118524164064    -0.875407181124740
    O               -0.108661223845816     4.148118524164064    -2.157407181124740
    H               -2.491661223845816     3.128118524164063    -2.717407181124740
    H               -2.596661223845816     4.148118524164064    -1.284407181124740
    H               -2.696371223845816     2.378508524164063    -1.108584181124740

}
e, wfn = energy('scf', return_wfn=True)
gdma(wfn)
dmavals = variable('DMA DISTRIBUTED MULTIPOLES')
charges = np.array(dmavals)
print(charges)
np.save('SSI-165TYR-168ASP-1-dimer.npy', np.array(charges))--------------------------------------------------------------------------

*** tstart() called on ds3
*** at Mon Apr 27 23:48:49 2020

   => Loading Basis Set <=

    Name: CC-PVDZ
    Role: ORBITAL
    Keyword: BASIS
    atoms 1-7, 17-18  entry C          line   138 file /theoryfs2/ds/metcalf/miniconda2/envs/tf2gpu/share/psi4/basis/cc-pvdz.gbs
    atoms 8, 19-20    entry O          line   198 file /theoryfs2/ds/metcalf/miniconda2/envs/tf2gpu/share/psi4/basis/cc-pvdz.gbs
    atoms 9-16, 21-23 entry H          line    22 file /theoryfs2/ds/metcalf/miniconda2/envs/tf2gpu/share/psi4/basis/cc-pvdz.gbs

         ---------------------------------------------------------
                                   SCF
               by Justin Turney, Rob Parrish, Andy Simmonett
                          and Daniel G. A. Smith
                              RHF Reference
                        1 Threads,    500 MiB Core
         ---------------------------------------------------------

  ==> Geometry <==

    Molecular point group: c1
    Full point group: C1

    Geometry (in Angstrom), charge = -1, multiplicity = 1:

       Center              X                  Y                   Z               Mass
    ------------   -----------------  -----------------  -----------------  -----------------
         C            1.404338776154    -4.492881475836     0.412592818875    12.000000000000
         C           -0.024661223846    -0.487881475836     1.037592818875    12.000000000000
         C            0.168338776154    -1.348881475836     2.119592818875    12.000000000000
         C            0.219338776154    -0.949881475836    -0.256407181125    12.000000000000
         C            0.623338776154    -2.637881475836     1.915592818875    12.000000000000
         C            0.701338776154    -2.236881475836    -0.443407181125    12.000000000000
         C            0.904338776154    -3.095881475836     0.634592818875    12.000000000000
         O           -0.511661223846     0.772118524164     1.270592818875    15.994914619570
         H           -0.598661223846     0.955118524164     2.205592818875     1.007825032230
         H           -0.022661223846    -1.010881475836     3.126592818875     1.007825032230
         H            0.072338776154    -0.284881475836    -1.094407181125     1.007825032230
         H            0.780338776154    -3.289881475836     2.763592818875     1.007825032230
         H            0.919338776154    -2.576881475836    -1.448407181125     1.007825032230
         H            2.288338776154    -4.638881475836     1.034592818875     1.007825032230
         H            1.708338776154    -4.613881475836    -0.628407181125     1.007825032230
         H            0.660458776154    -5.261271475836     0.669923818875     1.007825032230
         C           -2.214661223846     3.197118524164    -1.663407181125    12.000000000000
         C           -0.702661223846     3.233118524164    -1.535407181125    12.000000000000
         O           -0.064661223846     2.394118524164    -0.875407181125    15.994914619570
         O           -0.108661223846     4.148118524164    -2.157407181125    15.994914619570
         H           -2.491661223846     3.128118524164    -2.717407181125     1.007825032230
         H           -2.596661223846     4.148118524164    -1.284407181125     1.007825032230
         H           -2.696371223846     2.378508524164    -1.108584181125     1.007825032230

  Running in c1 symmetry.

  Rotational constants: A =      0.07750  B =      0.01058  C =      0.00984 [cm^-1]
  Rotational constants: A =   2323.40652  B =    317.07380  C =    294.94465 [MHz]
  Nuclear repulsion =  630.134032149345899

  Charge       = -1
  Multiplicity = 1
  Electrons    = 90
  Nalpha       = 45
  Nbeta        = 45

  ==> Algorithm <==

  SCF Algorithm Type is PK.
  DIIS enabled.
  MOM disabled.
  Fractional occupation disabled.
  Guess Type is SAD.
  Energy threshold   = 1.00e-06
  Density threshold  = 1.00e-10
  Integral threshold = 0.00e+00

  ==> Primary Basis <==

  Basis Set: CC-PVDZ
    Blend: CC-PVDZ
    Number of shells: 105
    Number of basis function: 223
    Number of Cartesian functions: 235
    Spherical Harmonics?: true
    Max angular momentum: 2

  ==> Pre-Iterations <==

   -------------------------------------------------------
    Irrep   Nso     Nmo     Nalpha   Nbeta   Ndocc  Nsocc
   -------------------------------------------------------
     A        223     223       0       0       0       0
   -------------------------------------------------------
    Total     223     223      45      45      45       0
   -------------------------------------------------------

  ==> Integral Setup <==

  Using integral reordering PK algorithm.
  Sizing the integral batches needed.
  Building batch lookup table.
   Calculation information:
      Number of atoms:                  23
      Number of AO shells:             105
      Number of primitives:            319
      Number of atomic orbitals:       235
      Number of basis functions:       223

      Integral cutoff                 1.00e-12
      Number of threads:                 1

	Batch   1 pq = [       0,    9405] index = [             0,44231715] size =     44231715
	Batch   2 pq = [    9405,   13301] index = [      44231715,88464951] size =     44233236
	Batch   3 pq = [   13301,   16290] index = [      88464951,132690195] size =     44225244
	Batch   4 pq = [   16290,   18810] index = [     132690195,176917455] size =     44227260
	Batch   5 pq = [   18810,   21030] index = [     176917455,221140965] size =     44223510
	Batch   6 pq = [   21030,   23037] index = [     221140965,265363203] size =     44222238
	Batch   7 pq = [   23037,   24976] index = [     265363203,311912776] size =     46549573
  Task number: 29
  Buffer size: 11059200
  Buffer per thread: 2
  We computed 11545627 shell quartets total.
  Whereas there are 15487395 unique shell quartets.

  ==> DiskJK: Disk-Based J/K Matrices <==

    J tasked:                  Yes
    K tasked:                  Yes
    wK tasked:                  No
    Memory [MiB]:              375
    Schwarz Cutoff:          1E-12

    OpenMP threads:              1

  Minimum eigenvalue in the overlap matrix is 3.1681527174E-04.
  Using Symmetric Orthogonalization.

  SCF Guess: Superposition of Atomic Densities via on-the-fly atomic UHF.

  ==> Iterations <==

                        Total Energy        Delta E     RMS |[F,P]|

   @RHF iter SAD:  -570.20932714885282   -5.70209e+02   0.00000e+00
   @RHF iter   1:  -571.47829665542758   -1.26897e+00   3.77351e-03 DIIS
   @RHF iter   2:  -571.77123292594490   -2.92936e-01   2.02657e-03 DIIS
   @RHF iter   3:  -571.84728208142997   -7.60492e-02   3.47655e-04 DIIS
   @RHF iter   4:  -571.85120474562916   -3.92266e-03   1.26700e-04 DIIS
   @RHF iter   5:  -571.85174402901191   -5.39283e-04   2.08721e-05 DIIS
   @RHF iter   6:  -571.85176506949495   -2.10405e-05   7.54368e-06 DIIS
   @RHF iter   7:  -571.85176745508750   -2.38559e-06   3.10180e-06 DIIS
   @RHF iter   8:  -571.85176788921865   -4.34131e-07   9.62913e-07 DIIS
   @RHF iter   9:  -571.85176795745110   -6.82325e-08   3.72005e-07 DIIS
   @RHF iter  10:  -571.85176796933001   -1.18789e-08   1.49490e-07 DIIS
   @RHF iter  11:  -571.85176797232543   -2.99542e-09   7.38420e-08 DIIS
   @RHF iter  12:  -571.85176797305292   -7.27482e-10   3.67629e-08 DIIS
   @RHF iter  13:  -571.85176797322981   -1.76897e-10   1.11287e-08 DIIS
   @RHF iter  14:  -571.85176797324095   -1.11413e-11   3.99237e-09 DIIS
   @RHF iter  15:  -571.85176797325312   -1.21645e-11   1.29667e-09 DIIS
   @RHF iter  16:  -571.85176797325232    7.95808e-13   5.75739e-10 DIIS
   @RHF iter  17:  -571.85176797325164    6.82121e-13   2.61605e-10 DIIS
   @RHF iter  18:  -571.85176797324516    6.48015e-12   1.18401e-10 DIIS
   @RHF iter  19:  -571.85176797324448    6.82121e-13   5.66458e-11 DIIS
  Energy and wave function converged.

  ==> Post-Iterations <==

    Orbital Energies [Eh]
    ---------------------

    Doubly Occupied:

       1A    -20.454544     2A    -20.250690     3A    -20.240740
       4A    -11.191854     5A    -11.148057     6A    -11.140704
       7A    -11.136355     8A    -11.135086     9A    -11.132129
      10A    -11.117822    11A    -11.105334    12A    -11.047307
      13A     -1.271491    14A     -1.140549    15A     -1.053008
      16A     -1.021058    17A     -0.942065    18A     -0.917567
      19A     -0.832583    20A     -0.792580    21A     -0.738991
      22A     -0.699288    23A     -0.620299    24A     -0.564453
      25A     -0.538720    26A     -0.508308    27A     -0.495072
      28A     -0.493522    29A     -0.483973    30A     -0.462829
      31A     -0.456836    32A     -0.426395    33A     -0.405972
      34A     -0.405257    35A     -0.400409    36A     -0.393925
      37A     -0.373356    38A     -0.363851    39A     -0.330167
      40A     -0.294289    41A     -0.239859    42A     -0.195859
      43A     -0.176430    44A     -0.155626    45A     -0.147241

    Virtual:

      46A      0.232720    47A      0.255177    48A      0.265536
      49A      0.281180    50A      0.308975    51A      0.312593
      52A      0.347576    53A      0.353637    54A      0.361139
      55A      0.367024    56A      0.399838    57A      0.414589
      58A      0.433293    59A      0.456393    60A      0.475282
      61A      0.495249    62A      0.536370    63A      0.557924
      64A      0.579835    65A      0.586056    66A      0.593344
      67A      0.613831    68A      0.703924    69A      0.705773
      70A      0.714081    71A      0.723739    72A      0.754312
      73A      0.766563    74A      0.788132    75A      0.798471
      76A      0.813331    77A      0.823781    78A      0.831721
      79A      0.834813    80A      0.840680    81A      0.865759
      82A      0.874614    83A      0.882462    84A      0.883298
      85A      0.893569    86A      0.919618    87A      0.945131
      88A      0.951226    89A      0.956228    90A      0.968497
      91A      0.973811    92A      0.976931    93A      0.992549
      94A      1.009390    95A      1.017629    96A      1.029214
      97A      1.035213    98A      1.038829    99A      1.040305
     100A      1.052741   101A      1.058462   102A      1.081854
     103A      1.120877   104A      1.128123   105A      1.143781
     106A      1.158454   107A      1.223397   108A      1.236414
     109A      1.252762   110A      1.254194   111A      1.262235
     112A      1.306803   113A      1.324666   114A      1.349189
     115A      1.352923   116A      1.355242   117A      1.380697
     118A      1.381893   119A      1.400101   120A      1.405958
     121A      1.416683   122A      1.458606   123A      1.470077
     124A      1.482864   125A      1.499437   126A      1.546841
     127A      1.568167   128A      1.577303   129A      1.599073
     130A      1.603787   131A      1.617780   132A      1.644744
     133A      1.668098   134A      1.678184   135A      1.725640
     136A      1.745175   137A      1.748984   138A      1.764016
     139A      1.776623   140A      1.833358   141A      1.843449
     142A      1.848020   143A      1.873124   144A      1.876300
     145A      1.884454   146A      1.908966   147A      1.923816
     148A      1.963277   149A      1.982783   150A      1.995776
     151A      2.015783   152A      2.021674   153A      2.034180
     154A      2.040067   155A      2.045564   156A      2.056808
     157A      2.060203   158A      2.083001   159A      2.101957
     160A      2.104581   161A      2.113766   162A      2.144543
     163A      2.153915   164A      2.171759   165A      2.173824
     166A      2.180907   167A      2.221553   168A      2.228389
     169A      2.269545   170A      2.282842   171A      2.284272
     172A      2.295149   173A      2.307078   174A      2.322327
     175A      2.351234   176A      2.378142   177A      2.401511
     178A      2.426406   179A      2.448894   180A      2.454209
     181A      2.485422   182A      2.495195   183A      2.570491
     184A      2.586304   185A      2.609859   186A      2.613416
     187A      2.622836   188A      2.649965   189A      2.671792
     190A      2.704822   191A      2.726146   192A      2.759174
     193A      2.813924   194A      2.836693   195A      2.852202
     196A      2.894037   197A      2.911073   198A      2.920239
     199A      2.927658   200A      2.964786   201A      2.995229
     202A      3.005279   203A      3.070030   204A      3.106801
     205A      3.193445   206A      3.224947   207A      3.258142
     208A      3.295733   209A      3.304549   210A      3.375047
     211A      3.380303   212A      3.393756   213A      3.474682
     214A      3.661502   215A      3.710098   216A      3.780193
     217A      3.791940   218A      3.827332   219A      4.075394
     220A      4.097229   221A      4.130274   222A      4.215757
     223A      4.329394

    Final Occupation by Irrep:
              A
    DOCC [    45 ]

  @RHF Final Energy:  -571.85176797324448

   => Energetics <=

    Nuclear Repulsion Energy =            630.1340321493458987
    One-Electron Energy =               -2045.0866905379800755
    Two-Electron Energy =                 843.1008904153895855
    Total Energy =                       -571.8517679732444776

Computation Completed

Properties will be evaluated at   0.000000,   0.000000,   0.000000 [a0]

Properties computed using the SCF density matrix

  Nuclear Dipole Moment: [e a0]
     X:    -1.8565      Y:   -10.3395      Z:     1.4152

  Electronic Dipole Moment: [e a0]
     X:     1.7062      Y:     4.7516      Z:     1.6244

  Dipole Moment: [e a0]
     X:    -0.1504      Y:    -5.5879      Z:     3.0396     Total:     6.3629

  Dipole Moment: [D]
     X:    -0.3822      Y:   -14.2030      Z:     7.7259     Total:    16.1729

*** tstop() called on ds3 at Mon Apr 27 23:51:36 2020
Module time:
	user time   =     119.29 seconds =       1.99 minutes
	system time =      56.45 seconds =       0.94 minutes
	total time  =        167 seconds =       2.78 minutes
Total time:
	user time   =     119.29 seconds =       1.99 minutes
	system time =      56.45 seconds =       0.94 minutes
	total time  =        167 seconds =       2.78 minutes
                                     G D M A

                                 by Anthony Stone

                           version 2.2.06, 22 June 2011

               Distributed Multipoles from Gaussian wavefunctions

Starting at 23:51:36 on 27 Apr 2020

Using SCF density matrix from file ./SSI/SSI-165TYR-168ASP-1-dimer.test.4183.fchk

                         Distributed Multipole Analysis

Standard DMA

Positions and radii in angstrom
Multipole moments in atomic units, ea_0^k for rank k

C          x =  1.404339  y = -4.492881  z =  0.412593 angstrom
           Maximum rank =  0   Radius =  0.650 angstrom
                   Q00  =  -0.190886

C          x = -0.024661  y = -0.487881  z =  1.037593 angstrom
           Maximum rank =  0   Radius =  0.650 angstrom
                   Q00  =   0.330204

C          x =  0.168339  y = -1.348881  z =  2.119593 angstrom
           Maximum rank =  0   Radius =  0.650 angstrom
                   Q00  =  -0.166593

C          x =  0.219339  y = -0.949881  z = -0.256407 angstrom
           Maximum rank =  0   Radius =  0.650 angstrom
                   Q00  =  -0.081508

C          x =  0.623339  y = -2.637881  z =  1.915593 angstrom
           Maximum rank =  0   Radius =  0.650 angstrom
                   Q00  =  -0.063686

C          x =  0.701339  y = -2.236881  z = -0.443407 angstrom
           Maximum rank =  0   Radius =  0.650 angstrom
                   Q00  =   0.048696

C          x =  0.904339  y = -3.095881  z =  0.634593 angstrom
           Maximum rank =  0   Radius =  0.650 angstrom
                   Q00  =  -0.148606

O          x = -0.511661  y =  0.772119  z =  1.270593 angstrom
           Maximum rank =  0   Radius =  0.650 angstrom
                   Q00  =  -0.595926

H          x = -0.598661  y =  0.955119  z =  2.205593 angstrom
           Maximum rank =  0   Radius =  0.325 angstrom
                   Q00  =   0.371067

H          x = -0.022661  y = -1.010881  z =  3.126593 angstrom
           Maximum rank =  0   Radius =  0.325 angstrom
                   Q00  =   0.051647

H          x =  0.072339  y = -0.284881  z = -1.094407 angstrom
           Maximum rank =  0   Radius =  0.325 angstrom
                   Q00  =   0.098230

H          x =  0.780339  y = -3.289881  z =  2.763593 angstrom
           Maximum rank =  0   Radius =  0.325 angstrom
                   Q00  =   0.039131

H          x =  0.919339  y = -2.576881  z = -1.448407 angstrom
           Maximum rank =  0   Radius =  0.325 angstrom
                   Q00  =   0.045274

H          x =  2.288339  y = -4.638881  z =  1.034593 angstrom
           Maximum rank =  0   Radius =  0.325 angstrom
                   Q00  =   0.081206

H          x =  1.708339  y = -4.613881  z = -0.628407 angstrom
           Maximum rank =  0   Radius =  0.325 angstrom
                   Q00  =   0.090211

H          x =  0.660459  y = -5.261271  z =  0.669924 angstrom
           Maximum rank =  0   Radius =  0.325 angstrom
                   Q00  =   0.081737

C          x = -2.214661  y =  3.197119  z = -1.663407 angstrom
           Maximum rank =  0   Radius =  0.650 angstrom
                   Q00  =  -0.282978

C          x = -0.702661  y =  3.233119  z = -1.535407 angstrom
           Maximum rank =  0   Radius =  0.650 angstrom
                   Q00  =   0.974200

O          x = -0.064661  y =  2.394119  z = -0.875407 angstrom
           Maximum rank =  0   Radius =  0.650 angstrom
                   Q00  =  -0.919634

O          x = -0.108661  y =  4.148119  z = -2.157407 angstrom
           Maximum rank =  0   Radius =  0.650 angstrom
                   Q00  =  -0.947893

H          x = -2.491661  y =  3.128119  z = -2.717407 angstrom
           Maximum rank =  0   Radius =  0.325 angstrom
                   Q00  =   0.070008

H          x = -2.596661  y =  4.148119  z = -1.284407 angstrom
           Maximum rank =  0   Radius =  0.325 angstrom
                   Q00  =   0.068045

H          x = -2.696371  y =  2.378509  z = -1.108584 angstrom
           Maximum rank =  0   Radius =  0.325 angstrom
                   Q00  =   0.048055

Total multipoles referred to origin at
           x =   0.000000,  y =    0.000000,  z =    0.000000 angstrom
                   Q00  =  -1.000000

Finished at 23:51:36 on 27 Apr 2020

  DMA results are available in the Python driver through the
	  variable('DMA DISTRIBUTED MULTIPOLES')
  and
	  variable('DMA TOTAL MULTIPOLES')
  commands.

    Psi4 stopped on: Monday, 27 April 2020 11:51PM
    Psi4 wall time for execution: 0:02:47.19

*** Psi4 exiting successfully. Buy a developer a beer!
