                               Psi4 1.3.2 release

  ==> Input File <==

--------------------------------------------------------------------------
import numpy as np
set {scf_type pk
basis cc-pvdz
d_convergence 10
gdma_switch   0
gdma_limit    0
gdma_origin   [ 0.0,  0.0,  0.0 ]
}
molecule test {
    units Angstrom
    0 1
    --
    0 1
    C                0.210074227726341    -1.159540395201002    -1.235901915523425
    C                0.440074227726341    -2.228540395201002    -2.303901915523425
    H                0.927074227726341    -0.345540395201002    -1.346901915523425
    H               -0.791925772273659    -0.746540395201002    -1.349901915523425
    H                0.287074227726341    -1.583540395201002    -0.234901915523425
    H                0.310074227726341    -1.770540395201002    -3.283901915523425
    H                1.454899227726341    -2.648418395201002    -2.241991915523425
    H               -0.307465772273659    -3.028552395201002    -2.198241915523425
    C               -0.324925772273659     1.620459604798998     1.007098084476575
    C               -0.324925772273659     1.769459604798998     2.536098084476575
    H               -0.366925772273659     2.596459604798998     0.527098084476575
    H                0.594074227726341     1.122459604798998     0.698098084476575
    H               -1.176925772273659     1.019459604798998     0.687098084476575
    H                0.532074227726341     2.373459604798998     2.839098084476575
    H               -0.209925772273659     0.772459604798998     2.949098084476575
    H               -1.255636772273659     2.216944604798998     2.914959084476575

}
e, wfn = energy('scf', return_wfn=True)
gdma(wfn)
dmavals = variable('DMA DISTRIBUTED MULTIPOLES')
charges = np.array(dmavals)
print(charges)
np.save('SSI-051VAL-104ILE-1-dimer.npy', np.array(charges))--------------------------------------------------------------------------

*** tstart() called on ds3
*** at Mon Apr 27 18:31:45 2020

   => Loading Basis Set <=

    Name: CC-PVDZ
    Role: ORBITAL
    Keyword: BASIS
    atoms 1-2, 9-10  entry C          line   138 file /theoryfs2/ds/metcalf/miniconda2/envs/tf2gpu/share/psi4/basis/cc-pvdz.gbs
    atoms 3-8, 11-16 entry H          line    22 file /theoryfs2/ds/metcalf/miniconda2/envs/tf2gpu/share/psi4/basis/cc-pvdz.gbs

         ---------------------------------------------------------
                                   SCF
               by Justin Turney, Rob Parrish, Andy Simmonett
                          and Daniel G. A. Smith
                              RHF Reference
                        1 Threads,    500 MiB Core
         ---------------------------------------------------------

  ==> Geometry <==

    Molecular point group: c1
    Full point group: C1

    Geometry (in Angstrom), charge = 0, multiplicity = 1:

       Center              X                  Y                   Z               Mass
    ------------   -----------------  -----------------  -----------------  -----------------
         C            0.210074227726    -1.159540395201    -1.235901915523    12.000000000000
         C            0.440074227726    -2.228540395201    -2.303901915523    12.000000000000
         H            0.927074227726    -0.345540395201    -1.346901915523     1.007825032230
         H           -0.791925772274    -0.746540395201    -1.349901915523     1.007825032230
         H            0.287074227726    -1.583540395201    -0.234901915523     1.007825032230
         H            0.310074227726    -1.770540395201    -3.283901915523     1.007825032230
         H            1.454899227726    -2.648418395201    -2.241991915523     1.007825032230
         H           -0.307465772274    -3.028552395201    -2.198241915523     1.007825032230
         C           -0.324925772274     1.620459604799     1.007098084477    12.000000000000
         C           -0.324925772274     1.769459604799     2.536098084477    12.000000000000
         H           -0.366925772274     2.596459604799     0.527098084477     1.007825032230
         H            0.594074227726     1.122459604799     0.698098084477     1.007825032230
         H           -1.176925772274     1.019459604799     0.687098084477     1.007825032230
         H            0.532074227726     2.373459604799     2.839098084477     1.007825032230
         H           -0.209925772274     0.772459604799     2.949098084477     1.007825032230
         H           -1.255636772274     2.216944604799     2.914959084477     1.007825032230

  Running in c1 symmetry.

  Rotational constants: A =      0.84627  B =      0.04111  C =      0.04041 [cm^-1]
  Rotational constants: A =  25370.47693  B =   1232.49688  C =   1211.60271 [MHz]
  Nuclear repulsion =  120.528950907761754

  Charge       = 0
  Multiplicity = 1
  Electrons    = 36
  Nalpha       = 18
  Nbeta        = 18

  ==> Algorithm <==

  SCF Algorithm Type is PK.
  DIIS enabled.
  MOM disabled.
  Fractional occupation disabled.
  Guess Type is SAD.
  Energy threshold   = 1.00e-06
  Density threshold  = 1.00e-10
  Integral threshold = 0.00e+00

  ==> Primary Basis <==

  Basis Set: CC-PVDZ
    Blend: CC-PVDZ
    Number of shells: 60
    Number of basis function: 116
    Number of Cartesian functions: 120
    Spherical Harmonics?: true
    Max angular momentum: 2

  ==> Pre-Iterations <==

   -------------------------------------------------------
    Irrep   Nso     Nmo     Nalpha   Nbeta   Ndocc  Nsocc
   -------------------------------------------------------
     A        116     116       0       0       0       0
   -------------------------------------------------------
    Total     116     116      18      18      18       0
   -------------------------------------------------------

  ==> Integral Setup <==

  Using integral reordering PK algorithm.
  Sizing the integral batches needed.
  Building batch lookup table.
   Calculation information:
      Number of atoms:                  16
      Number of AO shells:              60
      Number of primitives:            148
      Number of atomic orbitals:       120
      Number of basis functions:       116

      Integral cutoff                 1.00e-12
      Number of threads:                 1

	Batch   1 pq = [       0,    6786] index = [             0,23028291] size =     23028291
  Task number: 3
  Buffer size: 11059200
  Buffer per thread: 2
  We computed 1358575 shell quartets total.
  Whereas there are 1675365 unique shell quartets.

  ==> DiskJK: Disk-Based J/K Matrices <==

    J tasked:                  Yes
    K tasked:                  Yes
    wK tasked:                  No
    Memory [MiB]:              375
    Schwarz Cutoff:          1E-12

    OpenMP threads:              1

  Minimum eigenvalue in the overlap matrix is 6.4120833285E-03.
  Using Symmetric Orthogonalization.

  SCF Guess: Superposition of Atomic Densities via on-the-fly atomic UHF.

  ==> Iterations <==

                        Total Energy        Delta E     RMS |[F,P]|

   @RHF iter SAD:  -157.34271349905407   -1.57343e+02   0.00000e+00
   @RHF iter   1:  -158.30828181635849   -9.65568e-01   4.20587e-03 DIIS
   @RHF iter   2:  -158.44154722735973   -1.33265e-01   1.78662e-03 DIIS
   @RHF iter   3:  -158.46473433364415   -2.31871e-02   3.49804e-04 DIIS
   @RHF iter   4:  -158.46656436640137   -1.83003e-03   3.89421e-05 DIIS
   @RHF iter   5:  -158.46658802971359   -2.36633e-05   6.75403e-06 DIIS
   @RHF iter   6:  -158.46658868868781   -6.58974e-07   1.17785e-06 DIIS
   @RHF iter   7:  -158.46658870164811   -1.29603e-08   3.20911e-07 DIIS
   @RHF iter   8:  -158.46658870256508   -9.16970e-10   3.57676e-08 DIIS
   @RHF iter   9:  -158.46658870258386   -1.87867e-11   6.98282e-09 DIIS
   @RHF iter  10:  -158.46658870258429   -4.26326e-13   2.01801e-09 DIIS
   @RHF iter  11:  -158.46658870258403    2.55795e-13   6.13009e-10 DIIS
   @RHF iter  12:  -158.46658870258463   -5.96856e-13   1.49939e-10 DIIS
   @RHF iter  13:  -158.46658870258409    5.40012e-13   2.36664e-11 DIIS
  Energy and wave function converged.

  ==> Post-Iterations <==

    Orbital Energies [Eh]
    ---------------------

    Doubly Occupied:

       1A    -11.219051     2A    -11.217445     3A    -11.216572
       4A    -11.215385     5A     -1.018360     6A     -1.015468
       7A     -0.840435     8A     -0.833241     9A     -0.599339
      10A     -0.597634    11A     -0.597158    12A     -0.594243
      13A     -0.506532    14A     -0.492844    15A     -0.490007
      16A     -0.485159    17A     -0.483964    18A     -0.481426

    Virtual:

      19A      0.176176    20A      0.193981    21A      0.223000
      22A      0.234681    23A      0.242095    24A      0.260662
      25A      0.267731    26A      0.276392    27A      0.279969
      28A      0.292623    29A      0.310980    30A      0.325564
      31A      0.383812    32A      0.405819    33A      0.568844
      34A      0.592482    35A      0.593702    36A      0.603371
      37A      0.608460    38A      0.631498    39A      0.684215
      40A      0.691400    41A      0.704175    42A      0.754878
      43A      0.840514    44A      0.885391    45A      0.890380
      46A      0.893454    47A      0.893891    48A      0.895670
      49A      0.904082    50A      0.906902    51A      0.913936
      52A      0.931569    53A      0.932284    54A      0.937507
      55A      0.960937    56A      0.994143    57A      1.126086
      58A      1.129322    59A      1.135408    60A      1.147130
      61A      1.219548    62A      1.260982    63A      1.466161
      64A      1.473004    65A      1.474614    66A      1.484648
      67A      1.578299    68A      1.587586    69A      1.681666
      70A      1.682566    71A      1.694996    72A      1.695775
      73A      1.854324    74A      1.859614    75A      1.875245
      76A      1.877662    77A      1.890077    78A      1.918142
      79A      1.940406    80A      1.942986    81A      1.945819
      82A      1.950143    83A      1.955608    84A      1.957400
      85A      1.962612    86A      1.973109    87A      1.979969
      88A      2.059985    89A      2.095125    90A      2.096415
      91A      2.106917    92A      2.124155    93A      2.294303
      94A      2.303795    95A      2.315949    96A      2.339308
      97A      2.452083    98A      2.456906    99A      2.476634
     100A      2.481438   101A      2.553955   102A      2.564914
     103A      2.567010   104A      2.585319   105A      2.758314
     106A      2.771369   107A      2.784589   108A      2.794705
     109A      2.844066   110A      2.852773   111A      2.861010
     112A      2.866162   113A      2.945632   114A      2.953117
     115A      2.957150   116A      2.967528

    Final Occupation by Irrep:
              A
    DOCC [    18 ]

  @RHF Final Energy:  -158.46658870258409

   => Energetics <=

    Nuclear Repulsion Energy =            120.5289509077617538
    One-Electron Energy =                -450.1825530800015258
    Two-Electron Energy =                 171.1870134696556534
    Total Energy =                       -158.4665887025840902

Computation Completed

Properties will be evaluated at   0.000000,   0.000000,   0.000000 [a0]

Properties computed using the SCF density matrix

  Nuclear Dipole Moment: [e a0]
     X:    -0.0033      Y:    -0.0205      Z:    -0.0379

  Electronic Dipole Moment: [e a0]
     X:     0.0052      Y:     0.0195      Z:     0.0244

  Dipole Moment: [e a0]
     X:     0.0019      Y:    -0.0010      Z:    -0.0135     Total:     0.0136

  Dipole Moment: [D]
     X:     0.0048      Y:    -0.0025      Z:    -0.0342     Total:     0.0347

*** tstop() called on ds3 at Mon Apr 27 18:31:55 2020
Module time:
	user time   =       6.73 seconds =       0.11 minutes
	system time =       2.80 seconds =       0.05 minutes
	total time  =         10 seconds =       0.17 minutes
Total time:
	user time   =       6.73 seconds =       0.11 minutes
	system time =       2.80 seconds =       0.05 minutes
	total time  =         10 seconds =       0.17 minutes
                                     G D M A

                                 by Anthony Stone

                           version 2.2.06, 22 June 2011

               Distributed Multipoles from Gaussian wavefunctions

Starting at 18:31:55 on 27 Apr 2020

Using SCF density matrix from file ./SSI/SSI-051VAL-104ILE-1-dimer.test.23873.fchk

                         Distributed Multipole Analysis

Standard DMA

Positions and radii in angstrom
Multipole moments in atomic units, ea_0^k for rank k

C          x =  0.210074  y = -1.159540  z = -1.235902 angstrom
           Maximum rank =  0   Radius =  0.650 angstrom
                   Q00  =  -0.242620

C          x =  0.440074  y = -2.228540  z = -2.303902 angstrom
           Maximum rank =  0   Radius =  0.650 angstrom
                   Q00  =  -0.231801

H          x =  0.927074  y = -0.345540  z = -1.346902 angstrom
           Maximum rank =  0   Radius =  0.325 angstrom
                   Q00  =   0.079221

H          x = -0.791926  y = -0.746540  z = -1.349902 angstrom
           Maximum rank =  0   Radius =  0.325 angstrom
                   Q00  =   0.078803

H          x =  0.287074  y = -1.583540  z = -0.234902 angstrom
           Maximum rank =  0   Radius =  0.325 angstrom
                   Q00  =   0.078017

H          x =  0.310074  y = -1.770540  z = -3.283902 angstrom
           Maximum rank =  0   Radius =  0.325 angstrom
                   Q00  =   0.079129

H          x =  1.454899  y = -2.648418  z = -2.241992 angstrom
           Maximum rank =  0   Radius =  0.325 angstrom
                   Q00  =   0.080290

H          x = -0.307466  y = -3.028552  z = -2.198242 angstrom
           Maximum rank =  0   Radius =  0.325 angstrom
                   Q00  =   0.078965

C          x = -0.324926  y =  1.620460  z =  1.007098 angstrom
           Maximum rank =  0   Radius =  0.650 angstrom
                   Q00  =  -0.243104

C          x = -0.324926  y =  1.769460  z =  2.536098 angstrom
           Maximum rank =  0   Radius =  0.650 angstrom
                   Q00  =  -0.233179

H          x = -0.366926  y =  2.596460  z =  0.527098 angstrom
           Maximum rank =  0   Radius =  0.325 angstrom
                   Q00  =   0.078333

H          x =  0.594074  y =  1.122460  z =  0.698098 angstrom
           Maximum rank =  0   Radius =  0.325 angstrom
                   Q00  =   0.080673

H          x = -1.176926  y =  1.019460  z =  0.687098 angstrom
           Maximum rank =  0   Radius =  0.325 angstrom
                   Q00  =   0.080030

H          x =  0.532074  y =  2.373460  z =  2.839098 angstrom
           Maximum rank =  0   Radius =  0.325 angstrom
                   Q00  =   0.079305

H          x = -0.209926  y =  0.772460  z =  2.949098 angstrom
           Maximum rank =  0   Radius =  0.325 angstrom
                   Q00  =   0.077064

H          x = -1.255637  y =  2.216945  z =  2.914959 angstrom
           Maximum rank =  0   Radius =  0.325 angstrom
                   Q00  =   0.080872

Total multipoles referred to origin at
           x =   0.000000,  y =    0.000000,  z =    0.000000 angstrom
                   Q00  =  -0.000000

Finished at 18:31:55 on 27 Apr 2020

  DMA results are available in the Python driver through the
	  variable('DMA DISTRIBUTED MULTIPOLES')
  and
	  variable('DMA TOTAL MULTIPOLES')
  commands.

    Psi4 stopped on: Monday, 27 April 2020 06:31PM
    Psi4 wall time for execution: 0:00:09.33

*** Psi4 exiting successfully. Buy a developer a beer!
