                               Psi4 1.3.2 release

  ==> Input File <==

--------------------------------------------------------------------------
import numpy as np
set {scf_type pk
basis cc-pvdz
d_convergence 10
gdma_switch   0
gdma_limit    0
gdma_origin   [ 0.0,  0.0,  0.0 ]
}
molecule test {
    units Angstrom
    0 1
    --
    0 1
    C               -2.860765303742853     3.611989490662046    -2.150656020023592
    C               -0.563765303742853     1.475989490662046    -0.089656020023592
    C               -1.061765303742853     1.891989490662046    -1.347656020023592
    C               -2.049765303742853     2.901989490662046    -1.107656020023592
    C               -2.131765303742852     3.037989490662045     0.242343979976408
    C                0.899234696257147    -0.062010509337954    -1.131656020023592
    C                0.408234696257147     0.501989490662046     0.030343979976408
    C                0.441234696257147     0.341989490662046    -2.381656020023592
    C               -0.542765303742852     1.304989490662046    -2.503656020023592
    N               -1.243765303742853     2.188989490662046     0.860343979976408
    H                1.672234696257147    -0.812010509337954    -1.076656020023592
    H                0.746234696257147     0.175989490662046     1.000343979976408
    H                0.864234696257148    -0.098010509337954    -3.273656020023592
    H               -0.887765303742852     1.617989490662046    -3.477656020023592
    H               -1.149765303742853     2.111989490662046     1.868343979976408
    H               -2.806765303742853     3.714989490662045     0.756343979976408
    H               -2.196765303742852     3.990989490662046    -2.929656020023592
    H               -3.355765303742853     4.460989490662046    -1.687656020023592
    H               -3.598542303742852     2.931241490662046    -2.600397020023592
    C                1.563234696257147    -3.429010509337954     0.658343979976408
    C                2.981234696257148    -2.998010509337954     0.263343979976408
    C                1.259234696257147    -3.112010509337955     2.108343979976408
    O                1.376234696257147    -1.976010509337954     2.544343979976408
    N                0.882234696257147    -4.121010509337954     2.873343979976408
    H                0.838234696257147    -2.909010509337954     0.033343979976408
    H                1.437234696257147    -4.495010509337955     0.484343979976408
    H                3.691234696257147    -3.433010509337954     0.962343979976408
    H                3.056234696257147    -1.914010509337954     0.352343979976408
    H                0.652234696257147    -3.909010509337954     3.837343979976408
    H                0.723234696257147    -5.040010509337955     2.485343979976408
    H                3.239354696257148    -3.294234509337954    -0.764093020023592

}
e, wfn = energy('scf', return_wfn=True)
gdma(wfn)
dmavals = variable('DMA DISTRIBUTED MULTIPOLES')
charges = np.array(dmavals)
print(charges)
np.save('SSI-040TRP-052GLN-1-dimer.npy', np.array(charges))--------------------------------------------------------------------------

*** tstart() called on ds3
*** at Mon Apr 27 17:30:47 2020

   => Loading Basis Set <=

    Name: CC-PVDZ
    Role: ORBITAL
    Keyword: BASIS
    atoms 1-9, 20-22   entry C          line   138 file /theoryfs2/ds/metcalf/miniconda2/envs/tf2gpu/share/psi4/basis/cc-pvdz.gbs
    atoms 10, 24       entry N          line   168 file /theoryfs2/ds/metcalf/miniconda2/envs/tf2gpu/share/psi4/basis/cc-pvdz.gbs
    atoms 11-19, 25-31 entry H          line    22 file /theoryfs2/ds/metcalf/miniconda2/envs/tf2gpu/share/psi4/basis/cc-pvdz.gbs
    atoms 23           entry O          line   198 file /theoryfs2/ds/metcalf/miniconda2/envs/tf2gpu/share/psi4/basis/cc-pvdz.gbs

         ---------------------------------------------------------
                                   SCF
               by Justin Turney, Rob Parrish, Andy Simmonett
                          and Daniel G. A. Smith
                              RHF Reference
                        1 Threads,    500 MiB Core
         ---------------------------------------------------------

  ==> Geometry <==

    Molecular point group: c1
    Full point group: C1

    Geometry (in Angstrom), charge = 0, multiplicity = 1:

       Center              X                  Y                   Z               Mass
    ------------   -----------------  -----------------  -----------------  -----------------
         C           -2.860765303743     3.611989490662    -2.150656020024    12.000000000000
         C           -0.563765303743     1.475989490662    -0.089656020024    12.000000000000
         C           -1.061765303743     1.891989490662    -1.347656020024    12.000000000000
         C           -2.049765303743     2.901989490662    -1.107656020024    12.000000000000
         C           -2.131765303743     3.037989490662     0.242343979976    12.000000000000
         C            0.899234696257    -0.062010509338    -1.131656020024    12.000000000000
         C            0.408234696257     0.501989490662     0.030343979976    12.000000000000
         C            0.441234696257     0.341989490662    -2.381656020024    12.000000000000
         C           -0.542765303743     1.304989490662    -2.503656020024    12.000000000000
         N           -1.243765303743     2.188989490662     0.860343979976    14.003074004430
         H            1.672234696257    -0.812010509338    -1.076656020024     1.007825032230
         H            0.746234696257     0.175989490662     1.000343979976     1.007825032230
         H            0.864234696257    -0.098010509338    -3.273656020024     1.007825032230
         H           -0.887765303743     1.617989490662    -3.477656020024     1.007825032230
         H           -1.149765303743     2.111989490662     1.868343979976     1.007825032230
         H           -2.806765303743     3.714989490662     0.756343979976     1.007825032230
         H           -2.196765303743     3.990989490662    -2.929656020024     1.007825032230
         H           -3.355765303743     4.460989490662    -1.687656020024     1.007825032230
         H           -3.598542303743     2.931241490662    -2.600397020024     1.007825032230
         C            1.563234696257    -3.429010509338     0.658343979976    12.000000000000
         C            2.981234696257    -2.998010509338     0.263343979976    12.000000000000
         C            1.259234696257    -3.112010509338     2.108343979976    12.000000000000
         O            1.376234696257    -1.976010509338     2.544343979976    15.994914619570
         N            0.882234696257    -4.121010509338     2.873343979976    14.003074004430
         H            0.838234696257    -2.909010509338     0.033343979976     1.007825032230
         H            1.437234696257    -4.495010509338     0.484343979976     1.007825032230
         H            3.691234696257    -3.433010509338     0.962343979976     1.007825032230
         H            3.056234696257    -1.914010509338     0.352343979976     1.007825032230
         H            0.652234696257    -3.909010509338     3.837343979976     1.007825032230
         H            0.723234696257    -5.040010509338     2.485343979976     1.007825032230
         H            3.239354696257    -3.294234509338    -0.764093020024     1.007825032230

  Running in c1 symmetry.

  Rotational constants: A =      0.04051  B =      0.00783  C =      0.00690 [cm^-1]
  Rotational constants: A =   1214.43919  B =    234.74384  C =    206.93559 [MHz]
  Nuclear repulsion =  911.186105926383561

  Charge       = 0
  Multiplicity = 1
  Electrons    = 110
  Nalpha       = 55
  Nbeta        = 55

  ==> Algorithm <==

  SCF Algorithm Type is PK.
  DIIS enabled.
  MOM disabled.
  Fractional occupation disabled.
  Guess Type is SAD.
  Energy threshold   = 1.00e-06
  Density threshold  = 1.00e-10
  Integral threshold = 0.00e+00

  ==> Primary Basis <==

  Basis Set: CC-PVDZ
    Blend: CC-PVDZ
    Number of shells: 138
    Number of basis function: 290
    Number of Cartesian functions: 305
    Spherical Harmonics?: true
    Max angular momentum: 2

  ==> Pre-Iterations <==

   -------------------------------------------------------
    Irrep   Nso     Nmo     Nalpha   Nbeta   Ndocc  Nsocc
   -------------------------------------------------------
     A        290     290       0       0       0       0
   -------------------------------------------------------
    Total     290     290      55      55      55       0
   -------------------------------------------------------

  ==> Integral Setup <==

  Using integral reordering PK algorithm.
  Sizing the integral batches needed.
  Building batch lookup table.
   Calculation information:
      Number of atoms:                  31
      Number of AO shells:             138
      Number of primitives:            410
      Number of atomic orbitals:       305
      Number of basis functions:       290

      Integral cutoff                 1.00e-12
      Number of threads:                 1

	Batch   1 pq = [       0,    9405] index = [             0,44231715] size =     44231715
	Batch   2 pq = [    9405,   13301] index = [      44231715,88464951] size =     44233236
	Batch   3 pq = [   13301,   16290] index = [      88464951,132690195] size =     44225244
	Batch   4 pq = [   16290,   18810] index = [     132690195,176917455] size =     44227260
	Batch   5 pq = [   18810,   21030] index = [     176917455,221140965] size =     44223510
	Batch   6 pq = [   21030,   23037] index = [     221140965,265363203] size =     44222238
	Batch   7 pq = [   23037,   24883] index = [     265363203,309594286] size =     44231083
	Batch   8 pq = [   24883,   26601] index = [     309594286,353819901] size =     44225615
	Batch   9 pq = [   26601,   28214] index = [     353819901,398029005] size =     44209104
	Batch  10 pq = [   28214,   29740] index = [     398029005,442248670] size =     44219665
	Batch  11 pq = [   29740,   31191] index = [     442248670,486454836] size =     44206166
	Batch  12 pq = [   31191,   32578] index = [     486454836,530679331] size =     44224495
	Batch  13 pq = [   32578,   33908] index = [     530679331,574893186] size =     44213855
	Batch  14 pq = [   33908,   35188] index = [     574893186,619115266] size =     44222080
	Batch  15 pq = [   35188,   36423] index = [     619115266,663335676] size =     44220410
	Batch  16 pq = [   36423,   37617] index = [     663335676,707538153] size =     44202477
	Batch  17 pq = [   37617,   38775] index = [     707538153,751769700] size =     44231547
	Batch  18 pq = [   38775,   39899] index = [     751769700,795985050] size =     44215350
	Batch  19 pq = [   39899,   40992] index = [     795985050,840192528] size =     44207478
	Batch  20 pq = [   40992,   42057] index = [     840192528,884416653] size =     44224125
	Batch  21 pq = [   42057,   42195] index = [     884416653,890230110] size =      5813457
  Task number: 81
  Buffer size: 11059200
  Buffer per thread: 2
  We computed 37122846 shell quartets total.
  Whereas there are 45998436 unique shell quartets.

  ==> DiskJK: Disk-Based J/K Matrices <==

    J tasked:                  Yes
    K tasked:                  Yes
    wK tasked:                  No
    Memory [MiB]:              375
    Schwarz Cutoff:          1E-12

    OpenMP threads:              1

  Minimum eigenvalue in the overlap matrix is 2.3072997688E-04.
  Using Symmetric Orthogonalization.

  SCF Guess: Superposition of Atomic Densities via on-the-fly atomic UHF.

  ==> Iterations <==

                        Total Energy        Delta E     RMS |[F,P]|

   @RHF iter SAD:  -646.75353845807388   -6.46754e+02   0.00000e+00
   @RHF iter   1:  -647.19805525842639   -4.44517e-01   2.68441e-03 DIIS
   @RHF iter   2:  -647.49461976451835   -2.96565e-01   1.39316e-03 DIIS
   @RHF iter   3:  -647.56383950000156   -6.92197e-02   3.34012e-04 DIIS
   @RHF iter   4:  -647.56946898077967   -5.62948e-03   1.31117e-04 DIIS
   @RHF iter   5:  -647.57031632227631   -8.47341e-04   2.03772e-05 DIIS
   @RHF iter   6:  -647.57036499642913   -4.86742e-05   9.52069e-06 DIIS
   @RHF iter   7:  -647.57037384218233   -8.84575e-06   3.95297e-06 DIIS
   @RHF iter   8:  -647.57037594158612   -2.09940e-06   1.38597e-06 DIIS
   @RHF iter   9:  -647.57037623190240   -2.90316e-07   5.61995e-07 DIIS
   @RHF iter  10:  -647.57037627885950   -4.69571e-08   2.52364e-07 DIIS
   @RHF iter  11:  -647.57037629127035   -1.24109e-08   1.06525e-07 DIIS
   @RHF iter  12:  -647.57037629391561   -2.64527e-09   5.52105e-08 DIIS
   @RHF iter  13:  -647.57037629443414   -5.18526e-10   2.06700e-08 DIIS
   @RHF iter  14:  -647.57037629452259   -8.84484e-11   8.19359e-09 DIIS
   @RHF iter  15:  -647.57037629452873   -6.13909e-12   2.56499e-09 DIIS
   @RHF iter  16:  -647.57037629452907   -3.41061e-13   1.06620e-09 DIIS
   @RHF iter  17:  -647.57037629453043   -1.36424e-12   4.54139e-10 DIIS
   @RHF iter  18:  -647.57037629452896    1.47793e-12   2.06150e-10 DIIS
   @RHF iter  19:  -647.57037629452839    5.68434e-13   9.54553e-11 DIIS
  Energy and wave function converged.

  ==> Post-Iterations <==

    Orbital Energies [Eh]
    ---------------------

    Doubly Occupied:

       1A    -20.507186     2A    -15.592398     3A    -15.591379
       4A    -11.346009     5A    -11.256098     6A    -11.251843
       7A    -11.239794     8A    -11.229379     9A    -11.221415
      10A    -11.219510    11A    -11.216656    12A    -11.214295
      13A    -11.210681    14A    -11.209975    15A    -11.208589
      16A     -1.376053    17A     -1.286663    18A     -1.220796
      19A     -1.122889    20A     -1.065967    21A     -1.049717
      22A     -0.990206    23A     -0.980178    24A     -0.924516
      25A     -0.891296    26A     -0.831599    27A     -0.796326
      28A     -0.790624    29A     -0.744029    30A     -0.727417
      31A     -0.710551    32A     -0.668930    33A     -0.654618
      34A     -0.635731    35A     -0.622949    36A     -0.596380
      37A     -0.588494    38A     -0.585076    39A     -0.581920
      40A     -0.568072    41A     -0.560651    42A     -0.546284
      43A     -0.530273    44A     -0.527996    45A     -0.520688
      46A     -0.505207    47A     -0.495550    48A     -0.486946
      49A     -0.460940    50A     -0.455062    51A     -0.410932
      52A     -0.408325    53A     -0.364037    54A     -0.287890
      55A     -0.267011

    Virtual:

      56A      0.135954    57A      0.163125    58A      0.177883
      59A      0.186065    60A      0.193603    61A      0.196116
      62A      0.216357    63A      0.221739    64A      0.230270
      65A      0.236075    66A      0.240463    67A      0.252007
      68A      0.255270    69A      0.271089    70A      0.277981
      71A      0.282268    72A      0.291722    73A      0.297752
      74A      0.315213    75A      0.330014    76A      0.382687
      77A      0.384403    78A      0.395001    79A      0.405439
      80A      0.414021    81A      0.435809    82A      0.456406
      83A      0.471411    84A      0.492440    85A      0.502225
      86A      0.512310    87A      0.520250    88A      0.577323
      89A      0.605225    90A      0.611484    91A      0.619763
      92A      0.639018    93A      0.646125    94A      0.653933
      95A      0.675846    96A      0.682929    97A      0.691907
      98A      0.706536    99A      0.707710   100A      0.721521
     101A      0.736051   102A      0.738920   103A      0.740841
     104A      0.748604   105A      0.751449   106A      0.754291
     107A      0.770549   108A      0.775263   109A      0.784998
     110A      0.790048   111A      0.797649   112A      0.801973
     113A      0.821765   114A      0.833886   115A      0.840021
     116A      0.855014   117A      0.864809   118A      0.870950
     119A      0.883276   120A      0.885703   121A      0.889182
     122A      0.902771   123A      0.906404   124A      0.914446
     125A      0.920168   126A      0.934261   127A      0.939582
     128A      0.946677   129A      0.953467   130A      0.959505
     131A      0.964281   132A      0.974699   133A      0.989548
     134A      0.998473   135A      1.011263   136A      1.021777
     137A      1.036889   138A      1.050833   139A      1.060283
     140A      1.076057   141A      1.080578   142A      1.110692
     143A      1.119417   144A      1.136046   145A      1.148028
     146A      1.151464   147A      1.169582   148A      1.172666
     149A      1.216565   150A      1.222517   151A      1.235920
     152A      1.240674   153A      1.250757   154A      1.281165
     155A      1.289668   156A      1.302599   157A      1.307171
     158A      1.311204   159A      1.331905   160A      1.340667
     161A      1.347513   162A      1.372318   163A      1.378283
     164A      1.387389   165A      1.401749   166A      1.426889
     167A      1.436965   168A      1.452090   169A      1.461814
     170A      1.483169   171A      1.514492   172A      1.520793
     173A      1.545056   174A      1.577581   175A      1.595365
     176A      1.605925   177A      1.636811   178A      1.644133
     179A      1.656548   180A      1.659933   181A      1.688269
     182A      1.697635   183A      1.704010   184A      1.727066
     185A      1.753330   186A      1.760102   187A      1.775947
     188A      1.786934   189A      1.799144   190A      1.815416
     191A      1.824596   192A      1.837526   193A      1.841293
     194A      1.857129   195A      1.883658   196A      1.888111
     197A      1.895374   198A      1.907672   199A      1.911215
     200A      1.915366   201A      1.921963   202A      1.933805
     203A      1.940064   204A      1.944959   205A      1.947658
     206A      1.959806   207A      1.969192   208A      1.975766
     209A      1.993141   210A      1.999522   211A      2.018473
     212A      2.019080   213A      2.029620   214A      2.033672
     215A      2.045367   216A      2.059099   217A      2.075762
     218A      2.084773   219A      2.094035   220A      2.101466
     221A      2.110242   222A      2.120146   223A      2.124269
     224A      2.139324   225A      2.156639   226A      2.159053
     227A      2.172576   228A      2.201090   229A      2.211305
     230A      2.227007   231A      2.240139   232A      2.258354
     233A      2.291086   234A      2.293176   235A      2.305064
     236A      2.320561   237A      2.336357   238A      2.346129
     239A      2.370981   240A      2.398858   241A      2.414496
     242A      2.432541   243A      2.450946   244A      2.465100
     245A      2.474664   246A      2.479452   247A      2.502465
     248A      2.547838   249A      2.549866   250A      2.583043
     251A      2.594623   252A      2.599420   253A      2.622879
     254A      2.646226   255A      2.658521   256A      2.675115
     257A      2.703396   258A      2.708307   259A      2.776710
     260A      2.781764   261A      2.786360   262A      2.793420
     263A      2.805359   264A      2.828703   265A      2.834904
     266A      2.857083   267A      2.876763   268A      2.884067
     269A      2.890787   270A      2.906377   271A      2.927349
     272A      2.972722   273A      2.985171   274A      2.987401
     275A      3.048734   276A      3.071255   277A      3.099318
     278A      3.102715   279A      3.135991   280A      3.143201
     281A      3.228571   282A      3.294489   283A      3.335634
     284A      3.394314   285A      3.507562   286A      3.531469
     287A      3.755698   288A      3.889327   289A      3.922009
     290A      3.988598

    Final Occupation by Irrep:
              A
    DOCC [    55 ]

  @RHF Final Energy:  -647.57037629452839

   => Energetics <=

    Nuclear Repulsion Energy =            911.1861059263835614
    One-Electron Energy =               -2688.8049694101014211
    Two-Electron Energy =                1130.0484871891894727
    Total Energy =                       -647.5703762945283870

Computation Completed

Properties will be evaluated at   0.000000,   0.000000,   0.000000 [a0]

Properties computed using the SCF density matrix

  Nuclear Dipole Moment: [e a0]
     X:     2.7499      Y:    -6.4726      Z:    -3.7763

  Electronic Dipole Moment: [e a0]
     X:    -3.2105      Y:     5.0531      Z:     4.3768

  Dipole Moment: [e a0]
     X:    -0.4607      Y:    -1.4194      Z:     0.6005     Total:     1.6086

  Dipole Moment: [D]
     X:    -1.1709      Y:    -3.6078      Z:     1.5263     Total:     4.0887

*** tstop() called on ds3 at Mon Apr 27 17:41:20 2020
Module time:
	user time   =     333.84 seconds =       5.56 minutes
	system time =     149.55 seconds =       2.49 minutes
	total time  =        633 seconds =      10.55 minutes
Total time:
	user time   =     333.84 seconds =       5.56 minutes
	system time =     149.55 seconds =       2.49 minutes
	total time  =        633 seconds =      10.55 minutes
                                     G D M A

                                 by Anthony Stone

                           version 2.2.06, 22 June 2011

               Distributed Multipoles from Gaussian wavefunctions

Starting at 17:41:20 on 27 Apr 2020

Using SCF density matrix from file ./SSI/SSI-040TRP-052GLN-1-dimer.test.28386.fchk

                         Distributed Multipole Analysis

Standard DMA

Positions and radii in angstrom
Multipole moments in atomic units, ea_0^k for rank k

C          x = -2.860765  y =  3.611989  z = -2.150656 angstrom
           Maximum rank =  0   Radius =  0.650 angstrom
                   Q00  =  -0.202232

C          x = -0.563765  y =  1.475989  z = -0.089656 angstrom
           Maximum rank =  0   Radius =  0.650 angstrom
                   Q00  =   0.248720

C          x = -1.061765  y =  1.891989  z = -1.347656 angstrom
           Maximum rank =  0   Radius =  0.650 angstrom
                   Q00  =  -0.055194

C          x = -2.049765  y =  2.901989  z = -1.107656 angstrom
           Maximum rank =  0   Radius =  0.650 angstrom
                   Q00  =  -0.129927

C          x = -2.131765  y =  3.037989  z =  0.242344 angstrom
           Maximum rank =  0   Radius =  0.650 angstrom
                   Q00  =   0.074729

C          x =  0.899235  y = -0.062011  z = -1.131656 angstrom
           Maximum rank =  0   Radius =  0.650 angstrom
                   Q00  =  -0.012911

C          x =  0.408235  y =  0.501989  z =  0.030344 angstrom
           Maximum rank =  0   Radius =  0.650 angstrom
                   Q00  =  -0.114372

C          x =  0.441235  y =  0.341989  z = -2.381656 angstrom
           Maximum rank =  0   Radius =  0.650 angstrom
                   Q00  =  -0.091362

C          x = -0.542765  y =  1.304989  z = -2.503656 angstrom
           Maximum rank =  0   Radius =  0.650 angstrom
                   Q00  =  -0.103048

N          x = -1.243765  y =  2.188989  z =  0.860344 angstrom
           Maximum rank =  0   Radius =  0.650 angstrom
                   Q00  =  -0.499693

H          x =  1.672235  y = -0.812011  z = -1.076656 angstrom
           Maximum rank =  0   Radius =  0.325 angstrom
                   Q00  =   0.053449

H          x =  0.746235  y =  0.175989  z =  1.000344 angstrom
           Maximum rank =  0   Radius =  0.325 angstrom
                   Q00  =   0.093666

H          x =  0.864235  y = -0.098011  z = -3.273656 angstrom
           Maximum rank =  0   Radius =  0.325 angstrom
                   Q00  =   0.051172

H          x = -0.887765  y =  1.617989  z = -3.477656 angstrom
           Maximum rank =  0   Radius =  0.325 angstrom
                   Q00  =   0.063752

H          x = -1.149765  y =  2.111989  z =  1.868344 angstrom
           Maximum rank =  0   Radius =  0.325 angstrom
                   Q00  =   0.220666

H          x = -2.806765  y =  3.714989  z =  0.756344 angstrom
           Maximum rank =  0   Radius =  0.325 angstrom
                   Q00  =   0.098451

H          x = -2.196765  y =  3.990989  z = -2.929656 angstrom
           Maximum rank =  0   Radius =  0.325 angstrom
                   Q00  =   0.098246

H          x = -3.355765  y =  4.460989  z = -1.687656 angstrom
           Maximum rank =  0   Radius =  0.325 angstrom
                   Q00  =   0.103527

H          x = -3.598542  y =  2.931241  z = -2.600397 angstrom
           Maximum rank =  0   Radius =  0.325 angstrom
                   Q00  =   0.095380

C          x =  1.563235  y = -3.429011  z =  0.658344 angstrom
           Maximum rank =  0   Radius =  0.650 angstrom
                   Q00  =  -0.142200

C          x =  2.981235  y = -2.998011  z =  0.263344 angstrom
           Maximum rank =  0   Radius =  0.650 angstrom
                   Q00  =  -0.209617

C          x =  1.259235  y = -3.112011  z =  2.108344 angstrom
           Maximum rank =  0   Radius =  0.650 angstrom
                   Q00  =   0.835949

O          x =  1.376235  y = -1.976011  z =  2.544344 angstrom
           Maximum rank =  0   Radius =  0.650 angstrom
                   Q00  =  -0.809842

N          x =  0.882235  y = -4.121011  z =  2.873344 angstrom
           Maximum rank =  0   Radius =  0.650 angstrom
                   Q00  =  -0.534477

H          x =  0.838235  y = -2.909011  z =  0.033344 angstrom
           Maximum rank =  0   Radius =  0.325 angstrom
                   Q00  =   0.115152

H          x =  1.437235  y = -4.495011  z =  0.484344 angstrom
           Maximum rank =  0   Radius =  0.325 angstrom
                   Q00  =   0.042063

H          x =  3.691235  y = -3.433011  z =  0.962344 angstrom
           Maximum rank =  0   Radius =  0.325 angstrom
                   Q00  =   0.083276

H          x =  3.056235  y = -1.914011  z =  0.352344 angstrom
           Maximum rank =  0   Radius =  0.325 angstrom
                   Q00  =   0.108757

H          x =  0.652235  y = -3.909011  z =  3.837344 angstrom
           Maximum rank =  0   Radius =  0.325 angstrom
                   Q00  =   0.217734

H          x =  0.723235  y = -5.040011  z =  2.485344 angstrom
           Maximum rank =  0   Radius =  0.325 angstrom
                   Q00  =   0.212151

H          x =  3.239355  y = -3.294235  z = -0.764093 angstrom
           Maximum rank =  0   Radius =  0.325 angstrom
                   Q00  =   0.088034

Total multipoles referred to origin at
           x =   0.000000,  y =    0.000000,  z =    0.000000 angstrom
                   Q00  =  -0.000000

Finished at 17:41:20 on 27 Apr 2020

  DMA results are available in the Python driver through the
	  variable('DMA DISTRIBUTED MULTIPOLES')
  and
	  variable('DMA TOTAL MULTIPOLES')
  commands.

    Psi4 stopped on: Monday, 27 April 2020 05:41PM
    Psi4 wall time for execution: 0:10:33.04

*** Psi4 exiting successfully. Buy a developer a beer!
