                               Psi4 1.3.2 release

  ==> Input File <==

--------------------------------------------------------------------------
import numpy as np
set {scf_type pk
basis cc-pvdz
d_convergence 10
gdma_switch   0
gdma_limit    0
gdma_origin   [ 0.0,  0.0,  0.0 ]
}
molecule test {
    units Angstrom
    0 1
    --
    0 1
    C               -0.084597268994199    -3.102912042152803    -0.495743967517014
    C               -0.916597268994199    -4.156912042152802    -1.223743967517014
    H               -0.728597268994199    -2.292912042152803    -0.158743967517014
    H                0.401402731005801    -3.553912042152803     0.368256032482986
    H                0.673402731005801    -2.706912042152803    -1.171743967517014
    H               -1.667597268994199    -4.554912042152803    -0.540743967517014
    H               -0.260597268994199    -4.964912042152802    -1.543743967517013
    H               -1.435411268994199    -3.762412042152803    -2.109873967517014
    C                3.009402731005800     0.715087957847197     1.070256032482986
    C               -0.427597268994199     0.699087957847197    -0.592743967517014
    C                0.389402731005801     0.894087957847197     0.558256032482986
    C                1.759402731005801     0.628087957847197     0.182256032482986
    C                1.718402731005801     0.283087957847197    -1.136743967517014
    C               -1.812597268994199     0.878087957847197    -0.573743967517014
    C               -2.412597268994200     1.255087957847197     0.629256032482986
    C               -0.239597268994199     1.283087957847197     1.755256032482986
    C               -1.637597268994199     1.451087957847197     1.779256032482986
    N                0.416402731005801     0.319087957847197    -1.606743967517014
    H                0.121402731005801     0.091087957847197    -2.550743967517013
    H               -2.373597268994200     0.717087957847197    -1.483743967517014
    H                2.640402731005801     0.033087957847197    -1.648743967517014
    H               -3.481597268994200     1.397087957847197     0.679256032482986
    H                0.326402731005801     1.459087957847197     2.665256032482986
    H                3.704402731005800    -0.056912042152803     0.731256032482986
    H                2.702402731005801     0.479087957847197     2.094256032482986
    H               -2.114597268994199     1.737087957847197     2.706256032482986
    H                3.500382731005801     1.699187957847197     1.048266032482986

}
e, wfn = energy('scf', return_wfn=True)
gdma(wfn)
dmavals = variable('DMA DISTRIBUTED MULTIPOLES')
charges = np.array(dmavals)
print(charges)
np.save('SSI-089ILE-112TRP-1-dimer.npy', np.array(charges))--------------------------------------------------------------------------

*** tstart() called on ds3
*** at Mon Apr 27 13:49:25 2020

   => Loading Basis Set <=

    Name: CC-PVDZ
    Role: ORBITAL
    Keyword: BASIS
    atoms 1-2, 9-17  entry C          line   138 file /theoryfs2/ds/metcalf/miniconda2/envs/tf2gpu/share/psi4/basis/cc-pvdz.gbs
    atoms 3-8, 19-27 entry H          line    22 file /theoryfs2/ds/metcalf/miniconda2/envs/tf2gpu/share/psi4/basis/cc-pvdz.gbs
    atoms 18         entry N          line   168 file /theoryfs2/ds/metcalf/miniconda2/envs/tf2gpu/share/psi4/basis/cc-pvdz.gbs

         ---------------------------------------------------------
                                   SCF
               by Justin Turney, Rob Parrish, Andy Simmonett
                          and Daniel G. A. Smith
                              RHF Reference
                        1 Threads,    500 MiB Core
         ---------------------------------------------------------

  ==> Geometry <==

    Molecular point group: c1
    Full point group: C1

    Geometry (in Angstrom), charge = 0, multiplicity = 1:

       Center              X                  Y                   Z               Mass
    ------------   -----------------  -----------------  -----------------  -----------------
         C           -0.084597268994    -3.102912042153    -0.495743967517    12.000000000000
         C           -0.916597268994    -4.156912042153    -1.223743967517    12.000000000000
         H           -0.728597268994    -2.292912042153    -0.158743967517     1.007825032230
         H            0.401402731006    -3.553912042153     0.368256032483     1.007825032230
         H            0.673402731006    -2.706912042153    -1.171743967517     1.007825032230
         H           -1.667597268994    -4.554912042153    -0.540743967517     1.007825032230
         H           -0.260597268994    -4.964912042153    -1.543743967517     1.007825032230
         H           -1.435411268994    -3.762412042153    -2.109873967517     1.007825032230
         C            3.009402731006     0.715087957847     1.070256032483    12.000000000000
         C           -0.427597268994     0.699087957847    -0.592743967517    12.000000000000
         C            0.389402731006     0.894087957847     0.558256032483    12.000000000000
         C            1.759402731006     0.628087957847     0.182256032483    12.000000000000
         C            1.718402731006     0.283087957847    -1.136743967517    12.000000000000
         C           -1.812597268994     0.878087957847    -0.573743967517    12.000000000000
         C           -2.412597268994     1.255087957847     0.629256032483    12.000000000000
         C           -0.239597268994     1.283087957847     1.755256032483    12.000000000000
         C           -1.637597268994     1.451087957847     1.779256032483    12.000000000000
         N            0.416402731006     0.319087957847    -1.606743967517    14.003074004430
         H            0.121402731006     0.091087957847    -2.550743967517     1.007825032230
         H           -2.373597268994     0.717087957847    -1.483743967517     1.007825032230
         H            2.640402731006     0.033087957847    -1.648743967517     1.007825032230
         H           -3.481597268994     1.397087957847     0.679256032483     1.007825032230
         H            0.326402731006     1.459087957847     2.665256032483     1.007825032230
         H            3.704402731006    -0.056912042153     0.731256032483     1.007825032230
         H            2.702402731006     0.479087957847     2.094256032483     1.007825032230
         H           -2.114597268994     1.737087957847     2.706256032483     1.007825032230
         H            3.500382731006     1.699187957847     1.048266032483     1.007825032230

  Running in c1 symmetry.

  Rotational constants: A =      0.03069  B =      0.02276  C =      0.01669 [cm^-1]
  Rotational constants: A =    920.16800  B =    682.29570  C =    500.43523 [MHz]
  Nuclear repulsion =  658.714692409697136

  Charge       = 0
  Multiplicity = 1
  Electrons    = 88
  Nalpha       = 44
  Nbeta        = 44

  ==> Algorithm <==

  SCF Algorithm Type is PK.
  DIIS enabled.
  MOM disabled.
  Fractional occupation disabled.
  Guess Type is SAD.
  Energy threshold   = 1.00e-06
  Density threshold  = 1.00e-10
  Integral threshold = 0.00e+00

  ==> Primary Basis <==

  Basis Set: CC-PVDZ
    Blend: CC-PVDZ
    Number of shells: 117
    Number of basis function: 243
    Number of Cartesian functions: 255
    Spherical Harmonics?: true
    Max angular momentum: 2

  ==> Pre-Iterations <==

   -------------------------------------------------------
    Irrep   Nso     Nmo     Nalpha   Nbeta   Ndocc  Nsocc
   -------------------------------------------------------
     A        243     243       0       0       0       0
   -------------------------------------------------------
    Total     243     243      44      44      44       0
   -------------------------------------------------------

  ==> Integral Setup <==

  Using integral reordering PK algorithm.
  Sizing the integral batches needed.
  Building batch lookup table.
   Calculation information:
      Number of atoms:                  27
      Number of AO shells:             117
      Number of primitives:            339
      Number of atomic orbitals:       255
      Number of basis functions:       243

      Integral cutoff                 1.00e-12
      Number of threads:                 1

	Batch   1 pq = [       0,    9405] index = [             0,44231715] size =     44231715
	Batch   2 pq = [    9405,   13301] index = [      44231715,88464951] size =     44233236
	Batch   3 pq = [   13301,   16290] index = [      88464951,132690195] size =     44225244
	Batch   4 pq = [   16290,   18810] index = [     132690195,176917455] size =     44227260
	Batch   5 pq = [   18810,   21030] index = [     176917455,221140965] size =     44223510
	Batch   6 pq = [   21030,   23037] index = [     221140965,265363203] size =     44222238
	Batch   7 pq = [   23037,   24883] index = [     265363203,309594286] size =     44231083
	Batch   8 pq = [   24883,   26601] index = [     309594286,353819901] size =     44225615
	Batch   9 pq = [   26601,   28214] index = [     353819901,398029005] size =     44209104
	Batch  10 pq = [   28214,   29646] index = [     398029005,439457481] size =     41428476
  Task number: 40
  Buffer size: 11059200
  Buffer per thread: 2
  We computed 24002240 shell quartets total.
  Whereas there are 23829156 unique shell quartets.
     0.73 percent of shell quartets recomputed by reordering.

  ==> DiskJK: Disk-Based J/K Matrices <==

    J tasked:                  Yes
    K tasked:                  Yes
    wK tasked:                  No
    Memory [MiB]:              375
    Schwarz Cutoff:          1E-12

    OpenMP threads:              1

  Minimum eigenvalue in the overlap matrix is 2.4900603655E-04.
  Using Symmetric Orthogonalization.

  SCF Guess: Superposition of Atomic Densities via on-the-fly atomic UHF.

  ==> Iterations <==

                        Total Energy        Delta E     RMS |[F,P]|

   @RHF iter SAD:  -478.84094126204184   -4.78841e+02   0.00000e+00
   @RHF iter   1:  -479.49078407379642   -6.49843e-01   2.57206e-03 DIIS
   @RHF iter   2:  -479.71920168548991   -2.28418e-01   1.12995e-03 DIIS
   @RHF iter   3:  -479.75925961716518   -4.00579e-02   2.98087e-04 DIIS
   @RHF iter   4:  -479.76297265405390   -3.71304e-03   1.38180e-04 DIIS
   @RHF iter   5:  -479.76361108558871   -6.38432e-04   1.99531e-05 DIIS
   @RHF iter   6:  -479.76364072511166   -2.96395e-05   9.31427e-06 DIIS
   @RHF iter   7:  -479.76364680888639   -6.08377e-06   3.85377e-06 DIIS
   @RHF iter   8:  -479.76364859371262   -1.78483e-06   1.52639e-06 DIIS
   @RHF iter   9:  -479.76364894289850   -3.49186e-07   6.76713e-07 DIIS
   @RHF iter  10:  -479.76364901376888   -7.08704e-08   3.12170e-07 DIIS
   @RHF iter  11:  -479.76364903107071   -1.73018e-08   1.16158e-07 DIIS
   @RHF iter  12:  -479.76364903342147   -2.35076e-09   4.02766e-08 DIIS
   @RHF iter  13:  -479.76364903359479   -1.73316e-10   1.20195e-08 DIIS
   @RHF iter  14:  -479.76364903360297   -8.18545e-12   5.71286e-09 DIIS
   @RHF iter  15:  -479.76364903360843   -5.45697e-12   2.79994e-09 DIIS
   @RHF iter  16:  -479.76364903361622   -7.78755e-12   1.12899e-09 DIIS
   @RHF iter  17:  -479.76364903361400    2.21689e-12   4.84886e-10 DIIS
   @RHF iter  18:  -479.76364903361753   -3.52429e-12   1.78417e-10 DIIS
   @RHF iter  19:  -479.76364903361713    3.97904e-13   6.34148e-11 DIIS
  Energy and wave function converged.

  ==> Post-Iterations <==

    Orbital Energies [Eh]
    ---------------------

    Doubly Occupied:

       1A    -15.603549     2A    -11.266168     3A    -11.265833
       4A    -11.233563     5A    -11.232833     6A    -11.232655
       7A    -11.231488     8A    -11.223923     9A    -11.222626
      10A    -11.221296    11A    -11.212830    12A    -11.207277
      13A     -1.291168    14A     -1.123130    15A     -1.068698
      16A     -1.012102    17A     -0.991936    18A     -0.985845
      19A     -0.930279    20A     -0.837771    21A     -0.830597
      22A     -0.802245    23A     -0.750328    24A     -0.717819
      25A     -0.665164    26A     -0.638878    27A     -0.598709
      28A     -0.594551    29A     -0.593285    30A     -0.588685
      31A     -0.584945    32A     -0.564628    33A     -0.553485
      34A     -0.532370    35A     -0.527525    36A     -0.494622
      37A     -0.494048    38A     -0.480652    39A     -0.477025
      40A     -0.469749    41A     -0.457926    42A     -0.372557
      43A     -0.294117    44A     -0.275429

    Virtual:

      45A      0.122738    46A      0.168126    47A      0.170088
      48A      0.186213    49A      0.202145    50A      0.203861
      51A      0.218499    52A      0.229871    53A      0.234026
      54A      0.247582    55A      0.262117    56A      0.263569
      57A      0.268363    58A      0.269365    59A      0.285842
      60A      0.296020    61A      0.300014    62A      0.307970
      63A      0.371048    64A      0.380539    65A      0.392699
      66A      0.400503    67A      0.421388    68A      0.439793
      69A      0.466486    70A      0.478034    71A      0.503029
      72A      0.509680    73A      0.581179    74A      0.591697
      75A      0.606339    76A      0.606708    77A      0.622159
      78A      0.636776    79A      0.645121    80A      0.666165
      81A      0.675498    82A      0.680775    83A      0.695197
      84A      0.710966    85A      0.715448    86A      0.726656
      87A      0.734452    88A      0.741821    89A      0.747826
      90A      0.759941    91A      0.763175    92A      0.777184
      93A      0.788839    94A      0.801387    95A      0.812307
      96A      0.842540    97A      0.858165    98A      0.871889
      99A      0.873836   100A      0.886034   101A      0.890594
     102A      0.897227   103A      0.897582   104A      0.901722
     105A      0.906047   106A      0.913219   107A      0.922349
     108A      0.927198   109A      0.946460   110A      0.949729
     111A      0.957839   112A      0.974381   113A      0.981204
     114A      0.983371   115A      1.004456   116A      1.020135
     117A      1.052348   118A      1.085112   119A      1.089179
     120A      1.126291   121A      1.127592   122A      1.131377
     123A      1.142941   124A      1.149722   125A      1.164988
     126A      1.171254   127A      1.209953   128A      1.216267
     129A      1.227489   130A      1.237172   131A      1.243091
     132A      1.262954   133A      1.275921   134A      1.283680
     135A      1.291107   136A      1.323038   137A      1.332015
     138A      1.354847   139A      1.360256   140A      1.412792
     141A      1.443949   142A      1.475917   143A      1.492285
     144A      1.507470   145A      1.535959   146A      1.562332
     147A      1.576875   148A      1.598369   149A      1.621562
     150A      1.638719   151A      1.647274   152A      1.683186
     153A      1.685697   154A      1.695360   155A      1.719893
     156A      1.746720   157A      1.758874   158A      1.769366
     159A      1.782361   160A      1.818982   161A      1.825259
     162A      1.841514   163A      1.870882   164A      1.875100
     165A      1.878926   166A      1.887221   167A      1.893933
     168A      1.903450   169A      1.907355   170A      1.918175
     171A      1.923389   172A      1.930821   173A      1.941881
     174A      1.956944   175A      1.960543   176A      1.963349
     177A      1.969660   178A      1.976071   179A      1.984363
     180A      1.993205   181A      2.009527   182A      2.022472
     183A      2.042819   184A      2.063057   185A      2.078080
     186A      2.086048   187A      2.093298   188A      2.096030
     189A      2.107446   190A      2.119689   191A      2.127020
     192A      2.139464   193A      2.159364   194A      2.164580
     195A      2.171087   196A      2.228419   197A      2.258131
     198A      2.274406   199A      2.295246   200A      2.302784
     201A      2.313209   202A      2.327830   203A      2.329380
     204A      2.344912   205A      2.389391   206A      2.393187
     207A      2.445062   208A      2.456389   209A      2.464390
     210A      2.484284   211A      2.534404   212A      2.557140
     213A      2.572000   214A      2.583148   215A      2.590160
     216A      2.617057   217A      2.659182   218A      2.673100
     219A      2.713957   220A      2.762682   221A      2.763299
     222A      2.773218   223A      2.777831   224A      2.789003
     225A      2.806292   226A      2.828890   227A      2.845645
     228A      2.863716   229A      2.869657   230A      2.872605
     231A      2.910586   232A      2.951740   233A      2.961486
     234A      2.979668   235A      2.999798   236A      3.037981
     237A      3.067251   238A      3.104459   239A      3.186699
     240A      3.265925   241A      3.359443   242A      3.730663
     243A      3.927083

    Final Occupation by Irrep:
              A
    DOCC [    44 ]

  @RHF Final Energy:  -479.76364903361713

   => Energetics <=

    Nuclear Repulsion Energy =            658.7146924096971361
    One-Electron Energy =               -1955.4480589649601825
    Two-Electron Energy =                 816.9697175216458618
    Total Energy =                       -479.7636490336171846

Computation Completed

Properties will be evaluated at   0.000000,   0.000000,   0.000000 [a0]

Properties computed using the SCF density matrix

  Nuclear Dipole Moment: [e a0]
     X:     1.8814      Y:   -13.3881      Z:    -0.8534

  Electronic Dipole Moment: [e a0]
     X:    -1.5959      Y:    13.2326      Z:     0.2073

  Dipole Moment: [e a0]
     X:     0.2855      Y:    -0.1555      Z:    -0.6460     Total:     0.7232

  Dipole Moment: [D]
     X:     0.7256      Y:    -0.3952      Z:    -1.6421     Total:     1.8383

*** tstop() called on ds3 at Mon Apr 27 13:53:44 2020
Module time:
	user time   =     190.12 seconds =       3.17 minutes
	system time =      71.59 seconds =       1.19 minutes
	total time  =        259 seconds =       4.32 minutes
Total time:
	user time   =     190.12 seconds =       3.17 minutes
	system time =      71.59 seconds =       1.19 minutes
	total time  =        259 seconds =       4.32 minutes
                                     G D M A

                                 by Anthony Stone

                           version 2.2.06, 22 June 2011

               Distributed Multipoles from Gaussian wavefunctions

Starting at 13:53:44 on 27 Apr 2020

Using SCF density matrix from file ./SSI/SSI-089ILE-112TRP-1-dimer.test.7917.fchk

                         Distributed Multipole Analysis

Standard DMA

Positions and radii in angstrom
Multipole moments in atomic units, ea_0^k for rank k

C          x = -0.084597  y = -3.102912  z = -0.495744 angstrom
           Maximum rank =  0   Radius =  0.650 angstrom
                   Q00  =  -0.223821

C          x = -0.916597  y = -4.156912  z = -1.223744 angstrom
           Maximum rank =  0   Radius =  0.650 angstrom
                   Q00  =  -0.245560

H          x = -0.728597  y = -2.292912  z = -0.158744 angstrom
           Maximum rank =  0   Radius =  0.325 angstrom
                   Q00  =   0.092168

H          x =  0.401403  y = -3.553912  z =  0.368256 angstrom
           Maximum rank =  0   Radius =  0.325 angstrom
                   Q00  =   0.078438

H          x =  0.673403  y = -2.706912  z = -1.171744 angstrom
           Maximum rank =  0   Radius =  0.325 angstrom
                   Q00  =   0.070456

H          x = -1.667597  y = -4.554912  z = -0.540744 angstrom
           Maximum rank =  0   Radius =  0.325 angstrom
                   Q00  =   0.078461

H          x = -0.260597  y = -4.964912  z = -1.543744 angstrom
           Maximum rank =  0   Radius =  0.325 angstrom
                   Q00  =   0.073625

H          x = -1.435411  y = -3.762412  z = -2.109874 angstrom
           Maximum rank =  0   Radius =  0.325 angstrom
                   Q00  =   0.071923

C          x =  3.009403  y =  0.715088  z =  1.070256 angstrom
           Maximum rank =  0   Radius =  0.650 angstrom
                   Q00  =  -0.207292

C          x = -0.427597  y =  0.699088  z = -0.592744 angstrom
           Maximum rank =  0   Radius =  0.650 angstrom
                   Q00  =   0.290210

C          x =  0.389403  y =  0.894088  z =  0.558256 angstrom
           Maximum rank =  0   Radius =  0.650 angstrom
                   Q00  =  -0.043060

C          x =  1.759403  y =  0.628088  z =  0.182256 angstrom
           Maximum rank =  0   Radius =  0.650 angstrom
                   Q00  =  -0.140223

C          x =  1.718403  y =  0.283088  z = -1.136744 angstrom
           Maximum rank =  0   Radius =  0.650 angstrom
                   Q00  =   0.079415

C          x = -1.812597  y =  0.878088  z = -0.573744 angstrom
           Maximum rank =  0   Radius =  0.650 angstrom
                   Q00  =  -0.128574

C          x = -2.412597  y =  1.255088  z =  0.629256 angstrom
           Maximum rank =  0   Radius =  0.650 angstrom
                   Q00  =  -0.082191

C          x = -0.239597  y =  1.283088  z =  1.755256 angstrom
           Maximum rank =  0   Radius =  0.650 angstrom
                   Q00  =  -0.098775

C          x = -1.637597  y =  1.451088  z =  1.779256 angstrom
           Maximum rank =  0   Radius =  0.650 angstrom
                   Q00  =  -0.072472

N          x =  0.416403  y =  0.319088  z = -1.606744 angstrom
           Maximum rank =  0   Radius =  0.650 angstrom
                   Q00  =  -0.498732

H          x =  0.121403  y =  0.091088  z = -2.550744 angstrom
           Maximum rank =  0   Radius =  0.325 angstrom
                   Q00  =   0.218919

H          x = -2.373597  y =  0.717088  z = -1.483744 angstrom
           Maximum rank =  0   Radius =  0.325 angstrom
                   Q00  =   0.073339

H          x =  2.640403  y =  0.033088  z = -1.648744 angstrom
           Maximum rank =  0   Radius =  0.325 angstrom
                   Q00  =   0.102349

H          x = -3.481597  y =  1.397088  z =  0.679256 angstrom
           Maximum rank =  0   Radius =  0.325 angstrom
                   Q00  =   0.066908

H          x =  0.326403  y =  1.459088  z =  2.665256 angstrom
           Maximum rank =  0   Radius =  0.325 angstrom
                   Q00  =   0.069835

H          x =  3.704403  y = -0.056912  z =  0.731256 angstrom
           Maximum rank =  0   Radius =  0.325 angstrom
                   Q00  =   0.103639

H          x =  2.702403  y =  0.479088  z =  2.094256 angstrom
           Maximum rank =  0   Radius =  0.325 angstrom
                   Q00  =   0.105511

H          x = -2.114597  y =  1.737088  z =  2.706256 angstrom
           Maximum rank =  0   Radius =  0.325 angstrom
                   Q00  =   0.061362

H          x =  3.500383  y =  1.699188  z =  1.048266 angstrom
           Maximum rank =  0   Radius =  0.325 angstrom
                   Q00  =   0.104142

Total multipoles referred to origin at
           x =   0.000000,  y =    0.000000,  z =    0.000000 angstrom
                   Q00  =  -0.000000

Finished at 13:53:44 on 27 Apr 2020

  DMA results are available in the Python driver through the
	  variable('DMA DISTRIBUTED MULTIPOLES')
  and
	  variable('DMA TOTAL MULTIPOLES')
  commands.

    Psi4 stopped on: Monday, 27 April 2020 01:53PM
    Psi4 wall time for execution: 0:04:19.44

*** Psi4 exiting successfully. Buy a developer a beer!
