                               Psi4 1.3.2 release

  ==> Input File <==

--------------------------------------------------------------------------
import numpy as np
set {scf_type pk
basis cc-pvdz
d_convergence 10
gdma_switch   0
gdma_limit    0
gdma_origin   [ 0.0,  0.0,  0.0 ]
}
molecule test {
    units Angstrom
    0 1
    --
    0 1
    C                0.081980194109088    -0.579350834425849     2.097129660622193
    C                0.855980194109088    -1.870350834425849     1.794129660622193
    H               -0.954019805890912    -0.657350834425849     1.775129660622193
    H                0.096980194109088    -0.388350834425849     3.168129660622193
    H                0.540980194109088     0.261649165574151     1.576129660622193
    H                0.492980194109088    -2.647350834425849     2.461129660622193
    H                0.698210194109088    -2.171671834425849     0.748029660622193
    H                1.927380194109088    -1.722201834425849     1.994529660622193
    C               -0.253019805890912     1.040649165574151    -1.239870339377807
    C               -0.679019805890912     1.411649165574151    -2.654870339377807
    H               -0.204019805890912     1.931649165574151    -0.613870339377807
    H               -0.979019805890912     0.354649165574151    -0.804870339377807
    H                0.727980194109088     0.566649165574151    -1.265870339377807
    H               -1.624019805890912     1.949649165574151    -2.585870339377807
    H               -0.856019805890912     0.485649165574151    -3.201870339377807
    H                0.062090194109088     2.006113165574151    -3.209274339377808

}
e, wfn = energy('scf', return_wfn=True)
gdma(wfn)
dmavals = variable('DMA DISTRIBUTED MULTIPOLES')
charges = np.array(dmavals)
print(charges)
np.save('SSI-104VAL-126ILE-1-dimer.npy', np.array(charges))--------------------------------------------------------------------------

*** tstart() called on ds3
*** at Mon Apr 27 20:00:09 2020

   => Loading Basis Set <=

    Name: CC-PVDZ
    Role: ORBITAL
    Keyword: BASIS
    atoms 1-2, 9-10  entry C          line   138 file /theoryfs2/ds/metcalf/miniconda2/envs/tf2gpu/share/psi4/basis/cc-pvdz.gbs
    atoms 3-8, 11-16 entry H          line    22 file /theoryfs2/ds/metcalf/miniconda2/envs/tf2gpu/share/psi4/basis/cc-pvdz.gbs

         ---------------------------------------------------------
                                   SCF
               by Justin Turney, Rob Parrish, Andy Simmonett
                          and Daniel G. A. Smith
                              RHF Reference
                        1 Threads,    500 MiB Core
         ---------------------------------------------------------

  ==> Geometry <==

    Molecular point group: c1
    Full point group: C1

    Geometry (in Angstrom), charge = 0, multiplicity = 1:

       Center              X                  Y                   Z               Mass
    ------------   -----------------  -----------------  -----------------  -----------------
         C            0.081980194109    -0.579350834426     2.097129660622    12.000000000000
         C            0.855980194109    -1.870350834426     1.794129660622    12.000000000000
         H           -0.954019805891    -0.657350834426     1.775129660622     1.007825032230
         H            0.096980194109    -0.388350834426     3.168129660622     1.007825032230
         H            0.540980194109     0.261649165574     1.576129660622     1.007825032230
         H            0.492980194109    -2.647350834426     2.461129660622     1.007825032230
         H            0.698210194109    -2.171671834426     0.748029660622     1.007825032230
         H            1.927380194109    -1.722201834426     1.994529660622     1.007825032230
         C           -0.253019805891     1.040649165574    -1.239870339378    12.000000000000
         C           -0.679019805891     1.411649165574    -2.654870339378    12.000000000000
         H           -0.204019805891     1.931649165574    -0.613870339378     1.007825032230
         H           -0.979019805891     0.354649165574    -0.804870339378     1.007825032230
         H            0.727980194109     0.566649165574    -1.265870339378     1.007825032230
         H           -1.624019805891     1.949649165574    -2.585870339378     1.007825032230
         H           -0.856019805891     0.485649165574    -3.201870339378     1.007825032230
         H            0.062090194109     2.006113165574    -3.209274339378     1.007825032230

  Running in c1 symmetry.

  Rotational constants: A =      0.55278  B =      0.04629  C =      0.04432 [cm^-1]
  Rotational constants: A =  16572.01667  B =   1387.73596  C =   1328.57198 [MHz]
  Nuclear repulsion =  121.643180739507727

  Charge       = 0
  Multiplicity = 1
  Electrons    = 36
  Nalpha       = 18
  Nbeta        = 18

  ==> Algorithm <==

  SCF Algorithm Type is PK.
  DIIS enabled.
  MOM disabled.
  Fractional occupation disabled.
  Guess Type is SAD.
  Energy threshold   = 1.00e-06
  Density threshold  = 1.00e-10
  Integral threshold = 0.00e+00

  ==> Primary Basis <==

  Basis Set: CC-PVDZ
    Blend: CC-PVDZ
    Number of shells: 60
    Number of basis function: 116
    Number of Cartesian functions: 120
    Spherical Harmonics?: true
    Max angular momentum: 2

  ==> Pre-Iterations <==

   -------------------------------------------------------
    Irrep   Nso     Nmo     Nalpha   Nbeta   Ndocc  Nsocc
   -------------------------------------------------------
     A        116     116       0       0       0       0
   -------------------------------------------------------
    Total     116     116      18      18      18       0
   -------------------------------------------------------

  ==> Integral Setup <==

  Using integral reordering PK algorithm.
  Sizing the integral batches needed.
  Building batch lookup table.
   Calculation information:
      Number of atoms:                  16
      Number of AO shells:              60
      Number of primitives:            148
      Number of atomic orbitals:       120
      Number of basis functions:       116

      Integral cutoff                 1.00e-12
      Number of threads:                 1

	Batch   1 pq = [       0,    6786] index = [             0,23028291] size =     23028291
  Task number: 3
  Buffer size: 11059200
  Buffer per thread: 2
  We computed 1405487 shell quartets total.
  Whereas there are 1675365 unique shell quartets.

  ==> DiskJK: Disk-Based J/K Matrices <==

    J tasked:                  Yes
    K tasked:                  Yes
    wK tasked:                  No
    Memory [MiB]:              375
    Schwarz Cutoff:          1E-12

    OpenMP threads:              1

  Minimum eigenvalue in the overlap matrix is 6.5355637275E-03.
  Using Symmetric Orthogonalization.

  SCF Guess: Superposition of Atomic Densities via on-the-fly atomic UHF.

  ==> Iterations <==

                        Total Energy        Delta E     RMS |[F,P]|

   @RHF iter SAD:  -157.35024136046076   -1.57350e+02   0.00000e+00
   @RHF iter   1:  -158.30705689085605   -9.56816e-01   4.21896e-03 DIIS
   @RHF iter   2:  -158.44075960868949   -1.33703e-01   1.79691e-03 DIIS
   @RHF iter   3:  -158.46418336104875   -2.34238e-02   3.49570e-04 DIIS
   @RHF iter   4:  -158.46601426203182   -1.83090e-03   3.86834e-05 DIIS
   @RHF iter   5:  -158.46603783069375   -2.35687e-05   6.43292e-06 DIIS
   @RHF iter   6:  -158.46603845533932   -6.24646e-07   9.54224e-07 DIIS
   @RHF iter   7:  -158.46603846513511   -9.79580e-09   3.05184e-07 DIIS
   @RHF iter   8:  -158.46603846594991   -8.14794e-10   4.37694e-08 DIIS
   @RHF iter   9:  -158.46603846598134   -3.14344e-11   8.89326e-09 DIIS
   @RHF iter  10:  -158.46603846598239   -1.05160e-12   2.41978e-09 DIIS
   @RHF iter  11:  -158.46603846598217    2.27374e-13   7.11952e-10 DIIS
   @RHF iter  12:  -158.46603846598279   -6.25278e-13   1.67156e-10 DIIS
   @RHF iter  13:  -158.46603846598268    1.13687e-13   2.66110e-11 DIIS
  Energy and wave function converged.

  ==> Post-Iterations <==

    Orbital Energies [Eh]
    ---------------------

    Doubly Occupied:

       1A    -11.218848     2A    -11.217611     3A    -11.216583
       4A    -11.215248     5A     -1.020534     6A     -1.015639
       7A     -0.839071     8A     -0.834511     9A     -0.601196
      10A     -0.599909    11A     -0.596715    12A     -0.594269
      13A     -0.505588    14A     -0.496626    15A     -0.487702
      16A     -0.485738    17A     -0.484087    18A     -0.481238

    Virtual:

      19A      0.171796    20A      0.195777    21A      0.227107
      22A      0.229997    23A      0.240683    24A      0.258492
      25A      0.267353    26A      0.272343    27A      0.286056
      28A      0.292016    29A      0.305249    30A      0.330862
      31A      0.392367    32A      0.410726    33A      0.572026
      34A      0.594997    35A      0.596849    36A      0.598347
      37A      0.610305    38A      0.637268    39A      0.682607
      40A      0.690462    41A      0.694225    42A      0.760515
      43A      0.842109    44A      0.868847    45A      0.885880
      46A      0.890690    47A      0.892927    48A      0.897203
      49A      0.904467    50A      0.907129    51A      0.917232
      52A      0.923907    53A      0.938895    54A      0.951858
      55A      0.971026    56A      1.006234    57A      1.119306
      58A      1.124141    59A      1.130876    60A      1.139775
      61A      1.232350    62A      1.245670    63A      1.457496
      64A      1.476244    65A      1.489031    66A      1.492566
      67A      1.566731    68A      1.589620    69A      1.681672
      70A      1.682393    71A      1.694168    72A      1.700469
      73A      1.851502    74A      1.858400    75A      1.870332
      76A      1.875972    77A      1.889695    78A      1.906003
      79A      1.935590    80A      1.943421    81A      1.944670
      82A      1.948428    83A      1.951858    84A      1.960529
      85A      1.969838    86A      1.974778    87A      1.977351
      88A      2.057654    89A      2.085970    90A      2.109924
      91A      2.132032    92A      2.137655    93A      2.290103
      94A      2.300709    95A      2.317297    96A      2.336175
      97A      2.442339    98A      2.446100    99A      2.468910
     100A      2.476229   101A      2.555541   102A      2.573441
     103A      2.579894   104A      2.588818   105A      2.765420
     106A      2.768258   107A      2.788588   108A      2.798163
     109A      2.842248   110A      2.847811   111A      2.852389
     112A      2.870892   113A      2.942731   114A      2.952267
     115A      2.959708   116A      2.974686

    Final Occupation by Irrep:
              A
    DOCC [    18 ]

  @RHF Final Energy:  -158.46603846598268

   => Energetics <=

    Nuclear Repulsion Energy =            121.6431807395077271
    One-Electron Energy =                -452.3962108958115778
    Two-Electron Energy =                 172.2869916903211731
    Total Energy =                       -158.4660384659826775

Computation Completed

Properties will be evaluated at   0.000000,   0.000000,   0.000000 [a0]

Properties computed using the SCF density matrix

  Nuclear Dipole Moment: [e a0]
     X:    -0.0661      Y:    -0.0290      Z:     0.0389

  Electronic Dipole Moment: [e a0]
     X:     0.0530      Y:     0.0313      Z:    -0.0308

  Dipole Moment: [e a0]
     X:    -0.0131      Y:     0.0023      Z:     0.0080     Total:     0.0156

  Dipole Moment: [D]
     X:    -0.0333      Y:     0.0058      Z:     0.0204     Total:     0.0395

*** tstop() called on ds3 at Mon Apr 27 20:00:18 2020
Module time:
	user time   =       7.06 seconds =       0.12 minutes
	system time =       2.88 seconds =       0.05 minutes
	total time  =          9 seconds =       0.15 minutes
Total time:
	user time   =       7.06 seconds =       0.12 minutes
	system time =       2.88 seconds =       0.05 minutes
	total time  =          9 seconds =       0.15 minutes
                                     G D M A

                                 by Anthony Stone

                           version 2.2.06, 22 June 2011

               Distributed Multipoles from Gaussian wavefunctions

Starting at 20:0:18 on 27 Apr 2020

Using SCF density matrix from file ./SSI/SSI-104VAL-126ILE-1-dimer.test.11733.fchk

                         Distributed Multipole Analysis

Standard DMA

Positions and radii in angstrom
Multipole moments in atomic units, ea_0^k for rank k

C          x =  0.081980  y = -0.579351  z =  2.097130 angstrom
           Maximum rank =  0   Radius =  0.650 angstrom
                   Q00  =  -0.244448

C          x =  0.855980  y = -1.870351  z =  1.794130 angstrom
           Maximum rank =  0   Radius =  0.650 angstrom
                   Q00  =  -0.233550

H          x = -0.954020  y = -0.657351  z =  1.775130 angstrom
           Maximum rank =  0   Radius =  0.325 angstrom
                   Q00  =   0.079441

H          x =  0.096980  y = -0.388351  z =  3.168130 angstrom
           Maximum rank =  0   Radius =  0.325 angstrom
                   Q00  =   0.077789

H          x =  0.540980  y =  0.261649  z =  1.576130 angstrom
           Maximum rank =  0   Radius =  0.325 angstrom
                   Q00  =   0.082458

H          x =  0.492980  y = -2.647351  z =  2.461130 angstrom
           Maximum rank =  0   Radius =  0.325 angstrom
                   Q00  =   0.078219

H          x =  0.698210  y = -2.171672  z =  0.748030 angstrom
           Maximum rank =  0   Radius =  0.325 angstrom
                   Q00  =   0.079893

H          x =  1.927380  y = -1.722202  z =  1.994530 angstrom
           Maximum rank =  0   Radius =  0.325 angstrom
                   Q00  =   0.079154

C          x = -0.253020  y =  1.040649  z = -1.239870 angstrom
           Maximum rank =  0   Radius =  0.650 angstrom
                   Q00  =  -0.236278

C          x = -0.679020  y =  1.411649  z = -2.654870 angstrom
           Maximum rank =  0   Radius =  0.650 angstrom
                   Q00  =  -0.235010

H          x = -0.204020  y =  1.931649  z = -0.613870 angstrom
           Maximum rank =  0   Radius =  0.325 angstrom
                   Q00  =   0.076932

H          x = -0.979020  y =  0.354649  z = -0.804870 angstrom
           Maximum rank =  0   Radius =  0.325 angstrom
                   Q00  =   0.081424

H          x =  0.727980  y =  0.566649  z = -1.265870 angstrom
           Maximum rank =  0   Radius =  0.325 angstrom
                   Q00  =   0.077262

H          x = -1.624020  y =  1.949649  z = -2.585870 angstrom
           Maximum rank =  0   Radius =  0.325 angstrom
                   Q00  =   0.077803

H          x = -0.856020  y =  0.485649  z = -3.201870 angstrom
           Maximum rank =  0   Radius =  0.325 angstrom
                   Q00  =   0.076419

H          x =  0.062090  y =  2.006113  z = -3.209274 angstrom
           Maximum rank =  0   Radius =  0.325 angstrom
                   Q00  =   0.082492

Total multipoles referred to origin at
           x =   0.000000,  y =    0.000000,  z =    0.000000 angstrom
                   Q00  =  -0.000000

Finished at 20:0:18 on 27 Apr 2020

  DMA results are available in the Python driver through the
	  variable('DMA DISTRIBUTED MULTIPOLES')
  and
	  variable('DMA TOTAL MULTIPOLES')
  commands.

    Psi4 stopped on: Monday, 27 April 2020 08:00PM
    Psi4 wall time for execution: 0:00:09.77

*** Psi4 exiting successfully. Buy a developer a beer!
