                               Psi4 1.3.2 release

  ==> Input File <==

--------------------------------------------------------------------------
import numpy as np
set {scf_type pk
basis cc-pvdz
d_convergence 10
gdma_switch   0
gdma_limit    0
gdma_origin   [ 0.0,  0.0,  0.0 ]
}
molecule test {
    units Angstrom
    0 1
    --
    0 1
    C                2.900700976136068     2.153570212921796    -2.631038455259076
    C                1.743700976136068    -0.520429787078205    -0.233038455259076
    C                1.897700976136068     0.104570212921795     0.997961544740924
    C                2.064700976136068     0.138570212921795    -1.408038455259076
    C                2.539700976136068     1.444570212921795    -1.363038455259076
    C                2.375700976136068     1.402570212921795     1.055961544740924
    C                2.695700976136068     2.074570212921795    -0.128038455259076
    H                1.354700976136068    -1.528429787078205    -0.268038455259076
    H                1.632700976136068    -0.414429787078205     1.906961544740924
    H                1.937700976136068    -0.363429787078205    -2.356038455259076
    H                2.490700976136068     1.890570212921795     2.009961544740924
    H                3.218700976136068     1.409570212921795    -3.361038455259076
    H                3.769700976136068     2.778570212921796    -2.439038455259076
    H                3.061700976136068     3.089570212921795    -0.083038455259076
    H                2.091180976136068     2.763037212921795    -3.059099455259076
    C               -1.238299023863932     1.983570212921795     0.434961544740924
    C               -1.852299023863932    -1.600429787078205    -0.661038455259076
    C               -1.494299023863932    -0.263429787078205    -0.681038455259076
    C               -2.337299023863932    -2.159429787078205     0.513961544740924
    C               -1.616299023863932     0.523570212921795     0.463961544740924
    C               -2.465299023863933    -1.389429787078205     1.657961544740924
    C               -2.114299023863932    -0.055429787078205     1.631961544740924
    O               -2.697299023863932    -3.469429787078204     0.552961544740924
    H               -1.731299023863932    -2.201429787078205    -1.551038455259076
    H               -1.095299023863932     0.169570212921795    -1.588038455259076
    H               -2.408299023863932    -3.949429787078205    -0.231038455259076
    H               -2.830299023863932    -1.841429787078205     2.565961544740924
    H               -0.359299023863932     2.111570212921795    -0.199038455259076
    H               -0.966299023863932     2.303570212921795     1.439961544740924
    H               -2.213299023863932     0.540570212921795     2.528961544740924
    H               -2.053852023863932     2.618049212921795     0.057723544740924

}
e, wfn = energy('scf', return_wfn=True)
gdma(wfn)
dmavals = variable('DMA DISTRIBUTED MULTIPOLES')
charges = np.array(dmavals)
print(charges)
np.save('SSI-135PHE-147TYR-1-dimer.npy', np.array(charges))--------------------------------------------------------------------------

*** tstart() called on ds3
*** at Tue Apr 28 13:23:58 2020

   => Loading Basis Set <=

    Name: CC-PVDZ
    Role: ORBITAL
    Keyword: BASIS
    atoms 1-7, 16-22  entry C          line   138 file /theoryfs2/ds/metcalf/miniconda2/envs/tf2gpu/share/psi4/basis/cc-pvdz.gbs
    atoms 8-15, 24-31 entry H          line    22 file /theoryfs2/ds/metcalf/miniconda2/envs/tf2gpu/share/psi4/basis/cc-pvdz.gbs
    atoms 23          entry O          line   198 file /theoryfs2/ds/metcalf/miniconda2/envs/tf2gpu/share/psi4/basis/cc-pvdz.gbs

         ---------------------------------------------------------
                                   SCF
               by Justin Turney, Rob Parrish, Andy Simmonett
                          and Daniel G. A. Smith
                              RHF Reference
                        1 Threads,    500 MiB Core
         ---------------------------------------------------------

  ==> Geometry <==

    Molecular point group: c1
    Full point group: C1

    Geometry (in Angstrom), charge = 0, multiplicity = 1:

       Center              X                  Y                   Z               Mass
    ------------   -----------------  -----------------  -----------------  -----------------
         C            2.900700976136     2.153570212922    -2.631038455259    12.000000000000
         C            1.743700976136    -0.520429787078    -0.233038455259    12.000000000000
         C            1.897700976136     0.104570212922     0.997961544741    12.000000000000
         C            2.064700976136     0.138570212922    -1.408038455259    12.000000000000
         C            2.539700976136     1.444570212922    -1.363038455259    12.000000000000
         C            2.375700976136     1.402570212922     1.055961544741    12.000000000000
         C            2.695700976136     2.074570212922    -0.128038455259    12.000000000000
         H            1.354700976136    -1.528429787078    -0.268038455259     1.007825032230
         H            1.632700976136    -0.414429787078     1.906961544741     1.007825032230
         H            1.937700976136    -0.363429787078    -2.356038455259     1.007825032230
         H            2.490700976136     1.890570212922     2.009961544741     1.007825032230
         H            3.218700976136     1.409570212922    -3.361038455259     1.007825032230
         H            3.769700976136     2.778570212922    -2.439038455259     1.007825032230
         H            3.061700976136     3.089570212922    -0.083038455259     1.007825032230
         H            2.091180976136     2.763037212922    -3.059099455259     1.007825032230
         C           -1.238299023864     1.983570212922     0.434961544741    12.000000000000
         C           -1.852299023864    -1.600429787078    -0.661038455259    12.000000000000
         C           -1.494299023864    -0.263429787078    -0.681038455259    12.000000000000
         C           -2.337299023864    -2.159429787078     0.513961544741    12.000000000000
         C           -1.616299023864     0.523570212922     0.463961544741    12.000000000000
         C           -2.465299023864    -1.389429787078     1.657961544741    12.000000000000
         C           -2.114299023864    -0.055429787078     1.631961544741    12.000000000000
         O           -2.697299023864    -3.469429787078     0.552961544741    15.994914619570
         H           -1.731299023864    -2.201429787078    -1.551038455259     1.007825032230
         H           -1.095299023864     0.169570212922    -1.588038455259     1.007825032230
         H           -2.408299023864    -3.949429787078    -0.231038455259     1.007825032230
         H           -2.830299023864    -1.841429787078     2.565961544741     1.007825032230
         H           -0.359299023864     2.111570212922    -0.199038455259     1.007825032230
         H           -0.966299023864     2.303570212922     1.439961544741     1.007825032230
         H           -2.213299023864     0.540570212922     2.528961544741     1.007825032230
         H           -2.053852023864     2.618049212922     0.057723544741     1.007825032230

  Running in c1 symmetry.

  Rotational constants: A =      0.03727  B =      0.01058  C =      0.01001 [cm^-1]
  Rotational constants: A =   1117.33036  B =    317.31055  C =    300.21058 [MHz]
  Nuclear repulsion =  919.049000355242697

  Charge       = 0
  Multiplicity = 1
  Electrons    = 108
  Nalpha       = 54
  Nbeta        = 54

  ==> Algorithm <==

  SCF Algorithm Type is PK.
  DIIS enabled.
  MOM disabled.
  Fractional occupation disabled.
  Guess Type is SAD.
  Energy threshold   = 1.00e-06
  Density threshold  = 1.00e-10
  Integral threshold = 0.00e+00

  ==> Primary Basis <==

  Basis Set: CC-PVDZ
    Blend: CC-PVDZ
    Number of shells: 138
    Number of basis function: 290
    Number of Cartesian functions: 305
    Spherical Harmonics?: true
    Max angular momentum: 2

  ==> Pre-Iterations <==

   -------------------------------------------------------
    Irrep   Nso     Nmo     Nalpha   Nbeta   Ndocc  Nsocc
   -------------------------------------------------------
     A        290     290       0       0       0       0
   -------------------------------------------------------
    Total     290     290      54      54      54       0
   -------------------------------------------------------

  ==> Integral Setup <==

  Using integral reordering PK algorithm.
  Sizing the integral batches needed.
  Building batch lookup table.
   Calculation information:
      Number of atoms:                  31
      Number of AO shells:             138
      Number of primitives:            410
      Number of atomic orbitals:       305
      Number of basis functions:       290

      Integral cutoff                 1.00e-12
      Number of threads:                 1

	Batch   1 pq = [       0,    9405] index = [             0,44231715] size =     44231715
	Batch   2 pq = [    9405,   13301] index = [      44231715,88464951] size =     44233236
	Batch   3 pq = [   13301,   16290] index = [      88464951,132690195] size =     44225244
	Batch   4 pq = [   16290,   18810] index = [     132690195,176917455] size =     44227260
	Batch   5 pq = [   18810,   21030] index = [     176917455,221140965] size =     44223510
	Batch   6 pq = [   21030,   23037] index = [     221140965,265363203] size =     44222238
	Batch   7 pq = [   23037,   24883] index = [     265363203,309594286] size =     44231083
	Batch   8 pq = [   24883,   26601] index = [     309594286,353819901] size =     44225615
	Batch   9 pq = [   26601,   28214] index = [     353819901,398029005] size =     44209104
	Batch  10 pq = [   28214,   29740] index = [     398029005,442248670] size =     44219665
	Batch  11 pq = [   29740,   31191] index = [     442248670,486454836] size =     44206166
	Batch  12 pq = [   31191,   32578] index = [     486454836,530679331] size =     44224495
	Batch  13 pq = [   32578,   33908] index = [     530679331,574893186] size =     44213855
	Batch  14 pq = [   33908,   35188] index = [     574893186,619115266] size =     44222080
	Batch  15 pq = [   35188,   36423] index = [     619115266,663335676] size =     44220410
	Batch  16 pq = [   36423,   37617] index = [     663335676,707538153] size =     44202477
	Batch  17 pq = [   37617,   38775] index = [     707538153,751769700] size =     44231547
	Batch  18 pq = [   38775,   39899] index = [     751769700,795985050] size =     44215350
	Batch  19 pq = [   39899,   40992] index = [     795985050,840192528] size =     44207478
	Batch  20 pq = [   40992,   42057] index = [     840192528,884416653] size =     44224125
	Batch  21 pq = [   42057,   42195] index = [     884416653,890230110] size =      5813457
  Task number: 81
  Buffer size: 11059200
  Buffer per thread: 2
  We computed 51036723 shell quartets total.
  Whereas there are 45998436 unique shell quartets.
    10.95 percent of shell quartets recomputed by reordering.

  ==> DiskJK: Disk-Based J/K Matrices <==

    J tasked:                  Yes
    K tasked:                  Yes
    wK tasked:                  No
    Memory [MiB]:              375
    Schwarz Cutoff:          1E-12

    OpenMP threads:              1

  Minimum eigenvalue in the overlap matrix is 2.9876576651E-04.
  Using Symmetric Orthogonalization.

  SCF Guess: Superposition of Atomic Densities via on-the-fly atomic UHF.

  ==> Iterations <==

                        Total Energy        Delta E     RMS |[F,P]|

   @RHF iter SAD:  -613.33090636550162   -6.13331e+02   0.00000e+00
   @RHF iter   1:  -614.05474448926861   -7.23838e-01   2.39805e-03 DIIS
   @RHF iter   2:  -614.33224871618438   -2.77504e-01   1.01459e-03 DIIS
   @RHF iter   3:  -614.37610503772441   -4.38563e-02   2.45137e-04 DIIS
   @RHF iter   4:  -614.37984506607029   -3.74003e-03   1.01392e-04 DIIS
   @RHF iter   5:  -614.38034958157959   -5.04516e-04   1.72317e-05 DIIS
   @RHF iter   6:  -614.38037099831467   -2.14167e-05   6.03058e-06 DIIS
   @RHF iter   7:  -614.38037353336881   -2.53505e-06   1.68534e-06 DIIS
   @RHF iter   8:  -614.38037383928918   -3.05920e-07   6.59208e-07 DIIS
   @RHF iter   9:  -614.38037388945247   -5.01633e-08   2.74903e-07 DIIS
   @RHF iter  10:  -614.38037389997032   -1.05179e-08   1.19101e-07 DIIS
   @RHF iter  11:  -614.38037390320426   -3.23394e-09   5.52948e-08 DIIS
   @RHF iter  12:  -614.38037390388513   -6.80870e-10   2.48253e-08 DIIS
   @RHF iter  13:  -614.38037390399575   -1.10617e-10   6.99383e-09 DIIS
   @RHF iter  14:  -614.38037390400154   -5.79803e-12   2.26522e-09 DIIS
   @RHF iter  15:  -614.38037390400223   -6.82121e-13   6.42495e-10 DIIS
   @RHF iter  16:  -614.38037390400416   -1.93268e-12   2.75669e-10 DIIS
   @RHF iter  17:  -614.38037390400700   -2.84217e-12   1.16508e-10 DIIS
   @RHF iter  18:  -614.38037390400223    4.77485e-12   5.56789e-11 DIIS
  Energy and wave function converged.

  ==> Post-Iterations <==

    Orbital Energies [Eh]
    ---------------------

    Doubly Occupied:

       1A    -20.579234     2A    -11.293525     3A    -11.239807
       4A    -11.234339     5A    -11.231644     6A    -11.231582
       7A    -11.231462     8A    -11.229865     9A    -11.228859
      10A    -11.228281    11A    -11.227656    12A    -11.226743
      13A    -11.225901    14A    -11.222886    15A    -11.217388
      16A     -1.397772    17A     -1.154031    18A     -1.148107
      19A     -1.046122    20A     -1.030805    21A     -1.017451
      22A     -1.011147    23A     -0.931682    24A     -0.918825
      25A     -0.839969    26A     -0.825175    27A     -0.798684
      28A     -0.793955    29A     -0.729527    30A     -0.690661
      31A     -0.663939    32A     -0.636395    33A     -0.631613
      34A     -0.629481    35A     -0.603434    36A     -0.586071
      37A     -0.583413    38A     -0.582067    39A     -0.580183
      40A     -0.565072    41A     -0.562036    42A     -0.559074
      43A     -0.533454    44A     -0.518806    45A     -0.491634
      46A     -0.487175    47A     -0.484089    48A     -0.481173
      49A     -0.476713    50A     -0.463416    51A     -0.342415
      52A     -0.327479    53A     -0.322888    54A     -0.292785

    Virtual:

      55A      0.129000    56A      0.136595    57A      0.144583
      58A      0.163797    59A      0.174729    60A      0.181022
      61A      0.197677    62A      0.206019    63A      0.211844
      64A      0.226512    65A      0.235872    66A      0.246308
      67A      0.254274    68A      0.263739    69A      0.266828
      70A      0.273848    71A      0.285889    72A      0.296937
      73A      0.301506    74A      0.317372    75A      0.368568
      76A      0.372880    77A      0.379685    78A      0.384698
      79A      0.433382    80A      0.455164    81A      0.460632
      82A      0.464293    83A      0.480238    84A      0.485880
      85A      0.495079    86A      0.503636    87A      0.512078
      88A      0.562118    89A      0.575661    90A      0.610485
      91A      0.617718    92A      0.641330    93A      0.652845
      94A      0.659722    95A      0.667774    96A      0.679518
      97A      0.680598    98A      0.691463    99A      0.698967
     100A      0.709867   101A      0.718044   102A      0.730628
     103A      0.734549   104A      0.742095   105A      0.744137
     106A      0.753073   107A      0.757292   108A      0.767278
     109A      0.771668   110A      0.775373   111A      0.777174
     112A      0.788125   113A      0.809649   114A      0.825360
     115A      0.833447   116A      0.835310   117A      0.850970
     118A      0.861397   119A      0.872595   120A      0.874046
     121A      0.885074   122A      0.889795   123A      0.894926
     124A      0.898472   125A      0.901887   126A      0.905849
     127A      0.907091   128A      0.923028   129A      0.928180
     130A      0.934531   131A      0.940173   132A      0.955914
     133A      0.961764   134A      0.974718   135A      0.987640
     136A      0.991234   137A      1.015051   138A      1.018838
     139A      1.039681   140A      1.048373   141A      1.063395
     142A      1.094106   143A      1.129186   144A      1.132829
     145A      1.135803   146A      1.150506   147A      1.152388
     148A      1.155518   149A      1.168333   150A      1.185254
     151A      1.196350   152A      1.225787   153A      1.235313
     154A      1.241635   155A      1.249491   156A      1.259946
     157A      1.272658   158A      1.278787   159A      1.282463
     160A      1.293959   161A      1.299086   162A      1.307972
     163A      1.312322   164A      1.320705   165A      1.323290
     166A      1.336419   167A      1.366757   168A      1.371087
     169A      1.397804   170A      1.410386   171A      1.422125
     172A      1.478291   173A      1.496185   174A      1.507732
     175A      1.539633   176A      1.543762   177A      1.567968
     178A      1.573185   179A      1.604969   180A      1.622852
     181A      1.632039   182A      1.682502   183A      1.694164
     184A      1.706907   185A      1.711891   186A      1.731883
     187A      1.750305   188A      1.763281   189A      1.767906
     190A      1.778269   191A      1.790572   192A      1.804228
     193A      1.816187   194A      1.822353   195A      1.833897
     196A      1.867425   197A      1.885697   198A      1.887606
     199A      1.900151   200A      1.905254   201A      1.911433
     202A      1.916110   203A      1.922712   204A      1.925393
     205A      1.931914   206A      1.943740   207A      1.945242
     208A      1.953377   209A      1.959127   210A      1.965675
     211A      1.972326   212A      1.977023   213A      1.993734
     214A      2.003421   215A      2.012762   216A      2.020323
     217A      2.048227   218A      2.054058   219A      2.056728
     220A      2.074669   221A      2.080184   222A      2.085931
     223A      2.088859   224A      2.100536   225A      2.115657
     226A      2.144801   227A      2.152589   228A      2.163916
     229A      2.169558   230A      2.178445   231A      2.179975
     232A      2.185450   233A      2.193840   234A      2.217947
     235A      2.241834   236A      2.257620   237A      2.273267
     238A      2.281192   239A      2.287273   240A      2.295977
     241A      2.315482   242A      2.318369   243A      2.325705
     244A      2.336886   245A      2.362496   246A      2.367237
     247A      2.434531   248A      2.454712   249A      2.479865
     250A      2.485160   251A      2.489704   252A      2.504601
     253A      2.519680   254A      2.541227   255A      2.548099
     256A      2.556211   257A      2.616513   258A      2.624616
     259A      2.653999   260A      2.748574   261A      2.764177
     262A      2.770935   263A      2.776341   264A      2.797408
     265A      2.806201   266A      2.812297   267A      2.814643
     268A      2.822814   269A      2.857873   270A      2.859201
     271A      2.889460   272A      2.928075   273A      2.978145
     274A      2.996217   275A      3.006979   276A      3.024313
     277A      3.074718   278A      3.104587   279A      3.124133
     280A      3.160605   281A      3.213055   282A      3.260601
     283A      3.296899   284A      3.311994   285A      3.358238
     286A      3.582514   287A      3.687747   288A      3.982778
     289A      3.997962   290A      4.195909

    Final Occupation by Irrep:
              A
    DOCC [    54 ]

  @RHF Final Energy:  -614.38037390400223

   => Energetics <=

    Nuclear Repulsion Energy =            919.0490003552426970
    One-Electron Energy =               -2657.6829676339584694
    Two-Electron Energy =                1124.2535933747135459
    Total Energy =                       -614.3803739040022265

Computation Completed

Properties will be evaluated at   0.000000,   0.000000,   0.000000 [a0]

Properties computed using the SCF density matrix

  Nuclear Dipole Moment: [e a0]
     X:     5.5173      Y:     8.7731      Z:    -4.3340

  Electronic Dipole Moment: [e a0]
     X:    -5.1391      Y:    -8.6217      Z:     3.7818

  Dipole Moment: [e a0]
     X:     0.3782      Y:     0.1514      Z:    -0.5522     Total:     0.6862

  Dipole Moment: [D]
     X:     0.9612      Y:     0.3848      Z:    -1.4036     Total:     1.7442

*** tstop() called on ds3 at Tue Apr 28 13:39:31 2020
Module time:
	user time   =     446.21 seconds =       7.44 minutes
	system time =     139.42 seconds =       2.32 minutes
	total time  =        933 seconds =      15.55 minutes
Total time:
	user time   =     446.21 seconds =       7.44 minutes
	system time =     139.42 seconds =       2.32 minutes
	total time  =        933 seconds =      15.55 minutes
                                     G D M A

                                 by Anthony Stone

                           version 2.2.06, 22 June 2011

               Distributed Multipoles from Gaussian wavefunctions

Starting at 13:39:31 on 28 Apr 2020

Using SCF density matrix from file ./SSI/SSI-135PHE-147TYR-1-dimer.test.16031.fchk

                         Distributed Multipole Analysis

Standard DMA

Positions and radii in angstrom
Multipole moments in atomic units, ea_0^k for rank k

C          x =  2.900701  y =  2.153570  z = -2.631038 angstrom
           Maximum rank =  0   Radius =  0.650 angstrom
                   Q00  =  -0.196052

C          x =  1.743701  y = -0.520430  z = -0.233038 angstrom
           Maximum rank =  0   Radius =  0.650 angstrom
                   Q00  =   0.035953

C          x =  1.897701  y =  0.104570  z =  0.997962 angstrom
           Maximum rank =  0   Radius =  0.650 angstrom
                   Q00  =  -0.072449

C          x =  2.064701  y =  0.138570  z = -1.408038 angstrom
           Maximum rank =  0   Radius =  0.650 angstrom
                   Q00  =  -0.099328

C          x =  2.539701  y =  1.444570  z = -1.363038 angstrom
           Maximum rank =  0   Radius =  0.650 angstrom
                   Q00  =  -0.107793

C          x =  2.375701  y =  1.402570  z =  1.055962 angstrom
           Maximum rank =  0   Radius =  0.650 angstrom
                   Q00  =  -0.075796

C          x =  2.695701  y =  2.074570  z = -0.128038 angstrom
           Maximum rank =  0   Radius =  0.650 angstrom
                   Q00  =  -0.080667

H          x =  1.354701  y = -1.528430  z = -0.268038 angstrom
           Maximum rank =  0   Radius =  0.325 angstrom
                   Q00  =   0.065169

H          x =  1.632701  y = -0.414430  z =  1.906962 angstrom
           Maximum rank =  0   Radius =  0.325 angstrom
                   Q00  =   0.063602

H          x =  1.937701  y = -0.363430  z = -2.356038 angstrom
           Maximum rank =  0   Radius =  0.325 angstrom
                   Q00  =   0.052591

H          x =  2.490701  y =  1.890570  z =  2.009962 angstrom
           Maximum rank =  0   Radius =  0.325 angstrom
                   Q00  =   0.063806

H          x =  3.218701  y =  1.409570  z = -3.361038 angstrom
           Maximum rank =  0   Radius =  0.325 angstrom
                   Q00  =   0.095366

H          x =  3.769701  y =  2.778570  z = -2.439038 angstrom
           Maximum rank =  0   Radius =  0.325 angstrom
                   Q00  =   0.098745

H          x =  3.061701  y =  3.089570  z = -0.083038 angstrom
           Maximum rank =  0   Radius =  0.325 angstrom
                   Q00  =   0.055582

H          x =  2.091181  y =  2.763037  z = -3.059099 angstrom
           Maximum rank =  0   Radius =  0.325 angstrom
                   Q00  =   0.103006

C          x = -1.238299  y =  1.983570  z =  0.434962 angstrom
           Maximum rank =  0   Radius =  0.650 angstrom
                   Q00  =  -0.191673

C          x = -1.852299  y = -1.600430  z = -0.661038 angstrom
           Maximum rank =  0   Radius =  0.650 angstrom
                   Q00  =  -0.206261

C          x = -1.494299  y = -0.263430  z = -0.681038 angstrom
           Maximum rank =  0   Radius =  0.650 angstrom
                   Q00  =  -0.046459

C          x = -2.337299  y = -2.159430  z =  0.513962 angstrom
           Maximum rank =  0   Radius =  0.650 angstrom
                   Q00  =   0.396126

C          x = -1.616299  y =  0.523570  z =  0.463962 angstrom
           Maximum rank =  0   Radius =  0.650 angstrom
                   Q00  =  -0.135334

C          x = -2.465299  y = -1.389430  z =  1.657962 angstrom
           Maximum rank =  0   Radius =  0.650 angstrom
                   Q00  =  -0.113155

C          x = -2.114299  y = -0.055430  z =  1.631962 angstrom
           Maximum rank =  0   Radius =  0.650 angstrom
                   Q00  =  -0.003340

O          x = -2.697299  y = -3.469430  z =  0.552962 angstrom
           Maximum rank =  0   Radius =  0.650 angstrom
                   Q00  =  -0.671693

H          x = -1.731299  y = -2.201430  z = -1.551038 angstrom
           Maximum rank =  0   Radius =  0.325 angstrom
                   Q00  =   0.067459

H          x = -1.095299  y =  0.169570  z = -1.588038 angstrom
           Maximum rank =  0   Radius =  0.325 angstrom
                   Q00  =   0.067145

H          x = -2.408299  y = -3.949430  z = -0.231038 angstrom
           Maximum rank =  0   Radius =  0.325 angstrom
                   Q00  =   0.404065

H          x = -2.830299  y = -1.841430  z =  2.565962 angstrom
           Maximum rank =  0   Radius =  0.325 angstrom
                   Q00  =   0.076676

H          x = -0.359299  y =  2.111570  z = -0.199038 angstrom
           Maximum rank =  0   Radius =  0.325 angstrom
                   Q00  =   0.107949

H          x = -0.966299  y =  2.303570  z =  1.439962 angstrom
           Maximum rank =  0   Radius =  0.325 angstrom
                   Q00  =   0.092949

H          x = -2.213299  y =  0.540570  z =  2.528962 angstrom
           Maximum rank =  0   Radius =  0.325 angstrom
                   Q00  =   0.060179

H          x = -2.053852  y =  2.618049  z =  0.057724 angstrom
           Maximum rank =  0   Radius =  0.325 angstrom
                   Q00  =   0.093632

Total multipoles referred to origin at
           x =   0.000000,  y =    0.000000,  z =    0.000000 angstrom
                   Q00  =  -0.000000

Finished at 13:39:31 on 28 Apr 2020

  DMA results are available in the Python driver through the
	  variable('DMA DISTRIBUTED MULTIPOLES')
  and
	  variable('DMA TOTAL MULTIPOLES')
  commands.

    Psi4 stopped on: Tuesday, 28 April 2020 01:39PM
    Psi4 wall time for execution: 0:15:33.44

*** Psi4 exiting successfully. Buy a developer a beer!
