                               Psi4 1.3.2 release

  ==> Input File <==

--------------------------------------------------------------------------
import numpy as np
set {scf_type pk
basis cc-pvdz
d_convergence 10
gdma_switch   0
gdma_limit    0
gdma_origin   [ 0.0,  0.0,  0.0 ]
}
molecule test {
    units Angstrom
    0 1
    --
    0 1
    C               -3.348429137716702    -0.081561525128944    -2.210841180372848
    C               -2.265429137716703     0.208438474871056    -3.222841180372849
    O               -2.493429137716702     0.206438474871056    -4.430841180372847
    N               -1.057429137716702     0.432438474871056    -2.734841180372849
    H               -0.314429137716702     0.686438474871056    -3.363841180372849
    H               -0.937429137716702     0.516438474871056    -1.729841180372848
    H               -3.084429137716703     0.364438474871056    -1.253841180372848
    H               -3.375429137716702    -1.162561525128944    -2.076841180372848
    H               -4.343289137716703     0.279678474871056    -2.510441180372848
    C                3.483570862283297    -1.162561525128944     3.303158819627152
    C                0.183570862283298     0.364438474871056     0.969158819627152
    C                0.412570862283298     0.861438474871056     2.254158819627152
    C                1.039570862283298    -0.595561525128944     0.434158819627152
    C                1.499570862283298     0.387438474871056     3.001158819627152
    C                2.119570862283298    -1.061561525128944     1.185158819627152
    C                2.359570862283297    -0.580561525128944     2.476158819627152
    O               -0.880429137716703     0.794438474871056     0.232158819627152
    H               -1.393429137716702     1.484438474871056     0.720158819627152
    H               -0.248429137716702     1.608438474871057     2.665158819627152
    H                0.860570862283297    -0.979561525128944    -0.558841180372848
    H                1.678570862283298     0.784438474871056     3.988158819627152
    H                2.774570862283297    -1.812561525128944     0.763158819627152
    H                3.724570862283298    -0.503561525128944     4.138158819627152
    H                4.365570862283297    -1.226561525128944     2.668158819627152
    H                3.232190862283297    -2.166621525128944     3.675538819627152

}
e, wfn = energy('scf', return_wfn=True)
gdma(wfn)
dmavals = variable('DMA DISTRIBUTED MULTIPOLES')
charges = np.array(dmavals)
print(charges)
np.save('SSI-149ASN-171TYR-1-dimer.npy', np.array(charges))--------------------------------------------------------------------------

*** tstart() called on ds3
*** at Sun Apr 26 21:25:33 2020

   => Loading Basis Set <=

    Name: CC-PVDZ
    Role: ORBITAL
    Keyword: BASIS
    atoms 1-2, 10-16 entry C          line   138 file /theoryfs2/ds/metcalf/miniconda2/envs/tf2gpu/share/psi4/basis/cc-pvdz.gbs
    atoms 3, 17      entry O          line   198 file /theoryfs2/ds/metcalf/miniconda2/envs/tf2gpu/share/psi4/basis/cc-pvdz.gbs
    atoms 4          entry N          line   168 file /theoryfs2/ds/metcalf/miniconda2/envs/tf2gpu/share/psi4/basis/cc-pvdz.gbs
    atoms 5-9, 18-25 entry H          line    22 file /theoryfs2/ds/metcalf/miniconda2/envs/tf2gpu/share/psi4/basis/cc-pvdz.gbs

         ---------------------------------------------------------
                                   SCF
               by Justin Turney, Rob Parrish, Andy Simmonett
                          and Daniel G. A. Smith
                              RHF Reference
                        1 Threads,    500 MiB Core
         ---------------------------------------------------------

  ==> Geometry <==

    Molecular point group: c1
    Full point group: C1

    Geometry (in Angstrom), charge = 0, multiplicity = 1:

       Center              X                  Y                   Z               Mass
    ------------   -----------------  -----------------  -----------------  -----------------
         C           -3.348429137717    -0.081561525129    -2.210841180373    12.000000000000
         C           -2.265429137717     0.208438474871    -3.222841180373    12.000000000000
         O           -2.493429137717     0.206438474871    -4.430841180373    15.994914619570
         N           -1.057429137717     0.432438474871    -2.734841180373    14.003074004430
         H           -0.314429137717     0.686438474871    -3.363841180373     1.007825032230
         H           -0.937429137717     0.516438474871    -1.729841180373     1.007825032230
         H           -3.084429137717     0.364438474871    -1.253841180373     1.007825032230
         H           -3.375429137717    -1.162561525129    -2.076841180373     1.007825032230
         H           -4.343289137717     0.279678474871    -2.510441180373     1.007825032230
         C            3.483570862283    -1.162561525129     3.303158819627    12.000000000000
         C            0.183570862283     0.364438474871     0.969158819627    12.000000000000
         C            0.412570862283     0.861438474871     2.254158819627    12.000000000000
         C            1.039570862283    -0.595561525129     0.434158819627    12.000000000000
         C            1.499570862283     0.387438474871     3.001158819627    12.000000000000
         C            2.119570862283    -1.061561525129     1.185158819627    12.000000000000
         C            2.359570862283    -0.580561525129     2.476158819627    12.000000000000
         O           -0.880429137717     0.794438474871     0.232158819627    15.994914619570
         H           -1.393429137717     1.484438474871     0.720158819627     1.007825032230
         H           -0.248429137717     1.608438474871     2.665158819627     1.007825032230
         H            0.860570862283    -0.979561525129    -0.558841180373     1.007825032230
         H            1.678570862283     0.784438474871     3.988158819627     1.007825032230
         H            2.774570862283    -1.812561525129     0.763158819627     1.007825032230
         H            3.724570862283    -0.503561525129     4.138158819627     1.007825032230
         H            4.365570862283    -1.226561525129     2.668158819627     1.007825032230
         H            3.232190862283    -2.166621525129     3.675538819627     1.007825032230

  Running in c1 symmetry.

  Rotational constants: A =      0.08904  B =      0.00961  C =      0.00898 [cm^-1]
  Rotational constants: A =   2669.25279  B =    288.17771  C =    269.35869 [MHz]
  Nuclear repulsion =  639.256632119580331

  Charge       = 0
  Multiplicity = 1
  Electrons    = 90
  Nalpha       = 45
  Nbeta        = 45

  ==> Algorithm <==

  SCF Algorithm Type is PK.
  DIIS enabled.
  MOM disabled.
  Fractional occupation disabled.
  Guess Type is SAD.
  Energy threshold   = 1.00e-06
  Density threshold  = 1.00e-10
  Integral threshold = 0.00e+00

  ==> Primary Basis <==

  Basis Set: CC-PVDZ
    Blend: CC-PVDZ
    Number of shells: 111
    Number of basis function: 233
    Number of Cartesian functions: 245
    Spherical Harmonics?: true
    Max angular momentum: 2

  ==> Pre-Iterations <==

   -------------------------------------------------------
    Irrep   Nso     Nmo     Nalpha   Nbeta   Ndocc  Nsocc
   -------------------------------------------------------
     A        233     233       0       0       0       0
   -------------------------------------------------------
    Total     233     233      45      45      45       0
   -------------------------------------------------------

  ==> Integral Setup <==

  Using integral reordering PK algorithm.
  Sizing the integral batches needed.
  Building batch lookup table.
   Calculation information:
      Number of atoms:                  25
      Number of AO shells:             111
      Number of primitives:            329
      Number of atomic orbitals:       245
      Number of basis functions:       233

      Integral cutoff                 1.00e-12
      Number of threads:                 1

	Batch   1 pq = [       0,    9405] index = [             0,44231715] size =     44231715
	Batch   2 pq = [    9405,   13301] index = [      44231715,88464951] size =     44233236
	Batch   3 pq = [   13301,   16290] index = [      88464951,132690195] size =     44225244
	Batch   4 pq = [   16290,   18810] index = [     132690195,176917455] size =     44227260
	Batch   5 pq = [   18810,   21030] index = [     176917455,221140965] size =     44223510
	Batch   6 pq = [   21030,   23037] index = [     221140965,265363203] size =     44222238
	Batch   7 pq = [   23037,   24883] index = [     265363203,309594286] size =     44231083
	Batch   8 pq = [   24883,   26601] index = [     309594286,353819901] size =     44225615
	Batch   9 pq = [   26601,   27261] index = [     353819901,371594691] size =     17774790
  Task number: 34
  Buffer size: 11059200
  Buffer per thread: 2
  We computed 15133293 shell quartets total.
  Whereas there are 19322436 unique shell quartets.

  ==> DiskJK: Disk-Based J/K Matrices <==

    J tasked:                  Yes
    K tasked:                  Yes
    wK tasked:                  No
    Memory [MiB]:              375
    Schwarz Cutoff:          1E-12

    OpenMP threads:              1

  Minimum eigenvalue in the overlap matrix is 3.2608424729E-04.
  Using Symmetric Orthogonalization.

  SCF Guess: Superposition of Atomic Densities via on-the-fly atomic UHF.

  ==> Iterations <==

                        Total Energy        Delta E     RMS |[F,P]|

   @RHF iter SAD:  -551.26530858636886   -5.51265e+02   0.00000e+00
   @RHF iter   1:  -552.30127366423585   -1.03597e+00   3.19492e-03 DIIS
   @RHF iter   2:  -552.55600416094910   -2.54730e-01   1.66660e-03 DIIS
   @RHF iter   3:  -552.61581130399577   -5.98071e-02   3.89827e-04 DIIS
   @RHF iter   4:  -552.62061399633023   -4.80269e-03   1.56173e-04 DIIS
   @RHF iter   5:  -552.62140602913655   -7.92033e-04   2.36323e-05 DIIS
   @RHF iter   6:  -552.62144385059719   -3.78215e-05   1.09372e-05 DIIS
   @RHF iter   7:  -552.62145010766221   -6.25707e-06   4.01502e-06 DIIS
   @RHF iter   8:  -552.62145137848211   -1.27082e-06   1.47928e-06 DIIS
   @RHF iter   9:  -552.62145153468066   -1.56199e-07   5.77765e-07 DIIS
   @RHF iter  10:  -552.62145155542441   -2.07438e-08   1.86217e-07 DIIS
   @RHF iter  11:  -552.62145155816029   -2.73587e-09   5.45185e-08 DIIS
   @RHF iter  12:  -552.62145155839426   -2.33968e-10   2.18301e-08 DIIS
   @RHF iter  13:  -552.62145155843962   -4.53610e-11   9.04965e-09 DIIS
   @RHF iter  14:  -552.62145155845224   -1.26192e-11   4.45477e-09 DIIS
   @RHF iter  15:  -552.62145155845360   -1.36424e-12   1.94887e-09 DIIS
   @RHF iter  16:  -552.62145155845417   -5.68434e-13   6.59962e-10 DIIS
   @RHF iter  17:  -552.62145155845747   -3.29692e-12   2.62616e-10 DIIS
   @RHF iter  18:  -552.62145155845724    2.27374e-13   7.72030e-11 DIIS
  Energy and wave function converged.

  ==> Post-Iterations <==

    Orbital Energies [Eh]
    ---------------------

    Doubly Occupied:

       1A    -20.618388     2A    -20.485316     3A    -15.564718
       4A    -11.329962     5A    -11.318539     6A    -11.254180
       7A    -11.252813     8A    -11.251439     9A    -11.248784
      10A    -11.247828    11A    -11.238912    12A    -11.228699
      13A     -1.426851    14A     -1.350250    15A     -1.198171
      16A     -1.163248    17A     -1.050918    18A     -1.031235
      19A     -0.987373    20A     -0.939482    21A     -0.861397
      22A     -0.817787    23A     -0.781191    24A     -0.749071
      25A     -0.716240    26A     -0.681596    27A     -0.656509
      28A     -0.639300    29A     -0.621442    30A     -0.612253
      31A     -0.601346    32A     -0.599551    33A     -0.592197
      34A     -0.583742    35A     -0.552210    36A     -0.545388
      37A     -0.539183    38A     -0.510254    39A     -0.506112
      40A     -0.500381    41A     -0.483033    42A     -0.393356
      43A     -0.384810    44A     -0.351884    45A     -0.318846

    Virtual:

      46A      0.114321    47A      0.140366    48A      0.151245
      49A      0.176456    50A      0.192434    51A      0.200914
      52A      0.215460    53A      0.218052    54A      0.232493
      55A      0.246124    56A      0.261104    57A      0.273735
      58A      0.278488    59A      0.287887    60A      0.303344
      61A      0.336192    62A      0.356478    63A      0.358876
      64A      0.396224    65A      0.431898    66A      0.456935
      67A      0.468875    68A      0.481861    69A      0.484844
      70A      0.495280    71A      0.579428    72A      0.594524
      73A      0.620791    74A      0.633794    75A      0.638463
      76A      0.649125    77A      0.662534    78A      0.676308
      79A      0.680068    80A      0.694330    81A      0.713834
      82A      0.717487    83A      0.721902    84A      0.727581
      85A      0.740758    86A      0.748424    87A      0.755788
      88A      0.763383    89A      0.773828    90A      0.776704
      91A      0.787965    92A      0.818553    93A      0.830928
      94A      0.835347    95A      0.861596    96A      0.869748
      97A      0.872823    98A      0.876546    99A      0.884017
     100A      0.893699   101A      0.899672   102A      0.909367
     103A      0.920352   104A      0.926578   105A      0.932094
     106A      0.941471   107A      0.957106   108A      0.984866
     109A      1.008272   110A      1.038594   111A      1.044581
     112A      1.062005   113A      1.103641   114A      1.114155
     115A      1.127303   116A      1.132006   117A      1.152355
     118A      1.162171   119A      1.197003   120A      1.204504
     121A      1.223658   122A      1.230185   123A      1.266874
     124A      1.275417   125A      1.286127   126A      1.299406
     127A      1.309304   128A      1.324657   129A      1.344492
     130A      1.354431   131A      1.370431   132A      1.385453
     133A      1.398356   134A      1.417272   135A      1.468365
     136A      1.473835   137A      1.477634   138A      1.496137
     139A      1.533996   140A      1.547569   141A      1.569384
     142A      1.606315   143A      1.623291   144A      1.662649
     145A      1.665619   146A      1.679592   147A      1.686777
     148A      1.713094   149A      1.728505   150A      1.739271
     151A      1.766228   152A      1.785143   153A      1.792105
     154A      1.846343   155A      1.853579   156A      1.871984
     157A      1.881509   158A      1.887052   159A      1.889719
     160A      1.892676   161A      1.898611   162A      1.909862
     163A      1.926158   164A      1.927720   165A      1.940292
     166A      1.949159   167A      1.954449   168A      1.974818
     169A      2.006552   170A      2.010105   171A      2.023163
     172A      2.032871   173A      2.037784   174A      2.050089
     175A      2.055971   176A      2.067859   177A      2.117129
     178A      2.126391   179A      2.145745   180A      2.152800
     181A      2.179177   182A      2.201744   183A      2.231350
     184A      2.246070   185A      2.252824   186A      2.258194
     187A      2.283721   188A      2.298410   189A      2.324387
     190A      2.349768   191A      2.398795   192A      2.405472
     193A      2.426902   194A      2.457081   195A      2.478204
     196A      2.485350   197A      2.494203   198A      2.506388
     199A      2.535128   200A      2.578727   201A      2.591865
     202A      2.596312   203A      2.656497   204A      2.677493
     205A      2.737940   206A      2.750873   207A      2.760830
     208A      2.771918   209A      2.783869   210A      2.794189
     211A      2.824146   212A      2.826836   213A      2.885552
     214A      2.887101   215A      2.942516   216A      2.990458
     217A      3.003559   218A      3.064649   219A      3.091377
     220A      3.111337   221A      3.153207   222A      3.207378
     223A      3.261265   224A      3.299020   225A      3.343678
     226A      3.510157   227A      3.567195   228A      3.589428
     229A      3.660055   230A      3.884286   231A      3.921873
     232A      3.930363   233A      4.144983

    Final Occupation by Irrep:
              A
    DOCC [    45 ]

  @RHF Final Energy:  -552.62145155845724

   => Energetics <=

    Nuclear Repulsion Energy =            639.2566321195803312
    One-Electron Energy =               -2020.1837898736509942
    Two-Electron Energy =                 828.3057061956135385
    Total Energy =                       -552.6214515584572382

Computation Completed

Properties will be evaluated at   0.000000,   0.000000,   0.000000 [a0]

Properties computed using the SCF density matrix

  Nuclear Dipole Moment: [e a0]
     X:     2.7423      Y:    -1.9906      Z:     6.6671

  Electronic Dipole Moment: [e a0]
     X:    -1.8763      Y:     2.3536      Z:    -4.1658

  Dipole Moment: [e a0]
     X:     0.8659      Y:     0.3630      Z:     2.5013     Total:     2.6717

  Dipole Moment: [D]
     X:     2.2010      Y:     0.9227      Z:     6.3577     Total:     6.7908

*** tstop() called on ds3 at Sun Apr 26 21:29:41 2020
Module time:
	user time   =     126.12 seconds =       2.10 minutes
	system time =      61.40 seconds =       1.02 minutes
	total time  =        248 seconds =       4.13 minutes
Total time:
	user time   =     126.12 seconds =       2.10 minutes
	system time =      61.40 seconds =       1.02 minutes
	total time  =        248 seconds =       4.13 minutes
                                     G D M A

                                 by Anthony Stone

                           version 2.2.06, 22 June 2011

               Distributed Multipoles from Gaussian wavefunctions

Starting at 21:29:41 on 26 Apr 2020

Using SCF density matrix from file ./SSI/SSI-149ASN-171TYR-1-dimer.test.11396.fchk

                         Distributed Multipole Analysis

Standard DMA

Positions and radii in angstrom
Multipole moments in atomic units, ea_0^k for rank k

C          x = -3.348429  y = -0.081562  z = -2.210841 angstrom
           Maximum rank =  0   Radius =  0.650 angstrom
                   Q00  =  -0.262312

C          x = -2.265429  y =  0.208438  z = -3.222841 angstrom
           Maximum rank =  0   Radius =  0.650 angstrom
                   Q00  =   0.824699

O          x = -2.493429  y =  0.206438  z = -4.430841 angstrom
           Maximum rank =  0   Radius =  0.650 angstrom
                   Q00  =  -0.813778

N          x = -1.057429  y =  0.432438  z = -2.734841 angstrom
           Maximum rank =  0   Radius =  0.650 angstrom
                   Q00  =  -0.549592

H          x = -0.314429  y =  0.686438  z = -3.363841 angstrom
           Maximum rank =  0   Radius =  0.325 angstrom
                   Q00  =   0.210327

H          x = -0.937429  y =  0.516438  z = -1.729841 angstrom
           Maximum rank =  0   Radius =  0.325 angstrom
                   Q00  =   0.249546

H          x = -3.084429  y =  0.364438  z = -1.253841 angstrom
           Maximum rank =  0   Radius =  0.325 angstrom
                   Q00  =   0.078698

H          x = -3.375429  y = -1.162562  z = -2.076841 angstrom
           Maximum rank =  0   Radius =  0.325 angstrom
                   Q00  =   0.128478

H          x = -4.343289  y =  0.279678  z = -2.510441 angstrom
           Maximum rank =  0   Radius =  0.325 angstrom
                   Q00  =   0.123222

C          x =  3.483571  y = -1.162562  z =  3.303159 angstrom
           Maximum rank =  0   Radius =  0.650 angstrom
                   Q00  =  -0.195743

C          x =  0.183571  y =  0.364438  z =  0.969159 angstrom
           Maximum rank =  0   Radius =  0.650 angstrom
                   Q00  =   0.294850

C          x =  0.412571  y =  0.861438  z =  2.254159 angstrom
           Maximum rank =  0   Radius =  0.650 angstrom
                   Q00  =  -0.183224

C          x =  1.039571  y = -0.595562  z =  0.434159 angstrom
           Maximum rank =  0   Radius =  0.650 angstrom
                   Q00  =  -0.124000

C          x =  1.499571  y =  0.387438  z =  3.001159 angstrom
           Maximum rank =  0   Radius =  0.650 angstrom
                   Q00  =  -0.015424

C          x =  2.119571  y = -1.061562  z =  1.185159 angstrom
           Maximum rank =  0   Radius =  0.650 angstrom
                   Q00  =   0.030721

C          x =  2.359571  y = -0.580562  z =  2.476159 angstrom
           Maximum rank =  0   Radius =  0.650 angstrom
                   Q00  =  -0.133349

O          x = -0.880429  y =  0.794438  z =  0.232159 angstrom
           Maximum rank =  0   Radius =  0.650 angstrom
                   Q00  =  -0.691551

H          x = -1.393429  y =  1.484438  z =  0.720159 angstrom
           Maximum rank =  0   Radius =  0.325 angstrom
                   Q00  =   0.426909

H          x = -0.248429  y =  1.608438  z =  2.665159 angstrom
           Maximum rank =  0   Radius =  0.325 angstrom
                   Q00  =   0.076020

H          x =  0.860571  y = -0.979562  z = -0.558841 angstrom
           Maximum rank =  0   Radius =  0.325 angstrom
                   Q00  =   0.080255

H          x =  1.678571  y =  0.784438  z =  3.988159 angstrom
           Maximum rank =  0   Radius =  0.325 angstrom
                   Q00  =   0.073879

H          x =  2.774571  y = -1.812562  z =  0.763159 angstrom
           Maximum rank =  0   Radius =  0.325 angstrom
                   Q00  =   0.068940

H          x =  3.724571  y = -0.503562  z =  4.138159 angstrom
           Maximum rank =  0   Radius =  0.325 angstrom
                   Q00  =   0.099857

H          x =  4.365571  y = -1.226562  z =  2.668159 angstrom
           Maximum rank =  0   Radius =  0.325 angstrom
                   Q00  =   0.098652

H          x =  3.232191  y = -2.166622  z =  3.675539 angstrom
           Maximum rank =  0   Radius =  0.325 angstrom
                   Q00  =   0.103922

Total multipoles referred to origin at
           x =   0.000000,  y =    0.000000,  z =    0.000000 angstrom
                   Q00  =  -0.000000

Finished at 21:29:41 on 26 Apr 2020

  DMA results are available in the Python driver through the
	  variable('DMA DISTRIBUTED MULTIPOLES')
  and
	  variable('DMA TOTAL MULTIPOLES')
  commands.

    Psi4 stopped on: Sunday, 26 April 2020 09:29PM
    Psi4 wall time for execution: 0:04:07.78

*** Psi4 exiting successfully. Buy a developer a beer!
