                               Psi4 1.3.2 release

  ==> Input File <==

--------------------------------------------------------------------------
import numpy as np
set {scf_type pk
basis cc-pvdz
d_convergence 10
gdma_switch   0
gdma_limit    0
gdma_origin   [ 0.0,  0.0,  0.0 ]
}
molecule test {
    units Angstrom
    0 1
    --
    0 1
    C                1.480962343302763     0.257391309314531     1.479109912701709
    C                2.209962343302763     0.521391309314531     2.769109912701709
    C                3.368962343302763     1.681391309314531     1.036109912701709
    C                0.039962343302763     1.369391309314530    -0.853890087298291
    C                1.450962343302763     1.839391309314531    -0.484890087298291
    O                2.033962343302762     2.689391309314531    -1.172890087298291
    N                2.030962343302763     1.287391309314531     0.590109912701709
    H                1.768962343302763    -0.723608690685469     1.097109912701709
    H                0.420962343302763     0.255391309314531     1.635109912701709
    H                2.184962343302763    -0.344608690685469     3.430109912701709
    H                1.795962343302763     1.401391309314530     3.264109912701709
    H                3.335962343302763     2.727391309314530     1.346109912701709
    H               -0.203037656697237     0.439391309314531    -0.351890087298291
    H                3.226842343302763     0.725351309314531     2.402567912701709
    H                3.543012343302763     1.049201309314530     1.919308912701709
    H                4.164872343302763     1.557611309314531     0.286973912701709
    H               -0.684777656697237     2.148426309314530    -0.574855087298291
    H               -0.037827656697237     1.169881309314531    -1.932845087298291
    C               -3.894037656697237    -1.498608690685469    -2.046890087298291
    C               -1.622037656697237    -1.483608690685469     0.785109912701709
    C               -2.731037656697237    -1.630608690685470    -1.109890087298291
    C               -1.530037656697237    -2.242608690685469    -1.280890087298291
    N               -2.766037656697237    -1.161608690685469     0.188109912701709
    N               -0.856037656697237    -2.137608690685470    -0.082890087298291
    H               -1.361037656697237    -1.255608690685470     1.812109912701709
    H                0.064962343302763    -2.513608690685470     0.118109912701709
    H               -1.188037656697237    -2.741608690685469    -2.178890087298291
    H               -4.777037656697237    -1.231608690685470    -1.471890087298291
    H               -4.066037656697237    -2.489608690685469    -2.470890087298291
    H               -3.759877656697237    -0.776158690685469    -2.865470087298291

}
e, wfn = energy('scf', return_wfn=True)
gdma(wfn)
dmavals = variable('DMA DISTRIBUTED MULTIPOLES')
charges = np.array(dmavals)
print(charges)
np.save('SSI-018PRO-060HIE-1-dimer.npy', np.array(charges))--------------------------------------------------------------------------

*** tstart() called on ds3
*** at Mon Apr 27 23:21:57 2020

   => Loading Basis Set <=

    Name: CC-PVDZ
    Role: ORBITAL
    Keyword: BASIS
    atoms 1-5, 19-22  entry C          line   138 file /theoryfs2/ds/metcalf/miniconda2/envs/tf2gpu/share/psi4/basis/cc-pvdz.gbs
    atoms 6           entry O          line   198 file /theoryfs2/ds/metcalf/miniconda2/envs/tf2gpu/share/psi4/basis/cc-pvdz.gbs
    atoms 7, 23-24    entry N          line   168 file /theoryfs2/ds/metcalf/miniconda2/envs/tf2gpu/share/psi4/basis/cc-pvdz.gbs
    atoms 8-18, 25-30 entry H          line    22 file /theoryfs2/ds/metcalf/miniconda2/envs/tf2gpu/share/psi4/basis/cc-pvdz.gbs

         ---------------------------------------------------------
                                   SCF
               by Justin Turney, Rob Parrish, Andy Simmonett
                          and Daniel G. A. Smith
                              RHF Reference
                        1 Threads,    500 MiB Core
         ---------------------------------------------------------

  ==> Geometry <==

    Molecular point group: c1
    Full point group: C1

    Geometry (in Angstrom), charge = 0, multiplicity = 1:

       Center              X                  Y                   Z               Mass
    ------------   -----------------  -----------------  -----------------  -----------------
         C            1.480962343303     0.257391309315     1.479109912702    12.000000000000
         C            2.209962343303     0.521391309315     2.769109912702    12.000000000000
         C            3.368962343303     1.681391309315     1.036109912702    12.000000000000
         C            0.039962343303     1.369391309315    -0.853890087298    12.000000000000
         C            1.450962343303     1.839391309315    -0.484890087298    12.000000000000
         O            2.033962343303     2.689391309315    -1.172890087298    15.994914619570
         N            2.030962343303     1.287391309315     0.590109912702    14.003074004430
         H            1.768962343303    -0.723608690685     1.097109912702     1.007825032230
         H            0.420962343303     0.255391309315     1.635109912702     1.007825032230
         H            2.184962343303    -0.344608690685     3.430109912702     1.007825032230
         H            1.795962343303     1.401391309315     3.264109912702     1.007825032230
         H            3.335962343303     2.727391309315     1.346109912702     1.007825032230
         H           -0.203037656697     0.439391309315    -0.351890087298     1.007825032230
         H            3.226842343303     0.725351309315     2.402567912702     1.007825032230
         H            3.543012343303     1.049201309315     1.919308912702     1.007825032230
         H            4.164872343303     1.557611309315     0.286973912702     1.007825032230
         H           -0.684777656697     2.148426309315    -0.574855087298     1.007825032230
         H           -0.037827656697     1.169881309315    -1.932845087298     1.007825032230
         C           -3.894037656697    -1.498608690685    -2.046890087298    12.000000000000
         C           -1.622037656697    -1.483608690685     0.785109912702    12.000000000000
         C           -2.731037656697    -1.630608690685    -1.109890087298    12.000000000000
         C           -1.530037656697    -2.242608690685    -1.280890087298    12.000000000000
         N           -2.766037656697    -1.161608690685     0.188109912702    14.003074004430
         N           -0.856037656697    -2.137608690685    -0.082890087298    14.003074004430
         H           -1.361037656697    -1.255608690685     1.812109912702     1.007825032230
         H            0.064962343303    -2.513608690685     0.118109912702     1.007825032230
         H           -1.188037656697    -2.741608690685    -2.178890087298     1.007825032230
         H           -4.777037656697    -1.231608690685    -1.471890087298     1.007825032230
         H           -4.066037656697    -2.489608690685    -2.470890087298     1.007825032230
         H           -3.759877656697    -0.776158690685    -2.865470087298     1.007825032230

  Running in c1 symmetry.

  Rotational constants: A =      0.04447  B =      0.01146  C =      0.00984 [cm^-1]
  Rotational constants: A =   1333.18077  B =    343.46332  C =    294.95932 [MHz]
  Nuclear repulsion =  798.283210789373697

  Charge       = 0
  Multiplicity = 1
  Electrons    = 100
  Nalpha       = 50
  Nbeta        = 50

  ==> Algorithm <==

  SCF Algorithm Type is PK.
  DIIS enabled.
  MOM disabled.
  Fractional occupation disabled.
  Guess Type is SAD.
  Energy threshold   = 1.00e-06
  Density threshold  = 1.00e-10
  Integral threshold = 0.00e+00

  ==> Primary Basis <==

  Basis Set: CC-PVDZ
    Blend: CC-PVDZ
    Number of shells: 129
    Number of basis function: 267
    Number of Cartesian functions: 280
    Spherical Harmonics?: true
    Max angular momentum: 2

  ==> Pre-Iterations <==

   -------------------------------------------------------
    Irrep   Nso     Nmo     Nalpha   Nbeta   Ndocc  Nsocc
   -------------------------------------------------------
     A        267     267       0       0       0       0
   -------------------------------------------------------
    Total     267     267      50      50      50       0
   -------------------------------------------------------

  ==> Integral Setup <==

  Using integral reordering PK algorithm.
  Sizing the integral batches needed.
  Building batch lookup table.
   Calculation information:
      Number of atoms:                  30
      Number of AO shells:             129
      Number of primitives:            371
      Number of atomic orbitals:       280
      Number of basis functions:       267

      Integral cutoff                 1.00e-12
      Number of threads:                 1

	Batch   1 pq = [       0,    9405] index = [             0,44231715] size =     44231715
	Batch   2 pq = [    9405,   13301] index = [      44231715,88464951] size =     44233236
	Batch   3 pq = [   13301,   16290] index = [      88464951,132690195] size =     44225244
	Batch   4 pq = [   16290,   18810] index = [     132690195,176917455] size =     44227260
	Batch   5 pq = [   18810,   21030] index = [     176917455,221140965] size =     44223510
	Batch   6 pq = [   21030,   23037] index = [     221140965,265363203] size =     44222238
	Batch   7 pq = [   23037,   24883] index = [     265363203,309594286] size =     44231083
	Batch   8 pq = [   24883,   26601] index = [     309594286,353819901] size =     44225615
	Batch   9 pq = [   26601,   28214] index = [     353819901,398029005] size =     44209104
	Batch  10 pq = [   28214,   29740] index = [     398029005,442248670] size =     44219665
	Batch  11 pq = [   29740,   31191] index = [     442248670,486454836] size =     44206166
	Batch  12 pq = [   31191,   32578] index = [     486454836,530679331] size =     44224495
	Batch  13 pq = [   32578,   33908] index = [     530679331,574893186] size =     44213855
	Batch  14 pq = [   33908,   35188] index = [     574893186,619115266] size =     44222080
	Batch  15 pq = [   35188,   35778] index = [     619115266,640050531] size =     20935265
  Task number: 58
  Buffer size: 11059200
  Buffer per thread: 2
  We computed 33839133 shell quartets total.
  Whereas there are 35158305 unique shell quartets.

  ==> DiskJK: Disk-Based J/K Matrices <==

    J tasked:                  Yes
    K tasked:                  Yes
    wK tasked:                  No
    Memory [MiB]:              375
    Schwarz Cutoff:          1E-12

    OpenMP threads:              1

  Minimum eigenvalue in the overlap matrix is 1.1773103555E-03.
  Using Symmetric Orthogonalization.

  SCF Guess: Superposition of Atomic Densities via on-the-fly atomic UHF.

  ==> Iterations <==

                        Total Energy        Delta E     RMS |[F,P]|

   @RHF iter SAD:  -588.27994360298146   -5.88280e+02   0.00000e+00
   @RHF iter   1:  -588.39374955488734   -1.13806e-01   2.89466e-03 DIIS
   @RHF iter   2:  -588.65895537555355   -2.65206e-01   1.69946e-03 DIIS
   @RHF iter   3:  -588.74163287519093   -8.26775e-02   3.98081e-04 DIIS
   @RHF iter   4:  -588.74849885831145   -6.86598e-03   1.41186e-04 DIIS
   @RHF iter   5:  -588.74942811455912   -9.29256e-04   2.84333e-05 DIIS
   @RHF iter   6:  -588.74949500590674   -6.68913e-05   1.43179e-05 DIIS
   @RHF iter   7:  -588.74950997197811   -1.49661e-05   5.02631e-06 DIIS
   @RHF iter   8:  -588.74951284287511   -2.87090e-06   1.96053e-06 DIIS
   @RHF iter   9:  -588.74951323973175   -3.96857e-07   7.31589e-07 DIIS
   @RHF iter  10:  -588.74951328381292   -4.40812e-08   2.52572e-07 DIIS
   @RHF iter  11:  -588.74951328875466   -4.94174e-09   8.59035e-08 DIIS
   @RHF iter  12:  -588.74951328940665   -6.51994e-10   3.79350e-08 DIIS
   @RHF iter  13:  -588.74951328952591   -1.19257e-10   1.18342e-08 DIIS
   @RHF iter  14:  -588.74951328953978   -1.38698e-11   4.80280e-09 DIIS
   @RHF iter  15:  -588.74951328954535   -5.57066e-12   2.30407e-09 DIIS
   @RHF iter  16:  -588.74951328954535    0.00000e+00   8.28904e-10 DIIS
   @RHF iter  17:  -588.74951328954808   -2.72848e-12   3.09026e-10 DIIS
   @RHF iter  18:  -588.74951328955046   -2.38742e-12   1.04749e-10 DIIS
   @RHF iter  19:  -588.74951328954887    1.59162e-12   3.66582e-11 DIIS
  Energy and wave function converged.

  ==> Post-Iterations <==

    Orbital Energies [Eh]
    ---------------------

    Doubly Occupied:

       1A    -20.494145     2A    -15.632577     3A    -15.586603
       4A    -15.539662     5A    -11.339443     6A    -11.302653
       7A    -11.283432     8A    -11.259540     9A    -11.250912
      10A    -11.248929    11A    -11.229302    12A    -11.228531
      13A    -11.225984    14A     -1.355357    15A     -1.351357
      16A     -1.256390    17A     -1.163264    18A     -1.075226
      19A     -1.039479    20A     -1.007104    21A     -0.967658
      22A     -0.948724    23A     -0.860362    24A     -0.828528
      25A     -0.770907    26A     -0.760092    27A     -0.750845
      28A     -0.735946    29A     -0.673356    30A     -0.652580
      31A     -0.621489    32A     -0.618944    33A     -0.613092
      34A     -0.606280    35A     -0.592571    36A     -0.569910
      37A     -0.561667    38A     -0.548096    39A     -0.543757
      40A     -0.540908    41A     -0.536587    42A     -0.525578
      43A     -0.525162    44A     -0.481274    45A     -0.421169
      46A     -0.397561    47A     -0.395847    48A     -0.388743
      49A     -0.363476    50A     -0.318275

    Virtual:

      51A      0.144042    52A      0.160739    53A      0.178542
      54A      0.188921    55A      0.201266    56A      0.204133
      57A      0.215518    58A      0.217973    59A      0.230798
      60A      0.236436    61A      0.247194    62A      0.251989
      63A      0.267147    64A      0.270291    65A      0.279710
      66A      0.290033    67A      0.296221    68A      0.311459
      69A      0.320825    70A      0.338581    71A      0.346029
      72A      0.353399    73A      0.377235    74A      0.396982
      75A      0.410107    76A      0.423679    77A      0.451543
      78A      0.473081    79A      0.483155    80A      0.512534
      81A      0.520613    82A      0.552871    83A      0.568098
      84A      0.597386    85A      0.616060    86A      0.625575
      87A      0.637228    88A      0.655059    89A      0.661279
      90A      0.674954    91A      0.680784    92A      0.689829
      93A      0.704140    94A      0.717920    95A      0.722924
      96A      0.736203    97A      0.750731    98A      0.762822
      99A      0.784652   100A      0.792352   101A      0.803553
     102A      0.812754   103A      0.832515   104A      0.836450
     105A      0.855051   106A      0.862042   107A      0.865985
     108A      0.871111   109A      0.875519   110A      0.878429
     111A      0.895348   112A      0.900675   113A      0.907058
     114A      0.911720   115A      0.916355   116A      0.922727
     117A      0.926896   118A      0.934905   119A      0.943541
     120A      0.955273   121A      0.966103   122A      0.977915
     123A      1.006402   124A      1.020719   125A      1.035751
     126A      1.038836   127A      1.072910   128A      1.084806
     129A      1.098755   130A      1.118879   131A      1.124270
     132A      1.136761   133A      1.139487   134A      1.166730
     135A      1.171691   136A      1.209045   137A      1.217873
     138A      1.240396   139A      1.254238   140A      1.272261
     141A      1.292028   142A      1.301153   143A      1.316965
     144A      1.328802   145A      1.351877   146A      1.378290
     147A      1.402578   148A      1.404863   149A      1.422373
     150A      1.435374   151A      1.449495   152A      1.463281
     153A      1.466197   154A      1.499101   155A      1.520443
     156A      1.543780   157A      1.554397   158A      1.578656
     159A      1.589544   160A      1.595982   161A      1.628905
     162A      1.646953   163A      1.654372   164A      1.670255
     165A      1.677310   166A      1.686446   167A      1.700478
     168A      1.723055   169A      1.750246   170A      1.765094
     171A      1.775856   172A      1.806693   173A      1.822670
     174A      1.831840   175A      1.848966   176A      1.854527
     177A      1.859431   178A      1.883923   179A      1.886377
     180A      1.896584   181A      1.904184   182A      1.912874
     183A      1.919489   184A      1.927022   185A      1.930334
     186A      1.944904   187A      1.965174   188A      1.966788
     189A      1.979939   190A      1.981421   191A      2.001745
     192A      2.008110   193A      2.032760   194A      2.040102
     195A      2.051748   196A      2.057859   197A      2.077413
     198A      2.103840   199A      2.104433   200A      2.120767
     201A      2.136454   202A      2.143175   203A      2.158060
     204A      2.168260   205A      2.185887   206A      2.202169
     207A      2.231499   208A      2.250169   209A      2.259705
     210A      2.266258   211A      2.272769   212A      2.276947
     213A      2.306395   214A      2.337740   215A      2.348255
     216A      2.360143   217A      2.374319   218A      2.404455
     219A      2.416099   220A      2.448771   221A      2.460782
     222A      2.478083   223A      2.492502   224A      2.505293
     225A      2.525216   226A      2.540156   227A      2.574759
     228A      2.602666   229A      2.619039   230A      2.640067
     231A      2.663355   232A      2.721773   233A      2.725315
     234A      2.744635   235A      2.755131   236A      2.769793
     237A      2.780251   238A      2.786438   239A      2.789791
     240A      2.803061   241A      2.809954   242A      2.823044
     243A      2.847383   244A      2.862524   245A      2.864103
     246A      2.882075   247A      2.901170   248A      2.921825
     249A      2.942513   250A      2.973018   251A      2.982973
     252A      3.034935   253A      3.056008   254A      3.084136
     255A      3.109640   256A      3.145251   257A      3.166368
     258A      3.218239   259A      3.232617   260A      3.353250
     261A      3.370096   262A      3.456271   263A      3.517906
     264A      3.790985   265A      3.826790   266A      3.900509
     267A      5.048855

    Final Occupation by Irrep:
              A
    DOCC [    50 ]

  @RHF Final Energy:  -588.74951328954887

   => Energetics <=

    Nuclear Repulsion Energy =            798.2832107893736975
    One-Electron Energy =               -2384.0868969594021110
    Two-Electron Energy =                 997.0541728804795412
    Total Energy =                       -588.7495132895488723

Computation Completed

Properties will be evaluated at   0.000000,   0.000000,   0.000000 [a0]

Properties computed using the SCF density matrix

  Nuclear Dipole Moment: [e a0]
     X:     4.1663      Y:    -0.5459      Z:     5.1155

  Electronic Dipole Moment: [e a0]
     X:    -3.5407      Y:    -1.2870      Z:    -4.0421

  Dipole Moment: [e a0]
     X:     0.6256      Y:    -1.8330      Z:     1.0735     Total:     2.2144

  Dipole Moment: [D]
     X:     1.5901      Y:    -4.6589      Z:     2.7284     Total:     5.6283

*** tstop() called on ds3 at Mon Apr 27 23:28:46 2020
Module time:
	user time   =     294.47 seconds =       4.91 minutes
	system time =     130.28 seconds =       2.17 minutes
	total time  =        409 seconds =       6.82 minutes
Total time:
	user time   =     294.47 seconds =       4.91 minutes
	system time =     130.28 seconds =       2.17 minutes
	total time  =        409 seconds =       6.82 minutes
                                     G D M A

                                 by Anthony Stone

                           version 2.2.06, 22 June 2011

               Distributed Multipoles from Gaussian wavefunctions

Starting at 23:28:46 on 27 Apr 2020

Using SCF density matrix from file ./SSI/SSI-018PRO-060HIE-1-dimer.test.2519.fchk

                         Distributed Multipole Analysis

Standard DMA

Positions and radii in angstrom
Multipole moments in atomic units, ea_0^k for rank k

C          x =  1.480962  y =  0.257391  z =  1.479110 angstrom
           Maximum rank =  0   Radius =  0.650 angstrom
                   Q00  =  -0.001486

C          x =  2.209962  y =  0.521391  z =  2.769110 angstrom
           Maximum rank =  0   Radius =  0.650 angstrom
                   Q00  =  -0.226222

C          x =  3.368962  y =  1.681391  z =  1.036110 angstrom
           Maximum rank =  0   Radius =  0.650 angstrom
                   Q00  =  -0.105174

C          x =  0.039962  y =  1.369391  z = -0.853890 angstrom
           Maximum rank =  0   Radius =  0.650 angstrom
                   Q00  =  -0.253601

C          x =  1.450962  y =  1.839391  z = -0.484890 angstrom
           Maximum rank =  0   Radius =  0.650 angstrom
                   Q00  =   0.729734

O          x =  2.033962  y =  2.689391  z = -1.172890 angstrom
           Maximum rank =  0   Radius =  0.650 angstrom
                   Q00  =  -0.783022

N          x =  2.030962  y =  1.287391  z =  0.590110 angstrom
           Maximum rank =  0   Radius =  0.650 angstrom
                   Q00  =  -0.444649

H          x =  1.768962  y = -0.723609  z =  1.097110 angstrom
           Maximum rank =  0   Radius =  0.325 angstrom
                   Q00  =   0.030957

H          x =  0.420962  y =  0.255391  z =  1.635110 angstrom
           Maximum rank =  0   Radius =  0.325 angstrom
                   Q00  =   0.099406

H          x =  2.184962  y = -0.344609  z =  3.430110 angstrom
           Maximum rank =  0   Radius =  0.325 angstrom
                   Q00  =   0.085197

H          x =  1.795962  y =  1.401391  z =  3.264110 angstrom
           Maximum rank =  0   Radius =  0.325 angstrom
                   Q00  =   0.095808

H          x =  3.335962  y =  2.727391  z =  1.346110 angstrom
           Maximum rank =  0   Radius =  0.325 angstrom
                   Q00  =   0.106889

H          x = -0.203038  y =  0.439391  z = -0.351890 angstrom
           Maximum rank =  0   Radius =  0.325 angstrom
                   Q00  =   0.082948

H          x =  3.226842  y =  0.725351  z =  2.402568 angstrom
           Maximum rank =  0   Radius =  0.325 angstrom
                   Q00  =   0.109557

H          x =  3.543012  y =  1.049201  z =  1.919309 angstrom
           Maximum rank =  0   Radius =  0.325 angstrom
                   Q00  =   0.100563

H          x =  4.164872  y =  1.557611  z =  0.286974 angstrom
           Maximum rank =  0   Radius =  0.325 angstrom
                   Q00  =   0.106449

H          x = -0.684778  y =  2.148426  z = -0.574855 angstrom
           Maximum rank =  0   Radius =  0.325 angstrom
                   Q00  =   0.130719

H          x = -0.037828  y =  1.169881  z = -1.932845 angstrom
           Maximum rank =  0   Radius =  0.325 angstrom
                   Q00  =   0.129065

C          x = -3.894038  y = -1.498609  z = -2.046890 angstrom
           Maximum rank =  0   Radius =  0.650 angstrom
                   Q00  =  -0.200767

C          x = -1.622038  y = -1.483609  z =  0.785110 angstrom
           Maximum rank =  0   Radius =  0.650 angstrom
                   Q00  =   0.444304

C          x = -2.731038  y = -1.630609  z = -1.109890 angstrom
           Maximum rank =  0   Radius =  0.650 angstrom
                   Q00  =   0.232414

C          x = -1.530038  y = -2.242609  z = -1.280890 angstrom
           Maximum rank =  0   Radius =  0.650 angstrom
                   Q00  =  -0.005737

N          x = -2.766038  y = -1.161609  z =  0.188110 angstrom
           Maximum rank =  0   Radius =  0.650 angstrom
                   Q00  =  -0.762488

N          x = -0.856038  y = -2.137609  z = -0.082890 angstrom
           Maximum rank =  0   Radius =  0.650 angstrom
                   Q00  =  -0.471728

H          x = -1.361038  y = -1.255609  z =  1.812110 angstrom
           Maximum rank =  0   Radius =  0.325 angstrom
                   Q00  =   0.119209

H          x =  0.064962  y = -2.513609  z =  0.118110 angstrom
           Maximum rank =  0   Radius =  0.325 angstrom
                   Q00  =   0.223220

H          x = -1.188038  y = -2.741609  z = -2.178890 angstrom
           Maximum rank =  0   Radius =  0.325 angstrom
                   Q00  =   0.103524

H          x = -4.777038  y = -1.231609  z = -1.471890 angstrom
           Maximum rank =  0   Radius =  0.325 angstrom
                   Q00  =   0.125103

H          x = -4.066038  y = -2.489609  z = -2.470890 angstrom
           Maximum rank =  0   Radius =  0.325 angstrom
                   Q00  =   0.095862

H          x = -3.759878  y = -0.776159  z = -2.865470 angstrom
           Maximum rank =  0   Radius =  0.325 angstrom
                   Q00  =   0.103947

Total multipoles referred to origin at
           x =   0.000000,  y =    0.000000,  z =    0.000000 angstrom
                   Q00  =  -0.000000

Finished at 23:28:46 on 27 Apr 2020

  DMA results are available in the Python driver through the
	  variable('DMA DISTRIBUTED MULTIPOLES')
  and
	  variable('DMA TOTAL MULTIPOLES')
  commands.

    Psi4 stopped on: Monday, 27 April 2020 11:28PM
    Psi4 wall time for execution: 0:06:49.04

*** Psi4 exiting successfully. Buy a developer a beer!
