                               Psi4 1.3.2 release

  ==> Input File <==

--------------------------------------------------------------------------
import numpy as np
set {scf_type pk
basis cc-pvdz
d_convergence 10
gdma_switch   0
gdma_limit    0
gdma_origin   [ 0.0,  0.0,  0.0 ]
}
molecule test {
    units Angstrom
    0 1
    --
    0 1
    C               -0.881226471772177    -1.069401844716356    -0.205016697343052
    C               -2.086226471772176    -0.170401844716356     0.237983302656948
    C               -1.169226471772177    -2.386401844716356     0.498983302656948
    H                0.068773528227823    -0.662401844716356     0.145983302656948
    H               -0.839226471772177    -1.208401844716356    -1.280016697343052
    H               -1.826226471772177     0.882598155283644     0.279983302656948
    H               -2.951226471772177    -0.293401844716356    -0.421016697343052
    H               -0.261226471772177    -2.981401844716356     0.561983302656948
    H               -1.974226471772177    -2.975401844716356     0.056983302656948
    H               -2.307407671772177    -0.556201844716356     1.244093302656948
    H               -1.465545971772177    -2.021401844716356     1.493463302656948
    C                1.785773528227823     1.569598155283644    -0.978016697343052
    C                2.290773528227823     1.988598155283644     0.411983302656948
    H                1.495773528227823     2.452598155283644    -1.547016697343052
    H                2.571773528227824     1.042598155283644    -1.517016697343052
    H                0.923773528227823     0.918598155283644    -0.873016697343052
    H                2.579773528227824     1.094598155283644     0.967983302656948
    H                1.497515528227823     2.519998155283644     0.958183302656948
    H                3.203688528227824     2.597398155283644     0.335253302656948

}
e, wfn = energy('scf', return_wfn=True)
gdma(wfn)
dmavals = variable('DMA DISTRIBUTED MULTIPOLES')
charges = np.array(dmavals)
print(charges)
np.save('SSI-031PRO-097VAL-1-dimer.npy', np.array(charges))--------------------------------------------------------------------------

*** tstart() called on ds3
*** at Mon Apr 27 21:10:15 2020

   => Loading Basis Set <=

    Name: CC-PVDZ
    Role: ORBITAL
    Keyword: BASIS
    atoms 1-3, 12-13  entry C          line   138 file /theoryfs2/ds/metcalf/miniconda2/envs/tf2gpu/share/psi4/basis/cc-pvdz.gbs
    atoms 4-11, 14-19 entry H          line    22 file /theoryfs2/ds/metcalf/miniconda2/envs/tf2gpu/share/psi4/basis/cc-pvdz.gbs

         ---------------------------------------------------------
                                   SCF
               by Justin Turney, Rob Parrish, Andy Simmonett
                          and Daniel G. A. Smith
                              RHF Reference
                        1 Threads,    500 MiB Core
         ---------------------------------------------------------

  ==> Geometry <==

    Molecular point group: c1
    Full point group: C1

    Geometry (in Angstrom), charge = 0, multiplicity = 1:

       Center              X                  Y                   Z               Mass
    ------------   -----------------  -----------------  -----------------  -----------------
         C           -0.881226471772    -1.069401844716    -0.205016697343    12.000000000000
         C           -2.086226471772    -0.170401844716     0.237983302657    12.000000000000
         C           -1.169226471772    -2.386401844716     0.498983302657    12.000000000000
         H            0.068773528228    -0.662401844716     0.145983302657     1.007825032230
         H           -0.839226471772    -1.208401844716    -1.280016697343     1.007825032230
         H           -1.826226471772     0.882598155284     0.279983302657     1.007825032230
         H           -2.951226471772    -0.293401844716    -0.421016697343     1.007825032230
         H           -0.261226471772    -2.981401844716     0.561983302657     1.007825032230
         H           -1.974226471772    -2.975401844716     0.056983302657     1.007825032230
         H           -2.307407671772    -0.556201844716     1.244093302657     1.007825032230
         H           -1.465545971772    -2.021401844716     1.493463302657     1.007825032230
         C            1.785773528228     1.569598155284    -0.978016697343    12.000000000000
         C            2.290773528228     1.988598155284     0.411983302657    12.000000000000
         H            1.495773528228     2.452598155284    -1.547016697343     1.007825032230
         H            2.571773528228     1.042598155284    -1.517016697343     1.007825032230
         H            0.923773528228     0.918598155284    -0.873016697343     1.007825032230
         H            2.579773528228     1.094598155284     0.967983302657     1.007825032230
         H            1.497515528228     2.519998155284     0.958183302657     1.007825032230
         H            3.203688528228     2.597398155284     0.335253302657     1.007825032230

  Running in c1 symmetry.

  Rotational constants: A =      0.22201  B =      0.03992  C =      0.03801 [cm^-1]
  Rotational constants: A =   6655.61861  B =   1196.88678  C =   1139.55181 [MHz]
  Nuclear repulsion =  178.580073669941584

  Charge       = 0
  Multiplicity = 1
  Electrons    = 44
  Nalpha       = 22
  Nbeta        = 22

  ==> Algorithm <==

  SCF Algorithm Type is PK.
  DIIS enabled.
  MOM disabled.
  Fractional occupation disabled.
  Guess Type is SAD.
  Energy threshold   = 1.00e-06
  Density threshold  = 1.00e-10
  Integral threshold = 0.00e+00

  ==> Primary Basis <==

  Basis Set: CC-PVDZ
    Blend: CC-PVDZ
    Number of shells: 72
    Number of basis function: 140
    Number of Cartesian functions: 145
    Spherical Harmonics?: true
    Max angular momentum: 2

  ==> Pre-Iterations <==

   -------------------------------------------------------
    Irrep   Nso     Nmo     Nalpha   Nbeta   Ndocc  Nsocc
   -------------------------------------------------------
     A        140     140       0       0       0       0
   -------------------------------------------------------
    Total     140     140      22      22      22       0
   -------------------------------------------------------

  ==> Integral Setup <==

  Using integral reordering PK algorithm.
  Sizing the integral batches needed.
  Building batch lookup table.
   Calculation information:
      Number of atoms:                  19
      Number of AO shells:              72
      Number of primitives:            180
      Number of atomic orbitals:       145
      Number of basis functions:       140

      Integral cutoff                 1.00e-12
      Number of threads:                 1

	Batch   1 pq = [       0,    9405] index = [             0,44231715] size =     44231715
	Batch   2 pq = [    9405,    9870] index = [      44231715,48713385] size =      4481670
  Task number: 5
  Buffer size: 11059200
  Buffer per thread: 2
  We computed 2851755 shell quartets total.
  Whereas there are 3454506 unique shell quartets.

  ==> DiskJK: Disk-Based J/K Matrices <==

    J tasked:                  Yes
    K tasked:                  Yes
    wK tasked:                  No
    Memory [MiB]:              375
    Schwarz Cutoff:          1E-12

    OpenMP threads:              1

  Minimum eigenvalue in the overlap matrix is 4.7527352038E-03.
  Using Symmetric Orthogonalization.

  SCF Guess: Superposition of Atomic Densities via on-the-fly atomic UHF.

  ==> Iterations <==

                        Total Energy        Delta E     RMS |[F,P]|

   @RHF iter SAD:  -196.41517250318498   -1.96415e+02   0.00000e+00
   @RHF iter   1:  -197.29681294091463   -8.81640e-01   3.78258e-03 DIIS
   @RHF iter   2:  -197.45452702979094   -1.57714e-01   1.62458e-03 DIIS
   @RHF iter   3:  -197.48238050074110   -2.78535e-02   3.24703e-04 DIIS
   @RHF iter   4:  -197.48455359466004   -2.17309e-03   4.74676e-05 DIIS
   @RHF iter   5:  -197.48459164422607   -3.80496e-05   1.50126e-05 DIIS
   @RHF iter   6:  -197.48459505738668   -3.41316e-06   2.58895e-06 DIIS
   @RHF iter   7:  -197.48459517848755   -1.21101e-07   4.43716e-07 DIIS
   @RHF iter   8:  -197.48459518258997   -4.10242e-09   9.40452e-08 DIIS
   @RHF iter   9:  -197.48459518277213   -1.82155e-10   3.00182e-08 DIIS
   @RHF iter  10:  -197.48459518279020   -1.80762e-11   7.78111e-09 DIIS
   @RHF iter  11:  -197.48459518279211   -1.90425e-12   1.61945e-09 DIIS
   @RHF iter  12:  -197.48459518279290   -7.95808e-13   3.48957e-10 DIIS
   @RHF iter  13:  -197.48459518279242    4.83169e-13   7.02019e-11 DIIS
  Energy and wave function converged.

  ==> Post-Iterations <==

    Orbital Energies [Eh]
    ---------------------

    Doubly Occupied:

       1A    -11.220984     2A    -11.220336     3A    -11.217217
       4A    -11.215789     5A    -11.214033     6A     -1.059304
       7A     -1.016217     8A     -0.912812     9A     -0.838025
      10A     -0.803668    11A     -0.635019    12A     -0.612517
      13A     -0.599060    14A     -0.592605    15A     -0.542593
      16A     -0.508735    17A     -0.499307    18A     -0.491992
      19A     -0.486312    20A     -0.477047    21A     -0.473592
      22A     -0.457183

    Virtual:

      23A      0.168008    24A      0.197118    25A      0.216921
      26A      0.226544    27A      0.240908    28A      0.242702
      29A      0.250619    30A      0.265237    31A      0.275544
      32A      0.276690    33A      0.297253    34A      0.314675
      35A      0.334933    36A      0.347662    37A      0.376214
      38A      0.395857    39A      0.436312    40A      0.561824
      41A      0.595731    42A      0.602899    43A      0.604402
      44A      0.612652    45A      0.637452    46A      0.651381
      47A      0.672113    48A      0.695574    49A      0.746900
      50A      0.787766    51A      0.821212    52A      0.838183
      53A      0.841069    54A      0.870083    55A      0.876220
      56A      0.891936    57A      0.892241    58A      0.894310
      59A      0.903980    60A      0.905451    61A      0.911801
      62A      0.925110    63A      0.930140    64A      0.941487
      65A      0.946352    66A      0.965110    67A      1.000676
      68A      1.052573    69A      1.091123    70A      1.124029
      71A      1.130032    72A      1.149162    73A      1.206708
      74A      1.313830    75A      1.399244    76A      1.432697
      77A      1.453278    78A      1.469535    79A      1.480677
      80A      1.567213    81A      1.605977    82A      1.623749
      83A      1.646071    84A      1.683397    85A      1.692550
      86A      1.740847    87A      1.748082    88A      1.819195
      89A      1.843117    90A      1.860540    91A      1.870919
      92A      1.877928    93A      1.890378    94A      1.901092
      95A      1.909848    96A      1.931319    97A      1.940859
      98A      1.944578    99A      1.947375   100A      1.959852
     101A      1.972102   102A      1.977788   103A      1.993703
     104A      2.002690   105A      2.036577   106A      2.078765
     107A      2.089747   108A      2.103430   109A      2.120103
     110A      2.131789   111A      2.169227   112A      2.256814
     113A      2.289524   114A      2.309735   115A      2.323271
     116A      2.359645   117A      2.412352   118A      2.437395
     119A      2.450914   120A      2.470992   121A      2.521308
     122A      2.543150   123A      2.564976   124A      2.572548
     125A      2.641605   126A      2.676877   127A      2.753742
     128A      2.767020   129A      2.777098   130A      2.784140
     131A      2.807212   132A      2.838312   133A      2.845716
     134A      2.865505   135A      2.872878   136A      2.924643
     137A      2.944183   138A      2.958514   139A      2.975856
     140A      3.059101

    Final Occupation by Irrep:
              A
    DOCC [    22 ]

  @RHF Final Energy:  -197.48459518279242

   => Energetics <=

    Nuclear Repulsion Energy =            178.5800736699415836
    One-Electron Energy =                -617.9406496256247010
    Two-Electron Energy =                 241.8759807728906708
    Total Energy =                       -197.4845951827924182

Computation Completed

Properties will be evaluated at   0.000000,   0.000000,   0.000000 [a0]

Properties computed using the SCF density matrix

  Nuclear Dipole Moment: [e a0]
     X:     0.6712      Y:     0.7591      Z:     0.3804

  Electronic Dipole Moment: [e a0]
     X:    -0.6563      Y:    -0.7773      Z:    -0.4122

  Dipole Moment: [e a0]
     X:     0.0150      Y:    -0.0182      Z:    -0.0317     Total:     0.0395

  Dipole Moment: [D]
     X:     0.0380      Y:    -0.0461      Z:    -0.0806     Total:     0.1004

*** tstop() called on ds3 at Mon Apr 27 21:10:47 2020
Module time:
	user time   =      14.65 seconds =       0.24 minutes
	system time =       5.37 seconds =       0.09 minutes
	total time  =         32 seconds =       0.53 minutes
Total time:
	user time   =      14.65 seconds =       0.24 minutes
	system time =       5.37 seconds =       0.09 minutes
	total time  =         32 seconds =       0.53 minutes
                                     G D M A

                                 by Anthony Stone

                           version 2.2.06, 22 June 2011

               Distributed Multipoles from Gaussian wavefunctions

Starting at 21:10:47 on 27 Apr 2020

Using SCF density matrix from file ./SSI/SSI-031PRO-097VAL-1-dimer.test.24542.fchk

                         Distributed Multipole Analysis

Standard DMA

Positions and radii in angstrom
Multipole moments in atomic units, ea_0^k for rank k

C          x = -0.881226  y = -1.069402  z = -0.205017 angstrom
           Maximum rank =  0   Radius =  0.650 angstrom
                   Q00  =  -0.083622

C          x = -2.086226  y = -0.170402  z =  0.237983 angstrom
           Maximum rank =  0   Radius =  0.650 angstrom
                   Q00  =  -0.261098

C          x = -1.169226  y = -2.386402  z =  0.498983 angstrom
           Maximum rank =  0   Radius =  0.650 angstrom
                   Q00  =  -0.214010

H          x =  0.068774  y = -0.662402  z =  0.145983 angstrom
           Maximum rank =  0   Radius =  0.325 angstrom
                   Q00  =   0.055185

H          x = -0.839226  y = -1.208402  z = -1.280017 angstrom
           Maximum rank =  0   Radius =  0.325 angstrom
                   Q00  =   0.059882

H          x = -1.826226  y =  0.882598  z =  0.279983 angstrom
           Maximum rank =  0   Radius =  0.325 angstrom
                   Q00  =   0.085490

H          x = -2.951226  y = -0.293402  z = -0.421017 angstrom
           Maximum rank =  0   Radius =  0.325 angstrom
                   Q00  =   0.087124

H          x = -0.261226  y = -2.981402  z =  0.561983 angstrom
           Maximum rank =  0   Radius =  0.325 angstrom
                   Q00  =   0.080071

H          x = -1.974226  y = -2.975402  z =  0.056983 angstrom
           Maximum rank =  0   Radius =  0.325 angstrom
                   Q00  =   0.083388

H          x = -2.307408  y = -0.556202  z =  1.244093 angstrom
           Maximum rank =  0   Radius =  0.325 angstrom
                   Q00  =   0.062436

H          x = -1.465546  y = -2.021402  z =  1.493463 angstrom
           Maximum rank =  0   Radius =  0.325 angstrom
                   Q00  =   0.048077

C          x =  1.785774  y =  1.569598  z = -0.978017 angstrom
           Maximum rank =  0   Radius =  0.650 angstrom
                   Q00  =  -0.241979

C          x =  2.290774  y =  1.988598  z =  0.411983 angstrom
           Maximum rank =  0   Radius =  0.650 angstrom
                   Q00  =  -0.244548

H          x =  1.495774  y =  2.452598  z = -1.547017 angstrom
           Maximum rank =  0   Radius =  0.325 angstrom
                   Q00  =   0.078877

H          x =  2.571774  y =  1.042598  z = -1.517017 angstrom
           Maximum rank =  0   Radius =  0.325 angstrom
                   Q00  =   0.079560

H          x =  0.923774  y =  0.918598  z = -0.873017 angstrom
           Maximum rank =  0   Radius =  0.325 angstrom
                   Q00  =   0.088003

H          x =  2.579774  y =  1.094598  z =  0.967983 angstrom
           Maximum rank =  0   Radius =  0.325 angstrom
                   Q00  =   0.075358

H          x =  1.497516  y =  2.519998  z =  0.958183 angstrom
           Maximum rank =  0   Radius =  0.325 angstrom
                   Q00  =   0.080332

H          x =  3.203689  y =  2.597398  z =  0.335253 angstrom
           Maximum rank =  0   Radius =  0.325 angstrom
                   Q00  =   0.081474

Total multipoles referred to origin at
           x =   0.000000,  y =    0.000000,  z =    0.000000 angstrom
                   Q00  =  -0.000000

Finished at 21:10:47 on 27 Apr 2020

  DMA results are available in the Python driver through the
	  variable('DMA DISTRIBUTED MULTIPOLES')
  and
	  variable('DMA TOTAL MULTIPOLES')
  commands.

    Psi4 stopped on: Monday, 27 April 2020 09:10PM
    Psi4 wall time for execution: 0:00:32.55

*** Psi4 exiting successfully. Buy a developer a beer!
