                               Psi4 1.3.2 release

  ==> Input File <==

--------------------------------------------------------------------------
import numpy as np
set {scf_type pk
basis cc-pvdz
d_convergence 10
gdma_switch   0
gdma_limit    0
gdma_origin   [ 0.0,  0.0,  0.0 ]
}
molecule test {
    units Angstrom
    0 1
    --
    0 1
    C               -3.027049775304531    -0.345806887270713     0.571967527041011
    N               -2.118049775304531     0.822193112729287     0.950967527041011
    H               -2.325049775304531     1.653193112729287     0.412967527041011
    H               -2.240049775304531     1.059193112729287     1.928967527041011
    H               -1.130049775304531     0.578193112729287     0.833967527041011
    H               -4.070049775304531    -0.078806887270713     0.773967527041011
    H               -2.784049775304531    -1.225806887270713     1.175967527041011
    H               -2.935396855304531    -0.609308887270713    -0.492062472958989
    C                0.994950224695469    -1.250806887270713    -1.249032472958989
    C                1.391950224695469    -0.078806887270713    -0.384032472958989
    O                0.738950224695469     0.182193112729287     0.656967527041011
    O                2.403950224695469     0.558193112729287    -0.709032472958989
    H                0.821950224695469    -0.891806887270713    -2.265032472958989
    H                0.074950224695469    -1.667806887270713    -0.865032472958989
    H                1.758708224695469    -2.042401887270713    -1.256172472958989

}
e, wfn = energy('scf', return_wfn=True)
gdma(wfn)
dmavals = variable('DMA DISTRIBUTED MULTIPOLES')
charges = np.array(dmavals)
print(charges)
np.save('SSI-133LYS-136ASP-1-dimer.npy', np.array(charges))--------------------------------------------------------------------------

*** tstart() called on ds3
*** at Tue Apr 28 09:32:38 2020

   => Loading Basis Set <=

    Name: CC-PVDZ
    Role: ORBITAL
    Keyword: BASIS
    atoms 1, 9-10    entry C          line   138 file /theoryfs2/ds/metcalf/miniconda2/envs/tf2gpu/share/psi4/basis/cc-pvdz.gbs
    atoms 2          entry N          line   168 file /theoryfs2/ds/metcalf/miniconda2/envs/tf2gpu/share/psi4/basis/cc-pvdz.gbs
    atoms 3-8, 13-15 entry H          line    22 file /theoryfs2/ds/metcalf/miniconda2/envs/tf2gpu/share/psi4/basis/cc-pvdz.gbs
    atoms 11-12      entry O          line   198 file /theoryfs2/ds/metcalf/miniconda2/envs/tf2gpu/share/psi4/basis/cc-pvdz.gbs

         ---------------------------------------------------------
                                   SCF
               by Justin Turney, Rob Parrish, Andy Simmonett
                          and Daniel G. A. Smith
                              RHF Reference
                        1 Threads,    500 MiB Core
         ---------------------------------------------------------

  ==> Geometry <==

    Molecular point group: c1
    Full point group: C1

    Geometry (in Angstrom), charge = 0, multiplicity = 1:

       Center              X                  Y                   Z               Mass
    ------------   -----------------  -----------------  -----------------  -----------------
         C           -3.027049775305    -0.345806887271     0.571967527041    12.000000000000
         N           -2.118049775305     0.822193112729     0.950967527041    14.003074004430
         H           -2.325049775305     1.653193112729     0.412967527041     1.007825032230
         H           -2.240049775305     1.059193112729     1.928967527041     1.007825032230
         H           -1.130049775305     0.578193112729     0.833967527041     1.007825032230
         H           -4.070049775305    -0.078806887271     0.773967527041     1.007825032230
         H           -2.784049775305    -1.225806887271     1.175967527041     1.007825032230
         H           -2.935396855305    -0.609308887271    -0.492062472959     1.007825032230
         C            0.994950224695    -1.250806887271    -1.249032472959    12.000000000000
         C            1.391950224695    -0.078806887271    -0.384032472959    12.000000000000
         O            0.738950224695     0.182193112729     0.656967527041    15.994914619570
         O            2.403950224695     0.558193112729    -0.709032472959    15.994914619570
         H            0.821950224695    -0.891806887271    -2.265032472959     1.007825032230
         H            0.074950224695    -1.667806887271    -0.865032472959     1.007825032230
         H            1.758708224695    -2.042401887271    -1.256172472959     1.007825032230

  Running in c1 symmetry.

  Rotational constants: A =      0.20956  B =      0.04158  C =      0.03657 [cm^-1]
  Rotational constants: A =   6282.34561  B =   1246.42661  C =   1096.26194 [MHz]
  Nuclear repulsion =  235.446872943851844

  Charge       = 0
  Multiplicity = 1
  Electrons    = 50
  Nalpha       = 25
  Nbeta        = 25

  ==> Algorithm <==

  SCF Algorithm Type is PK.
  DIIS enabled.
  MOM disabled.
  Fractional occupation disabled.
  Guess Type is SAD.
  Energy threshold   = 1.00e-06
  Density threshold  = 1.00e-10
  Integral threshold = 0.00e+00

  ==> Primary Basis <==

  Basis Set: CC-PVDZ
    Blend: CC-PVDZ
    Number of shells: 63
    Number of basis function: 129
    Number of Cartesian functions: 135
    Spherical Harmonics?: true
    Max angular momentum: 2

  ==> Pre-Iterations <==

   -------------------------------------------------------
    Irrep   Nso     Nmo     Nalpha   Nbeta   Ndocc  Nsocc
   -------------------------------------------------------
     A        129     129       0       0       0       0
   -------------------------------------------------------
    Total     129     129      25      25      25       0
   -------------------------------------------------------

  ==> Integral Setup <==

  Using integral reordering PK algorithm.
  Sizing the integral batches needed.
  Building batch lookup table.
   Calculation information:
      Number of atoms:                  15
      Number of AO shells:              63
      Number of primitives:            177
      Number of atomic orbitals:       135
      Number of basis functions:       129

      Integral cutoff                 1.00e-12
      Number of threads:                 1

	Batch   1 pq = [       0,    8385] index = [             0,35158305] size =     35158305
  Task number: 4
  Buffer size: 11059200
  Buffer per thread: 2
  We computed 1759163 shell quartets total.
  Whereas there are 2033136 unique shell quartets.

  ==> DiskJK: Disk-Based J/K Matrices <==

    J tasked:                  Yes
    K tasked:                  Yes
    wK tasked:                  No
    Memory [MiB]:              375
    Schwarz Cutoff:          1E-12

    OpenMP threads:              1

  Minimum eigenvalue in the overlap matrix is 5.2327721054E-03.
  Using Symmetric Orthogonalization.

  SCF Guess: Superposition of Atomic Densities via on-the-fly atomic UHF.

  ==> Iterations <==

                        Total Energy        Delta E     RMS |[F,P]|

   @RHF iter SAD:  -321.66654117365647   -3.21667e+02   0.00000e+00
   @RHF iter   1:  -322.75918497211217   -1.09264e+00   5.26599e-03 DIIS
   @RHF iter   2:  -322.93370015846858   -1.74515e-01   2.96343e-03 DIIS
   @RHF iter   3:  -322.98506626226424   -5.13661e-02   4.86955e-04 DIIS
   @RHF iter   4:  -322.98772388771255   -2.65763e-03   1.70956e-04 DIIS
   @RHF iter   5:  -322.98805094181557   -3.27054e-04   3.68163e-05 DIIS
   @RHF iter   6:  -322.98807028382919   -1.93420e-05   1.98966e-05 DIIS
   @RHF iter   7:  -322.98807422478501   -3.94096e-06   4.95792e-06 DIIS
   @RHF iter   8:  -322.98807497414600   -7.49361e-07   2.12041e-06 DIIS
   @RHF iter   9:  -322.98807510138624   -1.27240e-07   4.79485e-07 DIIS
   @RHF iter  10:  -322.98807510735628   -5.97004e-09   1.53625e-07 DIIS
   @RHF iter  11:  -322.98807510770104   -3.44755e-10   4.02094e-08 DIIS
   @RHF iter  12:  -322.98807510773207   -3.10365e-11   9.94778e-09 DIIS
   @RHF iter  13:  -322.98807510773418   -2.10321e-12   3.03932e-09 DIIS
   @RHF iter  14:  -322.98807510773509   -9.09495e-13   1.10270e-09 DIIS
   @RHF iter  15:  -322.98807510773537   -2.84217e-13   4.09693e-10 DIIS
   @RHF iter  16:  -322.98807510773514    2.27374e-13   1.47468e-10 DIIS
   @RHF iter  17:  -322.98807510773537   -2.27374e-13   5.77611e-11 DIIS
  Energy and wave function converged.

  ==> Post-Iterations <==

    Orbital Energies [Eh]
    ---------------------

    Doubly Occupied:

       1A    -20.417333     2A    -20.390425     3A    -15.750959
       4A    -11.369257     5A    -11.253023     6A    -11.172937
       7A     -1.364344     8A     -1.295447     9A     -1.180175
      10A     -1.033603    11A     -0.926634    12A     -0.829570
      13A     -0.818732    14A     -0.717081    15A     -0.644797
      16A     -0.642346    17A     -0.633614    18A     -0.548617
      19A     -0.540177    20A     -0.539545    21A     -0.477374
      22A     -0.443885    23A     -0.333298    24A     -0.306769
      25A     -0.305279

    Virtual:

      26A      0.084589    27A      0.137445    28A      0.151271
      29A      0.183712    30A      0.200963    31A      0.231711
      32A      0.257642    33A      0.275177    34A      0.298641
      35A      0.334359    36A      0.360879    37A      0.452029
      38A      0.492611    39A      0.520457    40A      0.553069
      41A      0.578700    42A      0.618167    43A      0.654028
      44A      0.674591    45A      0.710826    46A      0.732803
      47A      0.770232    48A      0.777617    49A      0.787821
      50A      0.823381    51A      0.827049    52A      0.847702
      53A      0.899991    54A      0.903980    55A      0.911796
      56A      0.917685    57A      0.931777    58A      0.973871
      59A      0.991320    60A      1.011299    61A      1.059206
      62A      1.071113    63A      1.100985    64A      1.182264
      65A      1.218872    66A      1.221230    67A      1.311779
      68A      1.365983    69A      1.386099    70A      1.431176
      71A      1.445972    72A      1.476521    73A      1.490557
      74A      1.555008    75A      1.566680    76A      1.584040
      77A      1.599056    78A      1.641373    79A      1.715570
      80A      1.723016    81A      1.737218    82A      1.802883
      83A      1.832408    84A      1.837727    85A      1.852512
      86A      1.857013    87A      1.928582    88A      1.954189
      89A      1.979878    90A      1.987523    91A      2.055449
      92A      2.069366    93A      2.072929    94A      2.088713
      95A      2.090901    96A      2.178049    97A      2.189957
      98A      2.207405    99A      2.253930   100A      2.295201
     101A      2.318031   102A      2.373595   103A      2.396780
     104A      2.458540   105A      2.512392   106A      2.546883
     107A      2.589757   108A      2.599423   109A      2.614593
     110A      2.645304   111A      2.673991   112A      2.812230
     113A      2.833541   114A      2.846346   115A      2.851530
     116A      2.892670   117A      2.911895   118A      3.099003
     119A      3.129771   120A      3.155417   121A      3.207988
     122A      3.224885   123A      3.267454   124A      3.504365
     125A      3.638679   126A      3.695103   127A      3.938824
     128A      3.960487   129A      4.062591

    Final Occupation by Irrep:
              A
    DOCC [    25 ]

  @RHF Final Energy:  -322.98807510773537

   => Energetics <=

    Nuclear Repulsion Energy =            235.4468729438518437
    One-Electron Energy =                -908.9994552678623450
    Two-Electron Energy =                 350.5645072162751035
    Total Energy =                       -322.9880751077353693

Computation Completed

Properties will be evaluated at   0.000000,   0.000000,   0.000000 [a0]

Properties computed using the SCF density matrix

  Nuclear Dipole Moment: [e a0]
     X:   -12.0056      Y:    -3.0225      Z:     0.2290

  Electronic Dipole Moment: [e a0]
     X:     5.8011      Y:     3.1469      Z:     0.9436

  Dipole Moment: [e a0]
     X:    -6.2045      Y:     0.1244      Z:     1.1727     Total:     6.3156

  Dipole Moment: [D]
     X:   -15.7703      Y:     0.3161      Z:     2.9806     Total:    16.0526

*** tstop() called on ds3 at Tue Apr 28 09:32:57 2020
Module time:
	user time   =      13.44 seconds =       0.22 minutes
	system time =       5.39 seconds =       0.09 minutes
	total time  =         19 seconds =       0.32 minutes
Total time:
	user time   =      13.44 seconds =       0.22 minutes
	system time =       5.39 seconds =       0.09 minutes
	total time  =         19 seconds =       0.32 minutes
                                     G D M A

                                 by Anthony Stone

                           version 2.2.06, 22 June 2011

               Distributed Multipoles from Gaussian wavefunctions

Starting at 9:32:57 on 28 Apr 2020

Using SCF density matrix from file ./SSI/SSI-133LYS-136ASP-1-dimer.test.10745.fchk

                         Distributed Multipole Analysis

Standard DMA

Positions and radii in angstrom
Multipole moments in atomic units, ea_0^k for rank k

C          x = -3.027050  y = -0.345807  z =  0.571968 angstrom
           Maximum rank =  0   Radius =  0.650 angstrom
                   Q00  =  -0.132353

N          x = -2.118050  y =  0.822193  z =  0.950968 angstrom
           Maximum rank =  0   Radius =  0.650 angstrom
                   Q00  =  -0.130631

H          x = -2.325050  y =  1.653193  z =  0.412968 angstrom
           Maximum rank =  0   Radius =  0.325 angstrom
                   Q00  =   0.238374

H          x = -2.240050  y =  1.059193  z =  1.928968 angstrom
           Maximum rank =  0   Radius =  0.325 angstrom
                   Q00  =   0.232291

H          x = -1.130050  y =  0.578193  z =  0.833968 angstrom
           Maximum rank =  0   Radius =  0.325 angstrom
                   Q00  =   0.319280

H          x = -4.070050  y = -0.078807  z =  0.773968 angstrom
           Maximum rank =  0   Radius =  0.325 angstrom
                   Q00  =   0.130021

H          x = -2.784050  y = -1.225807  z =  1.175968 angstrom
           Maximum rank =  0   Radius =  0.325 angstrom
                   Q00  =   0.160272

H          x = -2.935397  y = -0.609309  z = -0.492062 angstrom
           Maximum rank =  0   Radius =  0.325 angstrom
                   Q00  =   0.161631

C          x =  0.994950  y = -1.250807  z = -1.249032 angstrom
           Maximum rank =  0   Radius =  0.650 angstrom
                   Q00  =  -0.278642

C          x =  1.391950  y = -0.078807  z = -0.384032 angstrom
           Maximum rank =  0   Radius =  0.650 angstrom
                   Q00  =   0.937403

O          x =  0.738950  y =  0.182193  z =  0.656968 angstrom
           Maximum rank =  0   Radius =  0.650 angstrom
                   Q00  =  -1.005992

O          x =  2.403950  y =  0.558193  z = -0.709032 angstrom
           Maximum rank =  0   Radius =  0.650 angstrom
                   Q00  =  -0.858261

H          x =  0.821950  y = -0.891807  z = -2.265032 angstrom
           Maximum rank =  0   Radius =  0.325 angstrom
                   Q00  =   0.089619

H          x =  0.074950  y = -1.667807  z = -0.865032 angstrom
           Maximum rank =  0   Radius =  0.325 angstrom
                   Q00  =   0.022361

H          x =  1.758708  y = -2.042402  z = -1.256172 angstrom
           Maximum rank =  0   Radius =  0.325 angstrom
                   Q00  =   0.114628

Total multipoles referred to origin at
           x =   0.000000,  y =    0.000000,  z =    0.000000 angstrom
                   Q00  =  -0.000000

Finished at 9:32:57 on 28 Apr 2020

  DMA results are available in the Python driver through the
	  variable('DMA DISTRIBUTED MULTIPOLES')
  and
	  variable('DMA TOTAL MULTIPOLES')
  commands.

    Psi4 stopped on: Tuesday, 28 April 2020 09:32AM
    Psi4 wall time for execution: 0:00:19.85

*** Psi4 exiting successfully. Buy a developer a beer!
