                               Psi4 1.3.2 release

  ==> Input File <==

--------------------------------------------------------------------------
import numpy as np
set {scf_type pk
basis cc-pvdz
d_convergence 10
gdma_switch   0
gdma_limit    0
gdma_origin   [ 0.0,  0.0,  0.0 ]
}
molecule test {
    units Angstrom
    1 1
    --
    1 1
    C                0.391368840158789    -1.792347966584890     0.229713717042481
    C               -0.134631159841211    -3.094347966584889    -0.248286282957519
    C                0.162368840158789    -0.685347966584890    -0.728286282957519
    C               -1.123631159841211    -0.184347966584890    -0.954286282957519
    C                1.230368840158789    -0.149347966584890    -1.414286282957519
    C               -1.337631159841211     0.866652033415110    -1.842286282957519
    C                1.020368840158789     0.899652033415110    -2.300286282957519
    C               -0.265631159841211     1.420652033415110    -2.498286282957519
    H               -0.122631159841211    -1.545347966584890     1.157713717042481
    H                1.456368840158789    -1.879347966584890     0.447713717042481
    H               -1.190631159841211    -2.963347966584890    -0.489286282957519
    H               -1.967631159841211    -0.610347966584890    -0.429286282957519
    H                2.227368840158789    -0.531347966584890    -1.249286282957519
    H               -2.334631159841211     1.252652033415111    -2.004286282957519
    H                1.858368840158789     1.338652033415110    -2.823286282957519
    H               -0.414631159841211     2.246652033415111    -3.178286282957519
    H               -0.043893159841211    -3.842367266584890     0.553108717042481
    H                0.371747840158789    -3.422556966584890    -1.167992282957519
    C                0.527368840158789     0.682652033415110     2.838713717042481
    C                0.466368840158789     1.869652033415110     1.896713717042481
    N               -0.801631159841211     0.294652033415110     3.406713717042481
    H                0.968368840158789    -0.166347966584890     2.306713717042481
    H                1.210368840158789     0.935652033415110     3.657713717042481
    H                0.130368840158789     2.757652033415110     2.437713717042481
    H               -0.238631159841211     1.656652033415111     1.089713717042481
    H               -1.472631159841211     0.060652033415110     2.683713717042481
    H               -0.720631159841211    -0.501347966584890     4.029713717042481
    H               -1.199631159841211     1.054652033415110     3.948713717042481
    H                1.467768510158789     2.047390033415110     1.477657717042481

}
e, wfn = energy('scf', return_wfn=True)
gdma(wfn)
dmavals = variable('DMA DISTRIBUTED MULTIPOLES')
charges = np.array(dmavals)
print(charges)
np.save('SSI-041PHE-094LYS-1-dimer.npy', np.array(charges))--------------------------------------------------------------------------

*** tstart() called on ds3
*** at Sun Apr 26 17:46:44 2020

   => Loading Basis Set <=

    Name: CC-PVDZ
    Role: ORBITAL
    Keyword: BASIS
    atoms 1-8, 19-20  entry C          line   138 file /theoryfs2/ds/metcalf/miniconda2/envs/tf2gpu/share/psi4/basis/cc-pvdz.gbs
    atoms 9-18, 22-29 entry H          line    22 file /theoryfs2/ds/metcalf/miniconda2/envs/tf2gpu/share/psi4/basis/cc-pvdz.gbs
    atoms 21          entry N          line   168 file /theoryfs2/ds/metcalf/miniconda2/envs/tf2gpu/share/psi4/basis/cc-pvdz.gbs

         ---------------------------------------------------------
                                   SCF
               by Justin Turney, Rob Parrish, Andy Simmonett
                          and Daniel G. A. Smith
                              RHF Reference
                        1 Threads,    500 MiB Core
         ---------------------------------------------------------

  ==> Geometry <==

    Molecular point group: c1
    Full point group: C1

    Geometry (in Angstrom), charge = 1, multiplicity = 1:

       Center              X                  Y                   Z               Mass
    ------------   -----------------  -----------------  -----------------  -----------------
         C            0.391368840159    -1.792347966585     0.229713717042    12.000000000000
         C           -0.134631159841    -3.094347966585    -0.248286282958    12.000000000000
         C            0.162368840159    -0.685347966585    -0.728286282958    12.000000000000
         C           -1.123631159841    -0.184347966585    -0.954286282958    12.000000000000
         C            1.230368840159    -0.149347966585    -1.414286282958    12.000000000000
         C           -1.337631159841     0.866652033415    -1.842286282958    12.000000000000
         C            1.020368840159     0.899652033415    -2.300286282958    12.000000000000
         C           -0.265631159841     1.420652033415    -2.498286282958    12.000000000000
         H           -0.122631159841    -1.545347966585     1.157713717042     1.007825032230
         H            1.456368840159    -1.879347966585     0.447713717042     1.007825032230
         H           -1.190631159841    -2.963347966585    -0.489286282958     1.007825032230
         H           -1.967631159841    -0.610347966585    -0.429286282958     1.007825032230
         H            2.227368840159    -0.531347966585    -1.249286282958     1.007825032230
         H           -2.334631159841     1.252652033415    -2.004286282958     1.007825032230
         H            1.858368840159     1.338652033415    -2.823286282958     1.007825032230
         H           -0.414631159841     2.246652033415    -3.178286282958     1.007825032230
         H           -0.043893159841    -3.842367266585     0.553108717042     1.007825032230
         H            0.371747840159    -3.422556966585    -1.167992282958     1.007825032230
         C            0.527368840159     0.682652033415     2.838713717042    12.000000000000
         C            0.466368840159     1.869652033415     1.896713717042    12.000000000000
         N           -0.801631159841     0.294652033415     3.406713717042    14.003074004430
         H            0.968368840159    -0.166347966585     2.306713717042     1.007825032230
         H            1.210368840159     0.935652033415     3.657713717042     1.007825032230
         H            0.130368840159     2.757652033415     2.437713717042     1.007825032230
         H           -0.238631159841     1.656652033415     1.089713717042     1.007825032230
         H           -1.472631159841     0.060652033415     2.683713717042     1.007825032230
         H           -0.720631159841    -0.501347966585     4.029713717042     1.007825032230
         H           -1.199631159841     1.054652033415     3.948713717042     1.007825032230
         H            1.467768510159     2.047390033415     1.477657717042     1.007825032230

  Running in c1 symmetry.

  Rotational constants: A =      0.03882  B =      0.02291  C =      0.01796 [cm^-1]
  Rotational constants: A =   1163.84270  B =    686.78147  C =    538.46344 [MHz]
  Nuclear repulsion =  613.930211176209923

  Charge       = 1
  Multiplicity = 1
  Electrons    = 84
  Nalpha       = 42
  Nbeta        = 42

  ==> Algorithm <==

  SCF Algorithm Type is PK.
  DIIS enabled.
  MOM disabled.
  Fractional occupation disabled.
  Guess Type is SAD.
  Energy threshold   = 1.00e-06
  Density threshold  = 1.00e-10
  Integral threshold = 0.00e+00

  ==> Primary Basis <==

  Basis Set: CC-PVDZ
    Blend: CC-PVDZ
    Number of shells: 120
    Number of basis function: 244
    Number of Cartesian functions: 255
    Spherical Harmonics?: true
    Max angular momentum: 2

  ==> Pre-Iterations <==

   -------------------------------------------------------
    Irrep   Nso     Nmo     Nalpha   Nbeta   Ndocc  Nsocc
   -------------------------------------------------------
     A        244     244       0       0       0       0
   -------------------------------------------------------
    Total     244     244      42      42      42       0
   -------------------------------------------------------

  ==> Integral Setup <==

  Using integral reordering PK algorithm.
  Sizing the integral batches needed.
  Building batch lookup table.
   Calculation information:
      Number of atoms:                  29
      Number of AO shells:             120
      Number of primitives:            332
      Number of atomic orbitals:       255
      Number of basis functions:       244

      Integral cutoff                 1.00e-12
      Number of threads:                 1

	Batch   1 pq = [       0,    9405] index = [             0,44231715] size =     44231715
	Batch   2 pq = [    9405,   13301] index = [      44231715,88464951] size =     44233236
	Batch   3 pq = [   13301,   16290] index = [      88464951,132690195] size =     44225244
	Batch   4 pq = [   16290,   18810] index = [     132690195,176917455] size =     44227260
	Batch   5 pq = [   18810,   21030] index = [     176917455,221140965] size =     44223510
	Batch   6 pq = [   21030,   23037] index = [     221140965,265363203] size =     44222238
	Batch   7 pq = [   23037,   24883] index = [     265363203,309594286] size =     44231083
	Batch   8 pq = [   24883,   26601] index = [     309594286,353819901] size =     44225615
	Batch   9 pq = [   26601,   28214] index = [     353819901,398029005] size =     44209104
	Batch  10 pq = [   28214,   29740] index = [     398029005,442248670] size =     44219665
	Batch  11 pq = [   29740,   29890] index = [     442248670,446720995] size =      4472325
  Task number: 41
  Buffer size: 11059200
  Buffer per thread: 2
  We computed 29120170 shell quartets total.
  Whereas there are 26357430 unique shell quartets.
    10.48 percent of shell quartets recomputed by reordering.

  ==> DiskJK: Disk-Based J/K Matrices <==

    J tasked:                  Yes
    K tasked:                  Yes
    wK tasked:                  No
    Memory [MiB]:              375
    Schwarz Cutoff:          1E-12

    OpenMP threads:              1

  Minimum eigenvalue in the overlap matrix is 3.0276539430E-04.
  Using Symmetric Orthogonalization.

  SCF Guess: Superposition of Atomic Densities via on-the-fly atomic UHF.

  ==> Iterations <==

                        Total Energy        Delta E     RMS |[F,P]|

   @RHF iter SAD:  -442.92283136192123   -4.42923e+02   0.00000e+00
   @RHF iter   1:  -443.15181889659118   -2.28988e-01   2.53760e-03 DIIS
   @RHF iter   2:  -443.39084613647776   -2.39027e-01   9.90616e-04 DIIS
   @RHF iter   3:  -443.42348254282496   -3.26364e-02   2.55473e-04 DIIS
   @RHF iter   4:  -443.42681527554021   -3.33273e-03   5.59667e-05 DIIS
   @RHF iter   5:  -443.42693707032583   -1.21795e-04   2.28082e-05 DIIS
   @RHF iter   6:  -443.42695720525256   -2.01349e-05   4.75349e-06 DIIS
   @RHF iter   7:  -443.42695849815698   -1.29290e-06   1.72032e-06 DIIS
   @RHF iter   8:  -443.42695866274863   -1.64592e-07   5.19432e-07 DIIS
   @RHF iter   9:  -443.42695869279549   -3.00469e-08   2.21346e-07 DIIS
   @RHF iter  10:  -443.42695869978672   -6.99123e-09   1.22811e-07 DIIS
   @RHF iter  11:  -443.42695870197281   -2.18608e-09   5.11192e-08 DIIS
   @RHF iter  12:  -443.42695870240317   -4.30362e-10   1.74098e-08 DIIS
   @RHF iter  13:  -443.42695870242608   -2.29079e-11   5.66508e-09 DIIS
   @RHF iter  14:  -443.42695870243267   -6.59384e-12   1.35117e-09 DIIS
   @RHF iter  15:  -443.42695870242892    3.75167e-12   4.91367e-10 DIIS
   @RHF iter  16:  -443.42695870242716    1.76215e-12   2.10045e-10 DIIS
   @RHF iter  17:  -443.42695870243318   -6.02540e-12   9.12561e-11 DIIS
  Energy and wave function converged.

  ==> Post-Iterations <==

    Orbital Energies [Eh]
    ---------------------

    Doubly Occupied:

       1A    -15.899277     2A    -11.470605     3A    -11.390932
       4A    -11.344446     5A    -11.343159     6A    -11.339765
       7A    -11.338076     8A    -11.336989     9A    -11.332896
      10A    -11.330513    11A    -11.322317    12A     -1.516538
      13A     -1.266301    14A     -1.211853    15A     -1.183744
      16A     -1.118651    17A     -1.091512    18A     -1.044553
      19A     -0.974867    20A     -0.968576    21A     -0.961535
      22A     -0.931443    23A     -0.892787    24A     -0.853434
      25A     -0.799067    26A     -0.787665    27A     -0.754372
      28A     -0.741782    29A     -0.711835    30A     -0.704628
      31A     -0.692938    32A     -0.689808    33A     -0.683774
      34A     -0.673079    35A     -0.652981    36A     -0.624410
      37A     -0.604217    38A     -0.589857    39A     -0.582840
      40A     -0.575724    41A     -0.439489    42A     -0.427645

    Virtual:

      43A     -0.046630    44A      0.009824    45A      0.023105
      46A      0.037635    47A      0.038324    48A      0.047370
      49A      0.087884    50A      0.092207    51A      0.097331
      52A      0.110220    53A      0.121664    54A      0.131142
      55A      0.138186    56A      0.149822    57A      0.156244
      58A      0.159156    59A      0.172271    60A      0.179629
      61A      0.182606    62A      0.202920    63A      0.214978
      64A      0.222664    65A      0.253216    66A      0.288934
      67A      0.307791    68A      0.352936    69A      0.366812
      70A      0.383820    71A      0.384403    72A      0.400232
      73A      0.414230    74A      0.429599    75A      0.444380
      76A      0.465504    77A      0.475057    78A      0.505817
      79A      0.512503    80A      0.525954    81A      0.564130
      82A      0.584776    83A      0.586465    84A      0.606495
      85A      0.615584    86A      0.621260    87A      0.634916
      88A      0.643106    89A      0.646183    90A      0.650033
      91A      0.653783    92A      0.663652    93A      0.667688
      94A      0.682921    95A      0.703631    96A      0.708354
      97A      0.726590    98A      0.729435    99A      0.740210
     100A      0.744632   101A      0.755051   102A      0.774099
     103A      0.780370   104A      0.785494   105A      0.796062
     106A      0.799220   107A      0.804312   108A      0.808358
     109A      0.811110   110A      0.829401   111A      0.830144
     112A      0.847468   113A      0.859044   114A      0.873917
     115A      0.879474   116A      0.898693   117A      0.913574
     118A      0.916753   119A      0.943535   120A      0.960206
     121A      0.978000   122A      0.984201   123A      1.026513
     124A      1.039804   125A      1.048019   126A      1.051441
     127A      1.082645   128A      1.097696   129A      1.129989
     130A      1.144260   131A      1.150976   132A      1.168062
     133A      1.191886   134A      1.198004   135A      1.210313
     136A      1.218003   137A      1.221840   138A      1.275970
     139A      1.279451   140A      1.332645   141A      1.341445
     142A      1.346623   143A      1.399597   144A      1.425660
     145A      1.437642   146A      1.472729   147A      1.487362
     148A      1.492314   149A      1.517081   150A      1.534836
     151A      1.573621   152A      1.580669   153A      1.599909
     154A      1.618319   155A      1.640782   156A      1.661173
     157A      1.665841   158A      1.679607   159A      1.705741
     160A      1.717095   161A      1.739306   162A      1.743824
     163A      1.750139   164A      1.773005   165A      1.780314
     166A      1.784794   167A      1.793428   168A      1.795898
     169A      1.798583   170A      1.807672   171A      1.825422
     172A      1.833959   173A      1.838163   174A      1.845061
     175A      1.849300   176A      1.857076   177A      1.861641
     178A      1.867156   179A      1.891775   180A      1.896165
     181A      1.910369   182A      1.920544   183A      1.928039
     184A      1.942641   185A      1.949683   186A      1.963037
     187A      1.980890   188A      1.989501   189A      2.004646
     190A      2.009387   191A      2.019114   192A      2.050612
     193A      2.060074   194A      2.069351   195A      2.078386
     196A      2.083814   197A      2.093578   198A      2.138187
     199A      2.145086   200A      2.159958   201A      2.174883
     202A      2.176760   203A      2.190931   204A      2.210768
     205A      2.225332   206A      2.246625   207A      2.281316
     208A      2.327537   209A      2.336931   210A      2.356326
     211A      2.382360   212A      2.392830   213A      2.398833
     214A      2.436395   215A      2.447521   216A      2.450685
     217A      2.495116   218A      2.531427   219A      2.542379
     220A      2.560919   221A      2.618344   222A      2.640202
     223A      2.652605   224A      2.671323   225A      2.678260
     226A      2.691136   227A      2.700862   228A      2.711627
     229A      2.747566   230A      2.747972   231A      2.778239
     232A      2.796661   233A      2.822783   234A      2.859921
     235A      2.878840   236A      2.908620   237A      2.948714
     238A      2.968674   239A      3.096534   240A      3.115826
     241A      3.120447   242A      3.129450   243A      3.219571
     244A      3.886263

    Final Occupation by Irrep:
              A
    DOCC [    42 ]

  @RHF Final Energy:  -443.42695870243318

   => Energetics <=

    Nuclear Repulsion Energy =            613.9302111762099230
    One-Electron Energy =               -1804.3125775705291289
    Two-Electron Energy =                 746.9554076918859664
    Total Energy =                       -443.4269587024332395

Computation Completed

Properties will be evaluated at   0.000000,   0.000000,   0.000000 [a0]

Properties computed using the SCF density matrix

  Nuclear Dipole Moment: [e a0]
     X:    -0.0116      Y:    -1.9806      Z:    11.6602

  Electronic Dipole Moment: [e a0]
     X:    -0.8632      Y:     2.7494      Z:    -6.3121

  Dipole Moment: [e a0]
     X:    -0.8748      Y:     0.7688      Z:     5.3481     Total:     5.4734

  Dipole Moment: [D]
     X:    -2.2236      Y:     1.9542      Z:    13.5934     Total:    13.9120

*** tstop() called on ds3 at Sun Apr 26 17:51:03 2020
Module time:
	user time   =     195.82 seconds =       3.26 minutes
	system time =      71.24 seconds =       1.19 minutes
	total time  =        259 seconds =       4.32 minutes
Total time:
	user time   =     195.82 seconds =       3.26 minutes
	system time =      71.24 seconds =       1.19 minutes
	total time  =        259 seconds =       4.32 minutes
                                     G D M A

                                 by Anthony Stone

                           version 2.2.06, 22 June 2011

               Distributed Multipoles from Gaussian wavefunctions

Starting at 17:51:3 on 26 Apr 2020

Using SCF density matrix from file ./SSI/SSI-041PHE-094LYS-1-dimer.test.13778.fchk

                         Distributed Multipole Analysis

Standard DMA

Positions and radii in angstrom
Multipole moments in atomic units, ea_0^k for rank k

C          x =  0.391369  y = -1.792348  z =  0.229714 angstrom
           Maximum rank =  0   Radius =  0.650 angstrom
                   Q00  =  -0.007035

C          x = -0.134631  y = -3.094348  z = -0.248286 angstrom
           Maximum rank =  0   Radius =  0.650 angstrom
                   Q00  =  -0.209794

C          x =  0.162369  y = -0.685348  z = -0.728286 angstrom
           Maximum rank =  0   Radius =  0.650 angstrom
                   Q00  =  -0.118732

C          x = -1.123631  y = -0.184348  z = -0.954286 angstrom
           Maximum rank =  0   Radius =  0.650 angstrom
                   Q00  =  -0.044133

C          x =  1.230369  y = -0.149348  z = -1.414286 angstrom
           Maximum rank =  0   Radius =  0.650 angstrom
                   Q00  =  -0.085181

C          x = -1.337631  y =  0.866652  z = -1.842286 angstrom
           Maximum rank =  0   Radius =  0.650 angstrom
                   Q00  =  -0.067114

C          x =  1.020369  y =  0.899652  z = -2.300286 angstrom
           Maximum rank =  0   Radius =  0.650 angstrom
                   Q00  =  -0.047744

C          x = -0.265631  y =  1.420652  z = -2.498286 angstrom
           Maximum rank =  0   Radius =  0.650 angstrom
                   Q00  =  -0.082143

H          x = -0.122631  y = -1.545348  z =  1.157714 angstrom
           Maximum rank =  0   Radius =  0.325 angstrom
                   Q00  =  -0.037863

H          x =  1.456369  y = -1.879348  z =  0.447714 angstrom
           Maximum rank =  0   Radius =  0.325 angstrom
                   Q00  =   0.069769

H          x = -1.190631  y = -2.963348  z = -0.489286 angstrom
           Maximum rank =  0   Radius =  0.325 angstrom
                   Q00  =   0.082497

H          x = -1.967631  y = -0.610348  z = -0.429286 angstrom
           Maximum rank =  0   Radius =  0.325 angstrom
                   Q00  =   0.041201

H          x =  2.227369  y = -0.531348  z = -1.249286 angstrom
           Maximum rank =  0   Radius =  0.325 angstrom
                   Q00  =   0.066259

H          x = -2.334631  y =  1.252652  z = -2.004286 angstrom
           Maximum rank =  0   Radius =  0.325 angstrom
                   Q00  =   0.079925

H          x =  1.858369  y =  1.338652  z = -2.823286 angstrom
           Maximum rank =  0   Radius =  0.325 angstrom
                   Q00  =   0.085429

H          x = -0.414631  y =  2.246652  z = -3.178286 angstrom
           Maximum rank =  0   Radius =  0.325 angstrom
                   Q00  =   0.082579

H          x = -0.043893  y = -3.842367  z =  0.553109 angstrom
           Maximum rank =  0   Radius =  0.325 angstrom
                   Q00  =   0.085277

H          x =  0.371748  y = -3.422557  z = -1.167992 angstrom
           Maximum rank =  0   Radius =  0.325 angstrom
                   Q00  =   0.106946

C          x =  0.527369  y =  0.682652  z =  2.838714 angstrom
           Maximum rank =  0   Radius =  0.650 angstrom
                   Q00  =  -0.049822

C          x =  0.466369  y =  1.869652  z =  1.896714 angstrom
           Maximum rank =  0   Radius =  0.650 angstrom
                   Q00  =  -0.212974

N          x = -0.801631  y =  0.294652  z =  3.406714 angstrom
           Maximum rank =  0   Radius =  0.650 angstrom
                   Q00  =  -0.135776

H          x =  0.968369  y = -0.166348  z =  2.306714 angstrom
           Maximum rank =  0   Radius =  0.325 angstrom
                   Q00  =   0.137864

H          x =  1.210369  y =  0.935652  z =  3.657714 angstrom
           Maximum rank =  0   Radius =  0.325 angstrom
                   Q00  =   0.123238

H          x =  0.130369  y =  2.757652  z =  2.437714 angstrom
           Maximum rank =  0   Radius =  0.325 angstrom
                   Q00  =   0.097450

H          x = -0.238631  y =  1.656652  z =  1.089714 angstrom
           Maximum rank =  0   Radius =  0.325 angstrom
                   Q00  =   0.116950

H          x = -1.472631  y =  0.060652  z =  2.683714 angstrom
           Maximum rank =  0   Radius =  0.325 angstrom
                   Q00  =   0.259470

H          x = -0.720631  y = -0.501348  z =  4.029714 angstrom
           Maximum rank =  0   Radius =  0.325 angstrom
                   Q00  =   0.259018

H          x = -1.199631  y =  1.054652  z =  3.948714 angstrom
           Maximum rank =  0   Radius =  0.325 angstrom
                   Q00  =   0.252955

H          x =  1.467769  y =  2.047390  z =  1.477658 angstrom
           Maximum rank =  0   Radius =  0.325 angstrom
                   Q00  =   0.151486

Total multipoles referred to origin at
           x =   0.000000,  y =    0.000000,  z =    0.000000 angstrom
                   Q00  =   1.000000

Finished at 17:51:3 on 26 Apr 2020

  DMA results are available in the Python driver through the
	  variable('DMA DISTRIBUTED MULTIPOLES')
  and
	  variable('DMA TOTAL MULTIPOLES')
  commands.

    Psi4 stopped on: Sunday, 26 April 2020 05:51PM
    Psi4 wall time for execution: 0:04:18.37

*** Psi4 exiting successfully. Buy a developer a beer!
