                               Psi4 1.3.2 release

  ==> Input File <==

--------------------------------------------------------------------------
import numpy as np
set {scf_type pk
basis cc-pvdz
d_convergence 10
gdma_switch   0
gdma_limit    0
gdma_origin   [ 0.0,  0.0,  0.0 ]
}
molecule test {
    units Angstrom
    0 1
    --
    0 1
    C               -0.080691239127903     0.675301649345513    -2.062928664413417
    C                0.314308760872097     1.849301649345513    -2.965928664413417
    C               -1.549691239127903     0.669301649345513    -1.707928664413417
    C               -1.988691239127903     1.334301649345512    -0.570928664413417
    C               -2.484691239127903     0.047301649345513    -2.543928664413417
    C               -3.346691239127903     1.383301649345513    -0.266928664413417
    C               -3.856691239127903     0.131301649345513    -2.248928664413417
    C               -4.276691239127903     0.785301649345513    -1.098928664413417
    H                0.174308760872097    -0.266698350654487    -2.551928664413417
    H                0.504308760872097     0.750301649345513    -1.149928664413417
    H                0.089308760872097     2.771301649345512    -2.429928664413417
    H               -1.278691239127903     1.812301649345513     0.088071335586583
    H               -2.160691239127903    -0.471698350654487    -3.433928664413417
    H               -3.678691239127903     1.900301649345513     0.623071335586583
    H               -4.579691239127904    -0.317698350654487    -2.914928664413417
    H               -5.330691239127903     0.838301649345513    -0.858928664413417
    H               -0.250401239127903     1.795233649345513    -3.908358664413417
    H                1.388698760872097     1.831091649345512    -3.201198664413417
    C                3.351308760872097     0.965301649345513     3.010071335586583
    C                1.346308760872097    -1.293698350654487     0.719071335586583
    C                1.903308760872097    -0.131698350654487     1.302071335586583
    C                1.708308760872097    -2.541698350654487     1.196071335586583
    C                2.763308760872097    -0.235698350654487     2.378071335586583
    C                2.612308760872097    -2.624698350654488     2.231071335586583
    C                3.117308760872097    -1.475698350654487     2.828071335586583
    H                0.640308760872097    -1.221698350654487    -0.094928664413417
    H                1.626308760872097     0.842301649345513     0.925071335586583
    H                1.298308760872097    -3.436698350654488     0.751071335586583
    H                2.902308760872097    -3.597698350654488     2.601071335586583
    H                3.243308760872097     0.894301649345513     4.093071335586583
    H                2.774308760872097     1.831301649345513     2.686071335586583
    H                3.792308760872097    -1.565698350654487     3.665071335586583
    H                4.409948760872096     1.117763649345513     2.753101335586583

}
e, wfn = energy('scf', return_wfn=True)
gdma(wfn)
dmavals = variable('DMA DISTRIBUTED MULTIPOLES')
charges = np.array(dmavals)
print(charges)
np.save('SSI-052PHE-071PHE-1-dimer.npy', np.array(charges))--------------------------------------------------------------------------

*** tstart() called on ds3
*** at Sun Apr 26 21:05:31 2020

   => Loading Basis Set <=

    Name: CC-PVDZ
    Role: ORBITAL
    Keyword: BASIS
    atoms 1-8, 19-25  entry C          line   138 file /theoryfs2/ds/metcalf/miniconda2/envs/tf2gpu/share/psi4/basis/cc-pvdz.gbs
    atoms 9-18, 26-33 entry H          line    22 file /theoryfs2/ds/metcalf/miniconda2/envs/tf2gpu/share/psi4/basis/cc-pvdz.gbs

         ---------------------------------------------------------
                                   SCF
               by Justin Turney, Rob Parrish, Andy Simmonett
                          and Daniel G. A. Smith
                              RHF Reference
                        1 Threads,    500 MiB Core
         ---------------------------------------------------------

  ==> Geometry <==

    Molecular point group: c1
    Full point group: C1

    Geometry (in Angstrom), charge = 0, multiplicity = 1:

       Center              X                  Y                   Z               Mass
    ------------   -----------------  -----------------  -----------------  -----------------
         C           -0.080691239128     0.675301649346    -2.062928664413    12.000000000000
         C            0.314308760872     1.849301649346    -2.965928664413    12.000000000000
         C           -1.549691239128     0.669301649346    -1.707928664413    12.000000000000
         C           -1.988691239128     1.334301649346    -0.570928664413    12.000000000000
         C           -2.484691239128     0.047301649346    -2.543928664413    12.000000000000
         C           -3.346691239128     1.383301649346    -0.266928664413    12.000000000000
         C           -3.856691239128     0.131301649346    -2.248928664413    12.000000000000
         C           -4.276691239128     0.785301649346    -1.098928664413    12.000000000000
         H            0.174308760872    -0.266698350654    -2.551928664413     1.007825032230
         H            0.504308760872     0.750301649346    -1.149928664413     1.007825032230
         H            0.089308760872     2.771301649346    -2.429928664413     1.007825032230
         H           -1.278691239128     1.812301649346     0.088071335587     1.007825032230
         H           -2.160691239128    -0.471698350654    -3.433928664413     1.007825032230
         H           -3.678691239128     1.900301649346     0.623071335587     1.007825032230
         H           -4.579691239128    -0.317698350654    -2.914928664413     1.007825032230
         H           -5.330691239128     0.838301649346    -0.858928664413     1.007825032230
         H           -0.250401239128     1.795233649346    -3.908358664413     1.007825032230
         H            1.388698760872     1.831091649346    -3.201198664413     1.007825032230
         C            3.351308760872     0.965301649346     3.010071335587    12.000000000000
         C            1.346308760872    -1.293698350654     0.719071335587    12.000000000000
         C            1.903308760872    -0.131698350654     1.302071335587    12.000000000000
         C            1.708308760872    -2.541698350654     1.196071335587    12.000000000000
         C            2.763308760872    -0.235698350654     2.378071335587    12.000000000000
         C            2.612308760872    -2.624698350654     2.231071335587    12.000000000000
         C            3.117308760872    -1.475698350654     2.828071335587    12.000000000000
         H            0.640308760872    -1.221698350654    -0.094928664413     1.007825032230
         H            1.626308760872     0.842301649346     0.925071335587     1.007825032230
         H            1.298308760872    -3.436698350654     0.751071335587     1.007825032230
         H            2.902308760872    -3.597698350654     2.601071335587     1.007825032230
         H            3.243308760872     0.894301649346     4.093071335587     1.007825032230
         H            2.774308760872     1.831301649346     2.686071335587     1.007825032230
         H            3.792308760872    -1.565698350654     3.665071335587     1.007825032230
         H            4.409948760872     1.117763649346     2.753101335587     1.007825032230

  Running in c1 symmetry.

  Rotational constants: A =      0.03268  B =      0.00740  C =      0.00720 [cm^-1]
  Rotational constants: A =    979.73193  B =    221.86326  C =    215.88757 [MHz]
  Nuclear repulsion =  858.795500357224682

  Charge       = 0
  Multiplicity = 1
  Electrons    = 108
  Nalpha       = 54
  Nbeta        = 54

  ==> Algorithm <==

  SCF Algorithm Type is PK.
  DIIS enabled.
  MOM disabled.
  Fractional occupation disabled.
  Guess Type is SAD.
  Energy threshold   = 1.00e-06
  Density threshold  = 1.00e-10
  Integral threshold = 0.00e+00

  ==> Primary Basis <==

  Basis Set: CC-PVDZ
    Blend: CC-PVDZ
    Number of shells: 144
    Number of basis function: 300
    Number of Cartesian functions: 315
    Spherical Harmonics?: true
    Max angular momentum: 2

  ==> Pre-Iterations <==

   -------------------------------------------------------
    Irrep   Nso     Nmo     Nalpha   Nbeta   Ndocc  Nsocc
   -------------------------------------------------------
     A        300     300       0       0       0       0
   -------------------------------------------------------
    Total     300     300      54      54      54       0
   -------------------------------------------------------

  ==> Integral Setup <==

  Using integral reordering PK algorithm.
  Sizing the integral batches needed.
  Building batch lookup table.
   Calculation information:
      Number of atoms:                  33
      Number of AO shells:             144
      Number of primitives:            420
      Number of atomic orbitals:       315
      Number of basis functions:       300

      Integral cutoff                 1.00e-12
      Number of threads:                 1

	Batch   1 pq = [       0,    9405] index = [             0,44231715] size =     44231715
	Batch   2 pq = [    9405,   13301] index = [      44231715,88464951] size =     44233236
	Batch   3 pq = [   13301,   16290] index = [      88464951,132690195] size =     44225244
	Batch   4 pq = [   16290,   18810] index = [     132690195,176917455] size =     44227260
	Batch   5 pq = [   18810,   21030] index = [     176917455,221140965] size =     44223510
	Batch   6 pq = [   21030,   23037] index = [     221140965,265363203] size =     44222238
	Batch   7 pq = [   23037,   24883] index = [     265363203,309594286] size =     44231083
	Batch   8 pq = [   24883,   26601] index = [     309594286,353819901] size =     44225615
	Batch   9 pq = [   26601,   28214] index = [     353819901,398029005] size =     44209104
	Batch  10 pq = [   28214,   29740] index = [     398029005,442248670] size =     44219665
	Batch  11 pq = [   29740,   31191] index = [     442248670,486454836] size =     44206166
	Batch  12 pq = [   31191,   32578] index = [     486454836,530679331] size =     44224495
	Batch  13 pq = [   32578,   33908] index = [     530679331,574893186] size =     44213855
	Batch  14 pq = [   33908,   35188] index = [     574893186,619115266] size =     44222080
	Batch  15 pq = [   35188,   36423] index = [     619115266,663335676] size =     44220410
	Batch  16 pq = [   36423,   37617] index = [     663335676,707538153] size =     44202477
	Batch  17 pq = [   37617,   38775] index = [     707538153,751769700] size =     44231547
	Batch  18 pq = [   38775,   39899] index = [     751769700,795985050] size =     44215350
	Batch  19 pq = [   39899,   40992] index = [     795985050,840192528] size =     44207478
	Batch  20 pq = [   40992,   42057] index = [     840192528,884416653] size =     44224125
	Batch  21 pq = [   42057,   43095] index = [     884416653,928611060] size =     44194407
	Batch  22 pq = [   43095,   44109] index = [     928611060,972823995] size =     44212935
	Batch  23 pq = [   44109,   45150] index = [     972823995,1019283825] size =     46459830
  Task number: 93
  Buffer size: 11059200
  Buffer per thread: 2
  We computed 47814575 shell quartets total.
  Whereas there are 54502020 unique shell quartets.

  ==> DiskJK: Disk-Based J/K Matrices <==

    J tasked:                  Yes
    K tasked:                  Yes
    wK tasked:                  No
    Memory [MiB]:              375
    Schwarz Cutoff:          1E-12

    OpenMP threads:              1

  Minimum eigenvalue in the overlap matrix is 2.8833734022E-04.
  Using Symmetric Orthogonalization.

  SCF Guess: Superposition of Atomic Densities via on-the-fly atomic UHF.

  ==> Iterations <==

                        Total Energy        Delta E     RMS |[F,P]|

   @RHF iter SAD:  -577.52899350533016   -5.77529e+02   0.00000e+00
   @RHF iter   1:  -578.23062594140458   -7.01632e-01   2.23301e-03 DIIS
   @RHF iter   2:  -578.50730804606587   -2.76682e-01   9.21753e-04 DIIS
   @RHF iter   3:  -578.54918271607130   -4.18747e-02   2.11599e-04 DIIS
   @RHF iter   4:  -578.55275117797021   -3.56846e-03   5.08697e-05 DIIS
   @RHF iter   5:  -578.55289787959248   -1.46702e-04   1.61314e-05 DIIS
   @RHF iter   6:  -578.55291298796476   -1.51084e-05   3.97026e-06 DIIS
   @RHF iter   7:  -578.55291415462705   -1.16666e-06   1.09072e-06 DIIS
   @RHF iter   8:  -578.55291426429335   -1.09666e-07   3.55600e-07 DIIS
   @RHF iter   9:  -578.55291428580665   -2.15133e-08   1.80661e-07 DIIS
   @RHF iter  10:  -578.55291429224849   -6.44184e-09   9.10659e-08 DIIS
   @RHF iter  11:  -578.55291429437489   -2.12640e-09   3.41096e-08 DIIS
   @RHF iter  12:  -578.55291429463750   -2.62617e-10   1.33011e-08 DIIS
   @RHF iter  13:  -578.55291429465308   -1.55751e-11   4.14135e-09 DIIS
   @RHF iter  14:  -578.55291429466013   -7.04858e-12   1.48505e-09 DIIS
   @RHF iter  15:  -578.55291429465910    1.02318e-12   5.11440e-10 DIIS
   @RHF iter  16:  -578.55291429465888    2.27374e-13   2.27011e-10 DIIS
   @RHF iter  17:  -578.55291429465683    2.04636e-12   1.15195e-10 DIIS
   @RHF iter  18:  -578.55291429465956   -2.72848e-12   4.31141e-11 DIIS
  Energy and wave function converged.

  ==> Post-Iterations <==

    Orbital Energies [Eh]
    ---------------------

    Doubly Occupied:

       1A    -11.239104     2A    -11.237314     3A    -11.234675
       4A    -11.234433     5A    -11.233712     6A    -11.232908
       7A    -11.231529     8A    -11.230770     9A    -11.230575
      10A    -11.230348    11A    -11.230063    12A    -11.226784
      13A    -11.226633    14A    -11.224283    15A    -11.224018
      16A     -1.157857    17A     -1.154176    18A     -1.063978
      19A     -1.052145    20A     -1.010557    21A     -1.007932
      22A     -0.982636    23A     -0.933452    24A     -0.861435
      25A     -0.829497    26A     -0.826884    27A     -0.793393
      28A     -0.784702    29A     -0.692859    30A     -0.690721
      31A     -0.641971    32A     -0.635120    33A     -0.633429
      34A     -0.629161    35A     -0.591695    36A     -0.589034
      37A     -0.580988    38A     -0.578353    39A     -0.576624
      40A     -0.568018    41A     -0.543157    42A     -0.532770
      43A     -0.514081    44A     -0.501586    45A     -0.488274
      46A     -0.485059    47A     -0.482708    48A     -0.479674
      49A     -0.478409    50A     -0.467607    51A     -0.331297
      52A     -0.328230    53A     -0.326245    54A     -0.323373

    Virtual:

      55A      0.133195    56A      0.136069    57A      0.139996
      58A      0.145547    59A      0.169453    60A      0.191447
      61A      0.200158    62A      0.201513    63A      0.209832
      64A      0.223982    65A      0.236733    66A      0.242644
      67A      0.245884    68A      0.259139    69A      0.262904
      70A      0.265197    71A      0.275270    72A      0.280773
      73A      0.294900    74A      0.301003    75A      0.307058
      76A      0.352098    77A      0.353589    78A      0.372364
      79A      0.387895    80A      0.407475    81A      0.416942
      82A      0.451070    83A      0.460417    84A      0.466716
      85A      0.473565    86A      0.481877    87A      0.489807
      88A      0.498444    89A      0.518898    90A      0.568961
      91A      0.583653    92A      0.593293    93A      0.601982
      94A      0.609538    95A      0.629071    96A      0.638304
      97A      0.670846    98A      0.678840    99A      0.683447
     100A      0.692184   101A      0.698639   102A      0.709667
     103A      0.719586   104A      0.723357   105A      0.728790
     106A      0.732534   107A      0.741816   108A      0.744305
     109A      0.745747   110A      0.747876   111A      0.748881
     112A      0.757507   113A      0.759361   114A      0.767642
     115A      0.780627   116A      0.783751   117A      0.798776
     118A      0.813661   119A      0.826527   120A      0.827529
     121A      0.841788   122A      0.853913   123A      0.858092
     124A      0.866230   125A      0.872049   126A      0.881305
     127A      0.884320   128A      0.891764   129A      0.893251
     130A      0.899741   131A      0.900574   132A      0.907730
     133A      0.911607   134A      0.924835   135A      0.930777
     136A      0.939402   137A      0.941181   138A      0.944514
     139A      0.958004   140A      0.963465   141A      0.985554
     142A      0.999026   143A      1.012838   144A      1.016589
     145A      1.039218   146A      1.052924   147A      1.083316
     148A      1.104183   149A      1.121791   150A      1.133149
     151A      1.144024   152A      1.144332   153A      1.154716
     154A      1.159901   155A      1.171138   156A      1.183193
     157A      1.196259   158A      1.211853   159A      1.212918
     160A      1.241419   161A      1.246511   162A      1.248474
     163A      1.253920   164A      1.259331   165A      1.276222
     166A      1.284582   167A      1.293079   168A      1.305030
     169A      1.306371   170A      1.309454   171A      1.324389
     172A      1.330264   173A      1.334100   174A      1.356932
     175A      1.390834   176A      1.419322   177A      1.431728
     178A      1.459359   179A      1.510977   180A      1.516384
     181A      1.531705   182A      1.552568   183A      1.562005
     184A      1.609649   185A      1.617281   186A      1.628547
     187A      1.675024   188A      1.683608   189A      1.684481
     190A      1.699966   191A      1.725325   192A      1.730887
     193A      1.741540   194A      1.753448   195A      1.764180
     196A      1.770378   197A      1.771736   198A      1.799135
     199A      1.816828   200A      1.844403   201A      1.855226
     202A      1.863133   203A      1.871368   204A      1.876376
     205A      1.888288   206A      1.891054   207A      1.895846
     208A      1.899430   209A      1.904673   210A      1.915125
     211A      1.921847   212A      1.922499   213A      1.930079
     214A      1.930228   215A      1.943541   216A      1.946352
     217A      1.954619   218A      1.961407   219A      1.968581
     220A      1.971287   221A      1.978411   222A      1.984868
     223A      1.994244   224A      2.004048   225A      2.011303
     226A      2.015367   227A      2.037331   228A      2.049770
     229A      2.050778   230A      2.061711   231A      2.074622
     232A      2.088159   233A      2.091845   234A      2.127316
     235A      2.130786   236A      2.139359   237A      2.148560
     238A      2.161451   239A      2.164290   240A      2.166601
     241A      2.182726   242A      2.187586   243A      2.193262
     244A      2.205940   245A      2.219178   246A      2.239513
     247A      2.253219   248A      2.259499   249A      2.272702
     250A      2.283546   251A      2.304379   252A      2.306394
     253A      2.313875   254A      2.318312   255A      2.327996
     256A      2.364189   257A      2.366093   258A      2.391540
     259A      2.449235   260A      2.462610   261A      2.482903
     262A      2.488525   263A      2.502252   264A      2.511018
     265A      2.531485   266A      2.549426   267A      2.557055
     268A      2.584756   269A      2.638141   270A      2.643689
     271A      2.741285   272A      2.754778   273A      2.765144
     274A      2.769794   275A      2.772493   276A      2.780984
     277A      2.783823   278A      2.800121   279A      2.810117
     280A      2.836547   281A      2.844966   282A      2.854231
     283A      2.868667   284A      2.888545   285A      2.924726
     286A      2.980456   287A      2.987503   288A      2.992873
     289A      3.028810   290A      3.031549   291A      3.039123
     292A      3.065196   293A      3.171043   294A      3.187125
     295A      3.201331   296A      3.227705   297A      3.304710
     298A      3.323922   299A      3.968741   300A      3.998625

    Final Occupation by Irrep:
              A
    DOCC [    54 ]

  @RHF Final Energy:  -578.55291429465956

   => Energetics <=

    Nuclear Repulsion Energy =            858.7955003572246824
    One-Electron Energy =               -2485.4643535964787588
    Two-Electron Energy =                1048.1159389445945180
    Total Energy =                       -578.5529142946595584

Computation Completed

Properties will be evaluated at   0.000000,   0.000000,   0.000000 [a0]

Properties computed using the SCF density matrix

  Nuclear Dipole Moment: [e a0]
     X:     5.2169      Y:     5.1623      Z:    -2.2109

  Electronic Dipole Moment: [e a0]
     X:    -5.0937      Y:    -5.0741      Z:     2.2245

  Dipole Moment: [e a0]
     X:     0.1232      Y:     0.0882      Z:     0.0136     Total:     0.1521

  Dipole Moment: [D]
     X:     0.3131      Y:     0.2242      Z:     0.0346     Total:     0.3867

*** tstop() called on ds3 at Sun Apr 26 21:22:52 2020
Module time:
	user time   =     411.75 seconds =       6.86 minutes
	system time =     159.90 seconds =       2.67 minutes
	total time  =       1041 seconds =      17.35 minutes
Total time:
	user time   =     411.75 seconds =       6.86 minutes
	system time =     159.90 seconds =       2.67 minutes
	total time  =       1041 seconds =      17.35 minutes
                                     G D M A

                                 by Anthony Stone

                           version 2.2.06, 22 June 2011

               Distributed Multipoles from Gaussian wavefunctions

Starting at 21:22:52 on 26 Apr 2020

Using SCF density matrix from file ./SSI/SSI-052PHE-071PHE-1-dimer.test.10951.fchk

                         Distributed Multipole Analysis

Standard DMA

Positions and radii in angstrom
Multipole moments in atomic units, ea_0^k for rank k

C          x = -0.080691  y =  0.675302  z = -2.062929 angstrom
           Maximum rank =  0   Radius =  0.650 angstrom
                   Q00  =  -0.041088

C          x =  0.314309  y =  1.849302  z = -2.965929 angstrom
           Maximum rank =  0   Radius =  0.650 angstrom
                   Q00  =  -0.222385

C          x = -1.549691  y =  0.669302  z = -1.707929 angstrom
           Maximum rank =  0   Radius =  0.650 angstrom
                   Q00  =  -0.105281

C          x = -1.988691  y =  1.334302  z = -0.570929 angstrom
           Maximum rank =  0   Radius =  0.650 angstrom
                   Q00  =  -0.086351

C          x = -2.484691  y =  0.047302  z = -2.543929 angstrom
           Maximum rank =  0   Radius =  0.650 angstrom
                   Q00  =  -0.083609

C          x = -3.346691  y =  1.383302  z = -0.266929 angstrom
           Maximum rank =  0   Radius =  0.650 angstrom
                   Q00  =   0.017652

C          x = -3.856691  y =  0.131302  z = -2.248929 angstrom
           Maximum rank =  0   Radius =  0.650 angstrom
                   Q00  =  -0.070473

C          x = -4.276691  y =  0.785302  z = -1.098929 angstrom
           Maximum rank =  0   Radius =  0.650 angstrom
                   Q00  =  -0.084331

H          x =  0.174309  y = -0.266698  z = -2.551929 angstrom
           Maximum rank =  0   Radius =  0.325 angstrom
                   Q00  =   0.065213

H          x =  0.504309  y =  0.750302  z = -1.149929 angstrom
           Maximum rank =  0   Radius =  0.325 angstrom
                   Q00  =   0.056874

H          x =  0.089309  y =  2.771302  z = -2.429929 angstrom
           Maximum rank =  0   Radius =  0.325 angstrom
                   Q00  =   0.083542

H          x = -1.278691  y =  1.812302  z =  0.088071 angstrom
           Maximum rank =  0   Radius =  0.325 angstrom
                   Q00  =   0.054625

H          x = -2.160691  y = -0.471698  z = -3.433929 angstrom
           Maximum rank =  0   Radius =  0.325 angstrom
                   Q00  =   0.058321

H          x = -3.678691  y =  1.900302  z =  0.623071 angstrom
           Maximum rank =  0   Radius =  0.325 angstrom
                   Q00  =   0.063934

H          x = -4.579691  y = -0.317698  z = -2.914929 angstrom
           Maximum rank =  0   Radius =  0.325 angstrom
                   Q00  =   0.066341

H          x = -5.330691  y =  0.838302  z = -0.858929 angstrom
           Maximum rank =  0   Radius =  0.325 angstrom
                   Q00  =   0.060871

H          x = -0.250401  y =  1.795234  z = -3.908359 angstrom
           Maximum rank =  0   Radius =  0.325 angstrom
                   Q00  =   0.084823

H          x =  1.388699  y =  1.831092  z = -3.201199 angstrom
           Maximum rank =  0   Radius =  0.325 angstrom
                   Q00  =   0.084034

C          x =  3.351309  y =  0.965302  z =  3.010071 angstrom
           Maximum rank =  0   Radius =  0.650 angstrom
                   Q00  =  -0.206645

C          x =  1.346309  y = -1.293698  z =  0.719071 angstrom
           Maximum rank =  0   Radius =  0.650 angstrom
                   Q00  =  -0.082962

C          x =  1.903309  y = -0.131698  z =  1.302071 angstrom
           Maximum rank =  0   Radius =  0.650 angstrom
                   Q00  =  -0.111415

C          x =  1.708309  y = -2.541698  z =  1.196071 angstrom
           Maximum rank =  0   Radius =  0.650 angstrom
                   Q00  =  -0.081560

C          x =  2.763309  y = -0.235698  z =  2.378071 angstrom
           Maximum rank =  0   Radius =  0.650 angstrom
                   Q00  =  -0.075648

C          x =  2.612309  y = -2.624698  z =  2.231071 angstrom
           Maximum rank =  0   Radius =  0.650 angstrom
                   Q00  =   0.014098

C          x =  3.117309  y = -1.475698  z =  2.828071 angstrom
           Maximum rank =  0   Radius =  0.650 angstrom
                   Q00  =  -0.049055

H          x =  0.640309  y = -1.221698  z = -0.094929 angstrom
           Maximum rank =  0   Radius =  0.325 angstrom
                   Q00  =   0.069437

H          x =  1.626309  y =  0.842302  z =  0.925071 angstrom
           Maximum rank =  0   Radius =  0.325 angstrom
                   Q00  =   0.054120

H          x =  1.298309  y = -3.436698  z =  0.751071 angstrom
           Maximum rank =  0   Radius =  0.325 angstrom
                   Q00  =   0.059305

H          x =  2.902309  y = -3.597698  z =  2.601071 angstrom
           Maximum rank =  0   Radius =  0.325 angstrom
                   Q00  =   0.060972

H          x =  3.243309  y =  0.894302  z =  4.093071 angstrom
           Maximum rank =  0   Radius =  0.325 angstrom
                   Q00  =   0.099021

H          x =  2.774309  y =  1.831302  z =  2.686071 angstrom
           Maximum rank =  0   Radius =  0.325 angstrom
                   Q00  =   0.093028

H          x =  3.792309  y = -1.565698  z =  3.665071 angstrom
           Maximum rank =  0   Radius =  0.325 angstrom
                   Q00  =   0.050569

H          x =  4.409949  y =  1.117764  z =  2.753101 angstrom
           Maximum rank =  0   Radius =  0.325 angstrom
                   Q00  =   0.104023

Total multipoles referred to origin at
           x =   0.000000,  y =    0.000000,  z =    0.000000 angstrom
                   Q00  =  -0.000000

Finished at 21:22:52 on 26 Apr 2020

  DMA results are available in the Python driver through the
	  variable('DMA DISTRIBUTED MULTIPOLES')
  and
	  variable('DMA TOTAL MULTIPOLES')
  commands.

    Psi4 stopped on: Sunday, 26 April 2020 09:22PM
    Psi4 wall time for execution: 0:17:21.24

*** Psi4 exiting successfully. Buy a developer a beer!
