                               Psi4 1.3.2 release

  ==> Input File <==

--------------------------------------------------------------------------
import numpy as np
set {scf_type pk
basis cc-pvdz
d_convergence 10
gdma_switch   0
gdma_limit    0
gdma_origin   [ 0.0,  0.0,  0.0 ]
}
molecule test {
    units Angstrom
    0 1
    --
    0 1
    C                0.198813703416583    -1.209496806214315     1.282894700300194
    C                1.471813703416583    -0.609496806214315     0.687894700300194
    C               -0.134186296583417    -0.565496806214315     2.623894700300195
    H               -0.648186296583417    -1.076496806214315     0.606894700300194
    H                0.336813703416583    -2.280496806214316     1.444894700300194
    H                2.326813703416583    -0.840496806214315     1.323894700300194
    H                1.387813703416583     0.475503193785685     0.640894700300194
    H               -1.035186296583417    -1.043496806214315     3.023894700300194
    H                0.682813703416583    -0.765496806214315     3.325894700300195
    H                1.637453403416583    -0.956616806214315    -0.342675299699806
    H               -0.295098296583417     0.518813193785685     2.532364700300195
    C               -0.933186296583417     0.583503193785685    -1.779105299699806
    C               -0.581186296583417     1.715503193785685    -2.735105299699806
    H               -0.802186296583417    -0.383496806214315    -2.260105299699806
    H               -0.380186296583417     0.713503193785685    -0.855105299699806
    H               -1.989186296583417     0.667503193785685    -1.514105299699805
    H               -1.117186296583417     2.613503193785685    -2.428105299699805
    H               -0.865707296583417     1.453916193785685    -3.764965299699806
    H                0.498449103416583     1.921699193785685    -2.691855299699805

}
e, wfn = energy('scf', return_wfn=True)
gdma(wfn)
dmavals = variable('DMA DISTRIBUTED MULTIPOLES')
charges = np.array(dmavals)
print(charges)
np.save('SSI-001LYS-027THR-1-dimer.npy', np.array(charges))--------------------------------------------------------------------------

*** tstart() called on ds3
*** at Sun Apr 26 22:16:30 2020

   => Loading Basis Set <=

    Name: CC-PVDZ
    Role: ORBITAL
    Keyword: BASIS
    atoms 1-3, 12-13  entry C          line   138 file /theoryfs2/ds/metcalf/miniconda2/envs/tf2gpu/share/psi4/basis/cc-pvdz.gbs
    atoms 4-11, 14-19 entry H          line    22 file /theoryfs2/ds/metcalf/miniconda2/envs/tf2gpu/share/psi4/basis/cc-pvdz.gbs

         ---------------------------------------------------------
                                   SCF
               by Justin Turney, Rob Parrish, Andy Simmonett
                          and Daniel G. A. Smith
                              RHF Reference
                        1 Threads,    500 MiB Core
         ---------------------------------------------------------

  ==> Geometry <==

    Molecular point group: c1
    Full point group: C1

    Geometry (in Angstrom), charge = 0, multiplicity = 1:

       Center              X                  Y                   Z               Mass
    ------------   -----------------  -----------------  -----------------  -----------------
         C            0.198813703417    -1.209496806214     1.282894700300    12.000000000000
         C            1.471813703417    -0.609496806214     0.687894700300    12.000000000000
         C           -0.134186296583    -0.565496806214     2.623894700300    12.000000000000
         H           -0.648186296583    -1.076496806214     0.606894700300     1.007825032230
         H            0.336813703417    -2.280496806214     1.444894700300     1.007825032230
         H            2.326813703417    -0.840496806214     1.323894700300     1.007825032230
         H            1.387813703417     0.475503193786     0.640894700300     1.007825032230
         H           -1.035186296583    -1.043496806214     3.023894700300     1.007825032230
         H            0.682813703417    -0.765496806214     3.325894700300     1.007825032230
         H            1.637453403417    -0.956616806214    -0.342675299700     1.007825032230
         H           -0.295098296583     0.518813193786     2.532364700300     1.007825032230
         C           -0.933186296583     0.583503193786    -1.779105299700    12.000000000000
         C           -0.581186296583     1.715503193786    -2.735105299700    12.000000000000
         H           -0.802186296583    -0.383496806214    -2.260105299700     1.007825032230
         H           -0.380186296583     0.713503193786    -0.855105299700     1.007825032230
         H           -1.989186296583     0.667503193786    -1.514105299700     1.007825032230
         H           -1.117186296583     2.613503193786    -2.428105299700     1.007825032230
         H           -0.865707296583     1.453916193786    -3.764965299700     1.007825032230
         H            0.498449103417     1.921699193786    -2.691855299700     1.007825032230

  Running in c1 symmetry.

  Rotational constants: A =      0.25196  B =      0.04148  C =      0.03896 [cm^-1]
  Rotational constants: A =   7553.61168  B =   1243.63484  C =   1168.11074 [MHz]
  Nuclear repulsion =  180.505444508505974

  Charge       = 0
  Multiplicity = 1
  Electrons    = 44
  Nalpha       = 22
  Nbeta        = 22

  ==> Algorithm <==

  SCF Algorithm Type is PK.
  DIIS enabled.
  MOM disabled.
  Fractional occupation disabled.
  Guess Type is SAD.
  Energy threshold   = 1.00e-06
  Density threshold  = 1.00e-10
  Integral threshold = 0.00e+00

  ==> Primary Basis <==

  Basis Set: CC-PVDZ
    Blend: CC-PVDZ
    Number of shells: 72
    Number of basis function: 140
    Number of Cartesian functions: 145
    Spherical Harmonics?: true
    Max angular momentum: 2

  ==> Pre-Iterations <==

   -------------------------------------------------------
    Irrep   Nso     Nmo     Nalpha   Nbeta   Ndocc  Nsocc
   -------------------------------------------------------
     A        140     140       0       0       0       0
   -------------------------------------------------------
    Total     140     140      22      22      22       0
   -------------------------------------------------------

  ==> Integral Setup <==

  Using integral reordering PK algorithm.
  Sizing the integral batches needed.
  Building batch lookup table.
   Calculation information:
      Number of atoms:                  19
      Number of AO shells:              72
      Number of primitives:            180
      Number of atomic orbitals:       145
      Number of basis functions:       140

      Integral cutoff                 1.00e-12
      Number of threads:                 1

	Batch   1 pq = [       0,    9405] index = [             0,44231715] size =     44231715
	Batch   2 pq = [    9405,    9870] index = [      44231715,48713385] size =      4481670
  Task number: 5
  Buffer size: 11059200
  Buffer per thread: 2
  We computed 2936280 shell quartets total.
  Whereas there are 3454506 unique shell quartets.

  ==> DiskJK: Disk-Based J/K Matrices <==

    J tasked:                  Yes
    K tasked:                  Yes
    wK tasked:                  No
    Memory [MiB]:              375
    Schwarz Cutoff:          1E-12

    OpenMP threads:              1

  Minimum eigenvalue in the overlap matrix is 5.5379073222E-03.
  Using Symmetric Orthogonalization.

  SCF Guess: Superposition of Atomic Densities via on-the-fly atomic UHF.

  ==> Iterations <==

                        Total Energy        Delta E     RMS |[F,P]|

   @RHF iter SAD:  -196.40855483468440   -1.96409e+02   0.00000e+00
   @RHF iter   1:  -197.30701210791952   -8.98457e-01   3.81616e-03 DIIS
   @RHF iter   2:  -197.46819276510317   -1.61181e-01   1.64681e-03 DIIS
   @RHF iter   3:  -197.49681701847777   -2.86243e-02   3.27493e-04 DIIS
   @RHF iter   4:  -197.49906530096737   -2.24828e-03   4.88374e-05 DIIS
   @RHF iter   5:  -197.49910485617437   -3.95552e-05   1.49965e-05 DIIS
   @RHF iter   6:  -197.49910830851246   -3.45234e-06   2.54166e-06 DIIS
   @RHF iter   7:  -197.49910842517801   -1.16666e-07   4.77067e-07 DIIS
   @RHF iter   8:  -197.49910842996599   -4.78798e-09   1.18410e-07 DIIS
   @RHF iter   9:  -197.49910843024287   -2.76884e-10   3.78619e-08 DIIS
   @RHF iter  10:  -197.49910843027430   -3.14344e-11   7.95555e-09 DIIS
   @RHF iter  11:  -197.49910843027615   -1.84741e-12   1.52068e-09 DIIS
   @RHF iter  12:  -197.49910843027590    2.55795e-13   2.85381e-10 DIIS
   @RHF iter  13:  -197.49910843027547    4.26326e-13   5.74686e-11 DIIS
  Energy and wave function converged.

  ==> Post-Iterations <==

    Orbital Energies [Eh]
    ---------------------

    Doubly Occupied:

       1A    -11.218858     2A    -11.217897     3A    -11.216445
       4A    -11.215637     5A    -11.214602     6A     -1.054675
       7A     -1.020120     8A     -0.922811     9A     -0.835837
      10A     -0.796550    11A     -0.629710    12A     -0.604479
      13A     -0.596360    14A     -0.591850    15A     -0.547980
      16A     -0.531544    17A     -0.499951    18A     -0.490705
      19A     -0.477185    20A     -0.472560    21A     -0.468536
      22A     -0.465902

    Virtual:

      23A      0.172020    24A      0.196252    25A      0.215371
      26A      0.226364    27A      0.233205    28A      0.245243
      29A      0.251616    30A      0.261775    31A      0.281852
      32A      0.290066    33A      0.305842    34A      0.306647
      35A      0.310433    36A      0.347406    37A      0.373350
      38A      0.415781    39A      0.429841    40A      0.567761
      41A      0.583926    42A      0.598339    43A      0.608214
      44A      0.615944    45A      0.627632    46A      0.640761
      47A      0.669688    48A      0.706396    49A      0.766469
      50A      0.798272    51A      0.825647    52A      0.848856
      53A      0.868256    54A      0.878110    55A      0.880535
      56A      0.888775    57A      0.896337    58A      0.899317
      59A      0.906918    60A      0.913982    61A      0.914784
      62A      0.920562    63A      0.931753    64A      0.946169
      65A      0.955043    66A      0.986455    67A      0.996635
      68A      1.032489    69A      1.111661    70A      1.126197
      71A      1.129365    72A      1.140307    73A      1.202809
      74A      1.276408    75A      1.377504    76A      1.458973
      77A      1.474591    78A      1.492040    79A      1.508661
      80A      1.533821    81A      1.599450    82A      1.629355
      83A      1.678625    84A      1.683248    85A      1.686613
      86A      1.695860    87A      1.715821    88A      1.847080
      89A      1.858631    90A      1.865169    91A      1.873869
      92A      1.881687    93A      1.901778    94A      1.921651
      95A      1.923297    96A      1.937693    97A      1.942043
      98A      1.945614    99A      1.955365   100A      1.966142
     101A      1.973090   102A      1.985107   103A      1.989417
     104A      2.009708   105A      2.027167   106A      2.040078
     107A      2.058156   108A      2.142159   109A      2.144187
     110A      2.153145   111A      2.185660   112A      2.290056
     113A      2.301647   114A      2.308259   115A      2.313838
     116A      2.330394   117A      2.354066   118A      2.434321
     119A      2.451918   120A      2.491913   121A      2.528438
     122A      2.574028   123A      2.593909   124A      2.604991
     125A      2.619675   126A      2.628094   127A      2.754236
     128A      2.761786   129A      2.769178   130A      2.782456
     131A      2.798402   132A      2.816583   133A      2.832216
     134A      2.868156   135A      2.909297   136A      2.958569
     137A      2.961403   138A      2.971399   139A      3.010334
     140A      3.068004

    Final Occupation by Irrep:
              A
    DOCC [    22 ]

  @RHF Final Energy:  -197.49910843027547

   => Energetics <=

    Nuclear Repulsion Energy =            180.5054445085059740
    One-Electron Energy =                -621.8287159090966725
    Two-Electron Energy =                 243.8241629703152000
    Total Energy =                       -197.4991084302754700

Computation Completed

Properties will be evaluated at   0.000000,   0.000000,   0.000000 [a0]

Properties computed using the SCF density matrix

  Nuclear Dipole Moment: [e a0]
     X:    -0.2463      Y:     0.9542      Z:    -0.8983

  Electronic Dipole Moment: [e a0]
     X:     0.2184      Y:    -0.9812      Z:     0.8986

  Dipole Moment: [e a0]
     X:    -0.0279      Y:    -0.0270      Z:     0.0003     Total:     0.0388

  Dipole Moment: [D]
     X:    -0.0709      Y:    -0.0686      Z:     0.0008     Total:     0.0987

*** tstop() called on ds3 at Sun Apr 26 22:16:53 2020
Module time:
	user time   =      16.54 seconds =       0.28 minutes
	system time =       7.50 seconds =       0.12 minutes
	total time  =         23 seconds =       0.38 minutes
Total time:
	user time   =      16.54 seconds =       0.28 minutes
	system time =       7.50 seconds =       0.12 minutes
	total time  =         23 seconds =       0.38 minutes
                                     G D M A

                                 by Anthony Stone

                           version 2.2.06, 22 June 2011

               Distributed Multipoles from Gaussian wavefunctions

Starting at 22:16:53 on 26 Apr 2020

Using SCF density matrix from file ./SSI/SSI-001LYS-027THR-1-dimer.test.17165.fchk

                         Distributed Multipole Analysis

Standard DMA

Positions and radii in angstrom
Multipole moments in atomic units, ea_0^k for rank k

C          x =  0.198814  y = -1.209497  z =  1.282895 angstrom
           Maximum rank =  0   Radius =  0.650 angstrom
                   Q00  =  -0.079829

C          x =  1.471814  y = -0.609497  z =  0.687895 angstrom
           Maximum rank =  0   Radius =  0.650 angstrom
                   Q00  =  -0.241304

C          x = -0.134186  y = -0.565497  z =  2.623895 angstrom
           Maximum rank =  0   Radius =  0.650 angstrom
                   Q00  =  -0.248111

H          x = -0.648186  y = -1.076497  z =  0.606895 angstrom
           Maximum rank =  0   Radius =  0.325 angstrom
                   Q00  =   0.053472

H          x =  0.336814  y = -2.280497  z =  1.444895 angstrom
           Maximum rank =  0   Radius =  0.325 angstrom
                   Q00  =   0.049061

H          x =  2.326814  y = -0.840497  z =  1.323895 angstrom
           Maximum rank =  0   Radius =  0.325 angstrom
                   Q00  =   0.079881

H          x =  1.387814  y =  0.475503  z =  0.640895 angstrom
           Maximum rank =  0   Radius =  0.325 angstrom
                   Q00  =   0.070916

H          x = -1.035186  y = -1.043497  z =  3.023895 angstrom
           Maximum rank =  0   Radius =  0.325 angstrom
                   Q00  =   0.080822

H          x =  0.682814  y = -0.765497  z =  3.325895 angstrom
           Maximum rank =  0   Radius =  0.325 angstrom
                   Q00  =   0.073660

H          x =  1.637453  y = -0.956617  z = -0.342675 angstrom
           Maximum rank =  0   Radius =  0.325 angstrom
                   Q00  =   0.084156

H          x = -0.295098  y =  0.518813  z =  2.532365 angstrom
           Maximum rank =  0   Radius =  0.325 angstrom
                   Q00  =   0.077333

C          x = -0.933186  y =  0.583503  z = -1.779105 angstrom
           Maximum rank =  0   Radius =  0.650 angstrom
                   Q00  =  -0.215972

C          x = -0.581186  y =  1.715503  z = -2.735105 angstrom
           Maximum rank =  0   Radius =  0.650 angstrom
                   Q00  =  -0.235769

H          x = -0.802186  y = -0.383497  z = -2.260105 angstrom
           Maximum rank =  0   Radius =  0.325 angstrom
                   Q00  =   0.067759

H          x = -0.380186  y =  0.713503  z = -0.855105 angstrom
           Maximum rank =  0   Radius =  0.325 angstrom
                   Q00  =   0.069690

H          x = -1.989186  y =  0.667503  z = -1.514105 angstrom
           Maximum rank =  0   Radius =  0.325 angstrom
                   Q00  =   0.076270

H          x = -1.117186  y =  2.613503  z = -2.428105 angstrom
           Maximum rank =  0   Radius =  0.325 angstrom
                   Q00  =   0.083274

H          x = -0.865707  y =  1.453916  z = -3.764965 angstrom
           Maximum rank =  0   Radius =  0.325 angstrom
                   Q00  =   0.079034

H          x =  0.498449  y =  1.921699  z = -2.691855 angstrom
           Maximum rank =  0   Radius =  0.325 angstrom
                   Q00  =   0.075657

Total multipoles referred to origin at
           x =   0.000000,  y =    0.000000,  z =    0.000000 angstrom
                   Q00  =  -0.000000

Finished at 22:16:54 on 26 Apr 2020

  DMA results are available in the Python driver through the
	  variable('DMA DISTRIBUTED MULTIPOLES')
  and
	  variable('DMA TOTAL MULTIPOLES')
  commands.

    Psi4 stopped on: Sunday, 26 April 2020 10:16PM
    Psi4 wall time for execution: 0:00:24.03

*** Psi4 exiting successfully. Buy a developer a beer!
