                               Psi4 1.3.2 release

  ==> Input File <==

--------------------------------------------------------------------------
import numpy as np
set {scf_type pk
basis cc-pvdz
d_convergence 10
gdma_switch   0
gdma_limit    0
gdma_origin   [ 0.0,  0.0,  0.0 ]
}
molecule test {
    units Angstrom
    0 1
    --
    0 1
    C               -2.328693491092962     1.488502696114504     1.057452701203502
    C               -2.561693491092962     0.939502696114504     2.460452701203502
    C               -2.102693491092962     2.998502696114504     0.987452701203502
    H               -1.448693491092962     0.993502696114504     0.655452701203502
    H               -3.170693491092962     1.240502696114504     0.408452701203502
    H               -3.335693491092961     1.506502696114504     2.975452701203502
    H               -1.340693491092962     3.289502696114504     1.709452701203502
    H               -1.625183491092962     0.962896696114504     3.036997701203502
    H               -2.884443491092962    -0.106690303885496     2.354084801203502
    H               -1.707683491092962     3.237817196114504    -0.010892298796498
    H               -3.020583491092962     3.567123996114504     1.197579901203502
    C               -0.984693491092962    -0.059497303885496    -2.193547298796498
    C               -1.461693491092962    -1.368497303885496    -2.852547298796498
    C                0.109306508907038    -0.286497303885496    -1.174547298796498
    C               -0.082693491092962    -1.150497303885496    -0.114547298796498
    C                1.316306508907038     0.372502696114504    -1.277547298796498
    C                0.928306508907038    -1.404497303885496     0.786452701203502
    C                2.353306508907038     0.121502696114504    -0.371547298796498
    C                2.146306508907038    -0.777497303885496     0.651452701203502
    O                3.155306508907038    -1.080497303885496     1.541452701203502
    H               -0.630693491092962     0.619502696114504    -2.970547298796498
    H               -1.830693491092962     0.414502696114504    -1.696547298796498
    H               -1.875693491092962    -2.003497303885496    -2.074547298796498
    H               -1.033693491092962    -1.653497303885496     0.006452701203502
    H                1.480306508907038     1.073502696114504    -2.087547298796498
    H                0.760306508907038    -2.106497303885496     1.590452701203502
    H                3.309306508907039     0.616502696114504    -0.469547298796498
    H                2.933306508907038    -1.823497303885496     2.112452701203502
    H               -0.622513491092962    -1.909535303885496    -3.314132298796498
    H               -2.258373491092962    -1.171336303885496    -3.584964298796498

}
e, wfn = energy('scf', return_wfn=True)
gdma(wfn)
dmavals = variable('DMA DISTRIBUTED MULTIPOLES')
charges = np.array(dmavals)
print(charges)
np.save('SSI-051LEU-096TYR-1-dimer.npy', np.array(charges))--------------------------------------------------------------------------

*** tstart() called on ds3
*** at Tue Apr 28 22:04:27 2020

   => Loading Basis Set <=

    Name: CC-PVDZ
    Role: ORBITAL
    Keyword: BASIS
    atoms 1-3, 12-19  entry C          line   138 file /theoryfs2/ds/metcalf/miniconda2/envs/tf2gpu/share/psi4/basis/cc-pvdz.gbs
    atoms 4-11, 21-30 entry H          line    22 file /theoryfs2/ds/metcalf/miniconda2/envs/tf2gpu/share/psi4/basis/cc-pvdz.gbs
    atoms 20          entry O          line   198 file /theoryfs2/ds/metcalf/miniconda2/envs/tf2gpu/share/psi4/basis/cc-pvdz.gbs

         ---------------------------------------------------------
                                   SCF
               by Justin Turney, Rob Parrish, Andy Simmonett
                          and Daniel G. A. Smith
                              RHF Reference
                        1 Threads,    500 MiB Core
         ---------------------------------------------------------

  ==> Geometry <==

    Molecular point group: c1
    Full point group: C1

    Geometry (in Angstrom), charge = 0, multiplicity = 1:

       Center              X                  Y                   Z               Mass
    ------------   -----------------  -----------------  -----------------  -----------------
         C           -2.328693491093     1.488502696115     1.057452701204    12.000000000000
         C           -2.561693491093     0.939502696115     2.460452701204    12.000000000000
         C           -2.102693491093     2.998502696115     0.987452701204    12.000000000000
         H           -1.448693491093     0.993502696115     0.655452701204     1.007825032230
         H           -3.170693491093     1.240502696115     0.408452701204     1.007825032230
         H           -3.335693491093     1.506502696115     2.975452701204     1.007825032230
         H           -1.340693491093     3.289502696115     1.709452701204     1.007825032230
         H           -1.625183491093     0.962896696115     3.036997701204     1.007825032230
         H           -2.884443491093    -0.106690303885     2.354084801204     1.007825032230
         H           -1.707683491093     3.237817196115    -0.010892298796     1.007825032230
         H           -3.020583491093     3.567123996115     1.197579901204     1.007825032230
         C           -0.984693491093    -0.059497303885    -2.193547298796    12.000000000000
         C           -1.461693491093    -1.368497303885    -2.852547298796    12.000000000000
         C            0.109306508907    -0.286497303885    -1.174547298796    12.000000000000
         C           -0.082693491093    -1.150497303885    -0.114547298796    12.000000000000
         C            1.316306508907     0.372502696115    -1.277547298796    12.000000000000
         C            0.928306508907    -1.404497303885     0.786452701204    12.000000000000
         C            2.353306508907     0.121502696115    -0.371547298796    12.000000000000
         C            2.146306508907    -0.777497303885     0.651452701204    12.000000000000
         O            3.155306508907    -1.080497303885     1.541452701204    15.994914619570
         H           -0.630693491093     0.619502696115    -2.970547298796     1.007825032230
         H           -1.830693491093     0.414502696115    -1.696547298796     1.007825032230
         H           -1.875693491093    -2.003497303885    -2.074547298796     1.007825032230
         H           -1.033693491093    -1.653497303885     0.006452701204     1.007825032230
         H            1.480306508907     1.073502696115    -2.087547298796     1.007825032230
         H            0.760306508907    -2.106497303885     1.590452701204     1.007825032230
         H            3.309306508907     0.616502696115    -0.469547298796     1.007825032230
         H            2.933306508907    -1.823497303885     2.112452701204     1.007825032230
         H           -0.622513491093    -1.909535303885    -3.314132298796     1.007825032230
         H           -2.258373491093    -1.171336303885    -3.584964298796     1.007825032230

  Running in c1 symmetry.

  Rotational constants: A =      0.02818  B =      0.01874  C =      0.01399 [cm^-1]
  Rotational constants: A =    844.71035  B =    561.91525  C =    419.38103 [MHz]
  Nuclear repulsion =  684.985786869274534

  Charge       = 0
  Multiplicity = 1
  Electrons    = 92
  Nalpha       = 46
  Nbeta        = 46

  ==> Algorithm <==

  SCF Algorithm Type is PK.
  DIIS enabled.
  MOM disabled.
  Fractional occupation disabled.
  Guess Type is SAD.
  Energy threshold   = 1.00e-06
  Density threshold  = 1.00e-10
  Integral threshold = 0.00e+00

  ==> Primary Basis <==

  Basis Set: CC-PVDZ
    Blend: CC-PVDZ
    Number of shells: 126
    Number of basis function: 258
    Number of Cartesian functions: 270
    Spherical Harmonics?: true
    Max angular momentum: 2

  ==> Pre-Iterations <==

   -------------------------------------------------------
    Irrep   Nso     Nmo     Nalpha   Nbeta   Ndocc  Nsocc
   -------------------------------------------------------
     A        258     258       0       0       0       0
   -------------------------------------------------------
    Total     258     258      46      46      46       0
   -------------------------------------------------------

  ==> Integral Setup <==

  Using integral reordering PK algorithm.
  Sizing the integral batches needed.
  Building batch lookup table.
   Calculation information:
      Number of atoms:                  30
      Number of AO shells:             126
      Number of primitives:            354
      Number of atomic orbitals:       270
      Number of basis functions:       258

      Integral cutoff                 1.00e-12
      Number of threads:                 1

	Batch   1 pq = [       0,    9405] index = [             0,44231715] size =     44231715
	Batch   2 pq = [    9405,   13301] index = [      44231715,88464951] size =     44233236
	Batch   3 pq = [   13301,   16290] index = [      88464951,132690195] size =     44225244
	Batch   4 pq = [   16290,   18810] index = [     132690195,176917455] size =     44227260
	Batch   5 pq = [   18810,   21030] index = [     176917455,221140965] size =     44223510
	Batch   6 pq = [   21030,   23037] index = [     221140965,265363203] size =     44222238
	Batch   7 pq = [   23037,   24883] index = [     265363203,309594286] size =     44231083
	Batch   8 pq = [   24883,   26601] index = [     309594286,353819901] size =     44225615
	Batch   9 pq = [   26601,   28214] index = [     353819901,398029005] size =     44209104
	Batch  10 pq = [   28214,   29740] index = [     398029005,442248670] size =     44219665
	Batch  11 pq = [   29740,   31191] index = [     442248670,486454836] size =     44206166
	Batch  12 pq = [   31191,   32578] index = [     486454836,530679331] size =     44224495
	Batch  13 pq = [   32578,   33411] index = [     530679331,558164166] size =     27484835
  Task number: 51
  Buffer size: 11059200
  Buffer per thread: 2
  We computed 32872068 shell quartets total.
  Whereas there are 32012001 unique shell quartets.
     2.69 percent of shell quartets recomputed by reordering.

  ==> DiskJK: Disk-Based J/K Matrices <==

    J tasked:                  Yes
    K tasked:                  Yes
    wK tasked:                  No
    Memory [MiB]:              375
    Schwarz Cutoff:          1E-12

    OpenMP threads:              1

  Minimum eigenvalue in the overlap matrix is 3.0033307294E-04.
  Using Symmetric Orthogonalization.

  SCF Guess: Superposition of Atomic Densities via on-the-fly atomic UHF.

  ==> Iterations <==

                        Total Energy        Delta E     RMS |[F,P]|

   @RHF iter SAD:  -500.79956498032789   -5.00800e+02   0.00000e+00
   @RHF iter   1:  -501.60944813843599   -8.09883e-01   2.68276e-03 DIIS
   @RHF iter   2:  -501.87667811401832   -2.67230e-01   1.14993e-03 DIIS
   @RHF iter   3:  -501.92141436652173   -4.47363e-02   2.58811e-04 DIIS
   @RHF iter   4:  -501.92506384699254   -3.64948e-03   1.03468e-04 DIIS
   @RHF iter   5:  -501.92547502882957   -4.11182e-04   1.93916e-05 DIIS
   @RHF iter   6:  -501.92549706410517   -2.20353e-05   5.54209e-06 DIIS
   @RHF iter   7:  -501.92549892789833   -1.86379e-06   1.77398e-06 DIIS
   @RHF iter   8:  -501.92549916773118   -2.39833e-07   6.59932e-07 DIIS
   @RHF iter   9:  -501.92549920732063   -3.95895e-08   2.37299e-07 DIIS
   @RHF iter  10:  -501.92549921394971   -6.62908e-09   9.99093e-08 DIIS
   @RHF iter  11:  -501.92549921581360   -1.86390e-09   4.11823e-08 DIIS
   @RHF iter  12:  -501.92549921620474   -3.91140e-10   1.97860e-08 DIIS
   @RHF iter  13:  -501.92549921627045   -6.57110e-11   6.85960e-09 DIIS
   @RHF iter  14:  -501.92549921627699   -6.53699e-12   1.69850e-09 DIIS
   @RHF iter  15:  -501.92549921627364    3.35376e-12   5.93978e-10 DIIS
   @RHF iter  16:  -501.92549921627437   -7.38964e-13   2.31170e-10 DIIS
   @RHF iter  17:  -501.92549921627489   -5.11591e-13   1.12444e-10 DIIS
   @RHF iter  18:  -501.92549921627301    1.87583e-12   5.71195e-11 DIIS
  Energy and wave function converged.

  ==> Post-Iterations <==

    Orbital Energies [Eh]
    ---------------------

    Doubly Occupied:

       1A    -20.579689     2A    -11.296873     3A    -11.238169
       4A    -11.236911     5A    -11.231826     6A    -11.230781
       7A    -11.229855     8A    -11.229105     9A    -11.223823
      10A    -11.214341    11A    -11.212772    12A    -11.212031
      13A     -1.391105    14A     -1.160739    15A     -1.060666
      16A     -1.048907    17A     -1.021525    18A     -0.979423
      19A     -0.921704    20A     -0.862088    21A     -0.847507
      22A     -0.793522    23A     -0.789848    24A     -0.731402
      25A     -0.675747    26A     -0.643650    27A     -0.622165
      28A     -0.614258    29A     -0.601314    30A     -0.588138
      31A     -0.584675    32A     -0.579985    33A     -0.577357
      34A     -0.549121    35A     -0.539270    36A     -0.530722
      37A     -0.519321    38A     -0.501997    39A     -0.481278
      40A     -0.475145    41A     -0.471356    42A     -0.464442
      43A     -0.463112    44A     -0.458020    45A     -0.340604
      46A     -0.307392

    Virtual:

      47A      0.129215    48A      0.153050    49A      0.173044
      50A      0.181714    51A      0.197216    52A      0.202458
      53A      0.208117    54A      0.225345    55A      0.241283
      56A      0.243607    57A      0.254458    58A      0.258409
      59A      0.267602    60A      0.272488    61A      0.281776
      62A      0.294017    63A      0.296807    64A      0.315747
      65A      0.331639    66A      0.348353    67A      0.358630
      68A      0.378256    69A      0.390188    70A      0.411009
      71A      0.425585    72A      0.433879    73A      0.470447
      74A      0.491698    75A      0.497756    76A      0.521408
      77A      0.582494    78A      0.592808    79A      0.600800
      80A      0.603610    81A      0.617447    82A      0.623995
      83A      0.635697    84A      0.638195    85A      0.660349
      86A      0.674926    87A      0.699350    88A      0.710151
      89A      0.722076    90A      0.730292    91A      0.734928
      92A      0.750865    93A      0.764356    94A      0.775031
      95A      0.781217    96A      0.800200    97A      0.807209
      98A      0.815132    99A      0.831609   100A      0.844353
     101A      0.858505   102A      0.859851   103A      0.876073
     104A      0.880126   105A      0.884318   106A      0.890556
     107A      0.893408   108A      0.895583   109A      0.899103
     110A      0.905520   111A      0.912479   112A      0.915375
     113A      0.917275   114A      0.932946   115A      0.935710
     116A      0.944227   117A      0.950742   118A      0.969214
     119A      0.971460   120A      0.978366   121A      0.997117
     122A      1.000836   123A      1.028605   124A      1.032411
     125A      1.076068   126A      1.104091   127A      1.126868
     128A      1.127880   129A      1.141565   130A      1.156533
     131A      1.173745   132A      1.180247   133A      1.202304
     134A      1.237564   135A      1.252357   136A      1.265855
     137A      1.286541   138A      1.296356   139A      1.308517
     140A      1.311888   141A      1.333644   142A      1.346550
     143A      1.360732   144A      1.392225   145A      1.396020
     146A      1.413019   147A      1.454288   148A      1.470138
     149A      1.479523   150A      1.489248   151A      1.512477
     152A      1.531544   153A      1.548938   154A      1.571545
     155A      1.625670   156A      1.633941   157A      1.658470
     158A      1.669223   159A      1.686628   160A      1.690006
     161A      1.694822   162A      1.713644   163A      1.734490
     164A      1.745624   165A      1.779737   166A      1.799053
     167A      1.820146   168A      1.846528   169A      1.862310
     170A      1.870913   171A      1.876444   172A      1.884689
     173A      1.888807   174A      1.894125   175A      1.908658
     176A      1.917430   177A      1.919021   178A      1.921952
     179A      1.936591   180A      1.938866   181A      1.950271
     182A      1.952637   183A      1.958283   184A      1.970118
     185A      1.975686   186A      1.981098   187A      1.991591
     188A      1.997716   189A      2.011986   190A      2.013977
     191A      2.027933   192A      2.034647   193A      2.038934
     194A      2.053186   195A      2.060283   196A      2.072933
     197A      2.082268   198A      2.086943   199A      2.112510
     200A      2.120016   201A      2.152837   202A      2.163122
     203A      2.165820   204A      2.196135   205A      2.206736
     206A      2.249321   207A      2.262411   208A      2.272090
     209A      2.292280   210A      2.295785   211A      2.302693
     212A      2.318017   213A      2.327786   214A      2.338376
     215A      2.364530   216A      2.368127   217A      2.428734
     218A      2.452280   219A      2.459342   220A      2.481936
     221A      2.498317   222A      2.529158   223A      2.535507
     224A      2.550861   225A      2.555788   226A      2.589335
     227A      2.591222   228A      2.623622   229A      2.638928
     230A      2.653562   231A      2.668809   232A      2.754150
     233A      2.759622   234A      2.763984   235A      2.768977
     236A      2.784939   237A      2.799227   238A      2.816558
     239A      2.822378   240A      2.862264   241A      2.884759
     242A      2.914863   243A      2.931633   244A      2.947900
     245A      2.967337   246A      2.984993   247A      3.002816
     248A      3.032900   249A      3.102234   250A      3.106412
     251A      3.178460   252A      3.249069   253A      3.302412
     254A      3.346753   255A      3.569392   256A      3.665711
     257A      4.007870   258A      4.186571

    Final Occupation by Irrep:
              A
    DOCC [    46 ]

  @RHF Final Energy:  -501.92549921627301

   => Energetics <=

    Nuclear Repulsion Energy =            684.9857868692745342
    One-Electron Energy =               -2039.1552103606111359
    Two-Electron Energy =                 852.2439242750635913
    Total Energy =                       -501.9254992162730105

Computation Completed

Properties will be evaluated at   0.000000,   0.000000,   0.000000 [a0]

Properties computed using the SCF density matrix

  Nuclear Dipole Moment: [e a0]
     X:   -17.1425      Y:     6.3202      Z:    -0.1444

  Electronic Dipole Moment: [e a0]
     X:    16.7563      Y:    -6.7475      Z:     0.1533

  Dipole Moment: [e a0]
     X:    -0.3862      Y:    -0.4273      Z:     0.0089     Total:     0.5761

  Dipole Moment: [D]
     X:    -0.9816      Y:    -1.0862      Z:     0.0227     Total:     1.4642

*** tstop() called on ds3 at Tue Apr 28 22:09:54 2020
Module time:
	user time   =     235.70 seconds =       3.93 minutes
	system time =      83.23 seconds =       1.39 minutes
	total time  =        327 seconds =       5.45 minutes
Total time:
	user time   =     235.70 seconds =       3.93 minutes
	system time =      83.23 seconds =       1.39 minutes
	total time  =        327 seconds =       5.45 minutes
                                     G D M A

                                 by Anthony Stone

                           version 2.2.06, 22 June 2011

               Distributed Multipoles from Gaussian wavefunctions

Starting at 22:9:54 on 28 Apr 2020

Using SCF density matrix from file ./SSI/SSI-051LEU-096TYR-1-dimer.test.12374.fchk

                         Distributed Multipole Analysis

Standard DMA

Positions and radii in angstrom
Multipole moments in atomic units, ea_0^k for rank k

C          x = -2.328693  y =  1.488503  z =  1.057453 angstrom
           Maximum rank =  0   Radius =  0.650 angstrom
                   Q00  =  -0.092519

C          x = -2.561693  y =  0.939503  z =  2.460453 angstrom
           Maximum rank =  0   Radius =  0.650 angstrom
                   Q00  =  -0.232647

C          x = -2.102693  y =  2.998503  z =  0.987453 angstrom
           Maximum rank =  0   Radius =  0.650 angstrom
                   Q00  =  -0.243052

H          x = -1.448693  y =  0.993503  z =  0.655453 angstrom
           Maximum rank =  0   Radius =  0.325 angstrom
                   Q00  =   0.066672

H          x = -3.170693  y =  1.240503  z =  0.408453 angstrom
           Maximum rank =  0   Radius =  0.325 angstrom
                   Q00  =   0.035688

H          x = -3.335693  y =  1.506503  z =  2.975453 angstrom
           Maximum rank =  0   Radius =  0.325 angstrom
                   Q00  =   0.076462

H          x = -1.340693  y =  3.289503  z =  1.709453 angstrom
           Maximum rank =  0   Radius =  0.325 angstrom
                   Q00  =   0.076392

H          x = -1.625183  y =  0.962897  z =  3.036998 angstrom
           Maximum rank =  0   Radius =  0.325 angstrom
                   Q00  =   0.080039

H          x = -2.884443  y = -0.106690  z =  2.354085 angstrom
           Maximum rank =  0   Radius =  0.325 angstrom
                   Q00  =   0.074707

H          x = -1.707683  y =  3.237817  z = -0.010892 angstrom
           Maximum rank =  0   Radius =  0.325 angstrom
                   Q00  =   0.079925

H          x = -3.020583  y =  3.567124  z =  1.197580 angstrom
           Maximum rank =  0   Radius =  0.325 angstrom
                   Q00  =   0.077011

C          x = -0.984693  y = -0.059497  z = -2.193547 angstrom
           Maximum rank =  0   Radius =  0.650 angstrom
                   Q00  =  -0.032474

C          x = -1.461693  y = -1.368497  z = -2.852547 angstrom
           Maximum rank =  0   Radius =  0.650 angstrom
                   Q00  =  -0.246109

C          x =  0.109307  y = -0.286497  z = -1.174547 angstrom
           Maximum rank =  0   Radius =  0.650 angstrom
                   Q00  =  -0.147898

C          x = -0.082693  y = -1.150497  z = -0.114547 angstrom
           Maximum rank =  0   Radius =  0.650 angstrom
                   Q00  =   0.021644

C          x =  1.316307  y =  0.372503  z = -1.277547 angstrom
           Maximum rank =  0   Radius =  0.650 angstrom
                   Q00  =  -0.007666

C          x =  0.928307  y = -1.404497  z =  0.786453 angstrom
           Maximum rank =  0   Radius =  0.650 angstrom
                   Q00  =  -0.167374

C          x =  2.353307  y =  0.121503  z = -0.371547 angstrom
           Maximum rank =  0   Radius =  0.650 angstrom
                   Q00  =  -0.120216

C          x =  2.146307  y = -0.777497  z =  0.651453 angstrom
           Maximum rank =  0   Radius =  0.650 angstrom
                   Q00  =   0.285810

O          x =  3.155307  y = -1.080497  z =  1.541453 angstrom
           Maximum rank =  0   Radius =  0.650 angstrom
                   Q00  =  -0.661564

H          x = -0.630693  y =  0.619503  z = -2.970547 angstrom
           Maximum rank =  0   Radius =  0.325 angstrom
                   Q00  =   0.064408

H          x = -1.830693  y =  0.414503  z = -1.696547 angstrom
           Maximum rank =  0   Radius =  0.325 angstrom
                   Q00  =   0.073047

H          x = -1.875693  y = -2.003497  z = -2.074547 angstrom
           Maximum rank =  0   Radius =  0.325 angstrom
                   Q00  =   0.076557

H          x = -1.033693  y = -1.653497  z =  0.006453 angstrom
           Maximum rank =  0   Radius =  0.325 angstrom
                   Q00  =   0.068065

H          x =  1.480307  y =  1.073503  z = -2.087547 angstrom
           Maximum rank =  0   Radius =  0.325 angstrom
                   Q00  =   0.064918

H          x =  0.760307  y = -2.106497  z =  1.590453 angstrom
           Maximum rank =  0   Radius =  0.325 angstrom
                   Q00  =   0.068878

H          x =  3.309307  y =  0.616503  z = -0.469547 angstrom
           Maximum rank =  0   Radius =  0.325 angstrom
                   Q00  =   0.082524

H          x =  2.933307  y = -1.823497  z =  2.112453 angstrom
           Maximum rank =  0   Radius =  0.325 angstrom
                   Q00  =   0.406696

H          x = -0.622513  y = -1.909535  z = -3.314132 angstrom
           Maximum rank =  0   Radius =  0.325 angstrom
                   Q00  =   0.085000

H          x = -2.258373  y = -1.171336  z = -3.584964 angstrom
           Maximum rank =  0   Radius =  0.325 angstrom
                   Q00  =   0.087076

Total multipoles referred to origin at
           x =   0.000000,  y =    0.000000,  z =    0.000000 angstrom
                   Q00  =  -0.000000

Finished at 22:9:54 on 28 Apr 2020

  DMA results are available in the Python driver through the
	  variable('DMA DISTRIBUTED MULTIPOLES')
  and
	  variable('DMA TOTAL MULTIPOLES')
  commands.

    Psi4 stopped on: Tuesday, 28 April 2020 10:09PM
    Psi4 wall time for execution: 0:05:27.23

*** Psi4 exiting successfully. Buy a developer a beer!
