                               Psi4 1.3.2 release

  ==> Input File <==

--------------------------------------------------------------------------
import numpy as np
set {scf_type pk
basis cc-pvdz
d_convergence 10
gdma_switch   0
gdma_limit    0
gdma_origin   [ 0.0,  0.0,  0.0 ]
}
molecule test {
    units Angstrom
    0 1
    --
    0 1
    C                0.887014706333879     0.957383762183175    -3.093516416005460
    C               -1.604985293666121     0.218383762183175     0.362483583994541
    C               -1.597985293666121    -0.667616237816825    -0.709516416005459
    C               -0.785985293666121     1.340383762183175     0.348483583994541
    C               -0.781985293666121    -0.433616237816825    -1.809516416005459
    C                0.035014706333879     1.578383762183175    -0.778516416005459
    C                0.056014706333879     0.677383762183175    -1.858516416005459
    O               -2.436985293666121    -0.018616237816825     1.414483583994541
    H               -2.233985293666121    -1.539616237816825    -0.700516416005459
    H               -2.959985293666121    -0.815616237816825     1.294483583994541
    H               -0.797985293666121     2.030383762183175     1.179483583994541
    H               -0.785985293666121    -1.138616237816825    -2.627516416005459
    H                0.661014706333879     2.459383762183176    -0.806516416005459
    H                0.823014706333879     2.023383762183176    -3.292516416005459
    H                0.440014706333879     0.458383762183175    -3.948516416005460
    H                1.947790706333879     0.673259762183175    -3.030056416005459
    C                1.665014706333879    -0.791616237816825     2.175483583994541
    C                1.632014706333879    -2.320616237816825     2.114483583994541
    C                2.634014706333879    -0.139616237816825     1.168483583994541
    H                0.664014706333879    -0.399616237816825     2.001483583994541
    H                1.975014706333879    -0.467616237816825     3.167483583994540
    H                2.623014706333879    -2.705616237816825     2.355483583994541
    H                2.234014706333879    -0.201616237816825     0.157483583994541
    H                2.751014706333879     0.915383762183175     1.417483583994541
    H                3.608014706333879    -0.625616237816825     1.210483583994541
    H                0.902079706333879    -2.706079337816825     2.841543583994540
    H                1.367112706333879    -2.651743937816825     1.099503583994541

}
e, wfn = energy('scf', return_wfn=True)
gdma(wfn)
dmavals = variable('DMA DISTRIBUTED MULTIPOLES')
charges = np.array(dmavals)
print(charges)
np.save('SSI-076TYR-125ILE-1-dimer.npy', np.array(charges))--------------------------------------------------------------------------

*** tstart() called on ds3
*** at Tue Apr 28 09:34:41 2020

   => Loading Basis Set <=

    Name: CC-PVDZ
    Role: ORBITAL
    Keyword: BASIS
    atoms 1-7, 17-19  entry C          line   138 file /theoryfs2/ds/metcalf/miniconda2/envs/tf2gpu/share/psi4/basis/cc-pvdz.gbs
    atoms 8           entry O          line   198 file /theoryfs2/ds/metcalf/miniconda2/envs/tf2gpu/share/psi4/basis/cc-pvdz.gbs
    atoms 9-16, 20-27 entry H          line    22 file /theoryfs2/ds/metcalf/miniconda2/envs/tf2gpu/share/psi4/basis/cc-pvdz.gbs

         ---------------------------------------------------------
                                   SCF
               by Justin Turney, Rob Parrish, Andy Simmonett
                          and Daniel G. A. Smith
                              RHF Reference
                        1 Threads,    500 MiB Core
         ---------------------------------------------------------

  ==> Geometry <==

    Molecular point group: c1
    Full point group: C1

    Geometry (in Angstrom), charge = 0, multiplicity = 1:

       Center              X                  Y                   Z               Mass
    ------------   -----------------  -----------------  -----------------  -----------------
         C            0.887014706334     0.957383762183    -3.093516416005    12.000000000000
         C           -1.604985293666     0.218383762183     0.362483583995    12.000000000000
         C           -1.597985293666    -0.667616237817    -0.709516416005    12.000000000000
         C           -0.785985293666     1.340383762183     0.348483583995    12.000000000000
         C           -0.781985293666    -0.433616237817    -1.809516416005    12.000000000000
         C            0.035014706334     1.578383762183    -0.778516416005    12.000000000000
         C            0.056014706334     0.677383762183    -1.858516416005    12.000000000000
         O           -2.436985293666    -0.018616237817     1.414483583995    15.994914619570
         H           -2.233985293666    -1.539616237817    -0.700516416005     1.007825032230
         H           -2.959985293666    -0.815616237817     1.294483583995     1.007825032230
         H           -0.797985293666     2.030383762183     1.179483583995     1.007825032230
         H           -0.785985293666    -1.138616237817    -2.627516416005     1.007825032230
         H            0.661014706334     2.459383762183    -0.806516416005     1.007825032230
         H            0.823014706334     2.023383762183    -3.292516416005     1.007825032230
         H            0.440014706334     0.458383762183    -3.948516416005     1.007825032230
         H            1.947790706334     0.673259762183    -3.030056416005     1.007825032230
         C            1.665014706334    -0.791616237817     2.175483583995    12.000000000000
         C            1.632014706334    -2.320616237817     2.114483583995    12.000000000000
         C            2.634014706334    -0.139616237817     1.168483583995    12.000000000000
         H            0.664014706334    -0.399616237817     2.001483583995     1.007825032230
         H            1.975014706334    -0.467616237817     3.167483583995     1.007825032230
         H            2.623014706334    -2.705616237817     2.355483583995     1.007825032230
         H            2.234014706334    -0.201616237817     0.157483583995     1.007825032230
         H            2.751014706334     0.915383762183     1.417483583995     1.007825032230
         H            3.608014706334    -0.625616237817     1.210483583995     1.007825032230
         H            0.902079706334    -2.706079337817     2.841543583995     1.007825032230
         H            1.367112706334    -2.651743937817     1.099503583995     1.007825032230

  Running in c1 symmetry.

  Rotational constants: A =      0.03598  B =      0.02473  C =      0.01848 [cm^-1]
  Rotational constants: A =   1078.62138  B =    741.31201  C =    554.01781 [MHz]
  Nuclear repulsion =  597.719032978298742

  Charge       = 0
  Multiplicity = 1
  Electrons    = 84
  Nalpha       = 42
  Nbeta        = 42

  ==> Algorithm <==

  SCF Algorithm Type is PK.
  DIIS enabled.
  MOM disabled.
  Fractional occupation disabled.
  Guess Type is SAD.
  Energy threshold   = 1.00e-06
  Density threshold  = 1.00e-10
  Integral threshold = 0.00e+00

  ==> Primary Basis <==

  Basis Set: CC-PVDZ
    Blend: CC-PVDZ
    Number of shells: 114
    Number of basis function: 234
    Number of Cartesian functions: 245
    Spherical Harmonics?: true
    Max angular momentum: 2

  ==> Pre-Iterations <==

   -------------------------------------------------------
    Irrep   Nso     Nmo     Nalpha   Nbeta   Ndocc  Nsocc
   -------------------------------------------------------
     A        234     234       0       0       0       0
   -------------------------------------------------------
    Total     234     234      42      42      42       0
   -------------------------------------------------------

  ==> Integral Setup <==

  Using integral reordering PK algorithm.
  Sizing the integral batches needed.
  Building batch lookup table.
   Calculation information:
      Number of atoms:                  27
      Number of AO shells:             114
      Number of primitives:            322
      Number of atomic orbitals:       245
      Number of basis functions:       234

      Integral cutoff                 1.00e-12
      Number of threads:                 1

	Batch   1 pq = [       0,    9405] index = [             0,44231715] size =     44231715
	Batch   2 pq = [    9405,   13301] index = [      44231715,88464951] size =     44233236
	Batch   3 pq = [   13301,   16290] index = [      88464951,132690195] size =     44225244
	Batch   4 pq = [   16290,   18810] index = [     132690195,176917455] size =     44227260
	Batch   5 pq = [   18810,   21030] index = [     176917455,221140965] size =     44223510
	Batch   6 pq = [   21030,   23037] index = [     221140965,265363203] size =     44222238
	Batch   7 pq = [   23037,   24883] index = [     265363203,309594286] size =     44231083
	Batch   8 pq = [   24883,   26601] index = [     309594286,353819901] size =     44225615
	Batch   9 pq = [   26601,   27495] index = [     353819901,378001260] size =     24181359
  Task number: 35
  Buffer size: 11059200
  Buffer per thread: 2
  We computed 22229728 shell quartets total.
  Whereas there are 21487290 unique shell quartets.
     3.46 percent of shell quartets recomputed by reordering.

  ==> DiskJK: Disk-Based J/K Matrices <==

    J tasked:                  Yes
    K tasked:                  Yes
    wK tasked:                  No
    Memory [MiB]:              375
    Schwarz Cutoff:          1E-12

    OpenMP threads:              1

  Minimum eigenvalue in the overlap matrix is 3.3282617029E-04.
  Using Symmetric Orthogonalization.

  SCF Guess: Superposition of Atomic Densities via on-the-fly atomic UHF.

  ==> Iterations <==

                        Total Energy        Delta E     RMS |[F,P]|

   @RHF iter SAD:  -461.63102279007023   -4.61631e+02   0.00000e+00
   @RHF iter   1:  -462.60803361535773   -9.77011e-01   2.80710e-03 DIIS
   @RHF iter   2:  -462.84849149443289   -2.40458e-01   1.19167e-03 DIIS
   @RHF iter   3:  -462.88771032045372   -3.92188e-02   2.65121e-04 DIIS
   @RHF iter   4:  -462.89092736834669   -3.21705e-03   9.97016e-05 DIIS
   @RHF iter   5:  -462.89124455707378   -3.17189e-04   2.11033e-05 DIIS
   @RHF iter   6:  -462.89126480502222   -2.02479e-05   6.60330e-06 DIIS
   @RHF iter   7:  -462.89126698606429   -2.18104e-06   1.97291e-06 DIIS
   @RHF iter   8:  -462.89126728326801   -2.97204e-07   7.83446e-07 DIIS
   @RHF iter   9:  -462.89126734304159   -5.97736e-08   3.66117e-07 DIIS
   @RHF iter  10:  -462.89126735660244   -1.35609e-08   1.61907e-07 DIIS
   @RHF iter  11:  -462.89126736119960   -4.59715e-09   6.28043e-08 DIIS
   @RHF iter  12:  -462.89126736182243   -6.22833e-10   2.41015e-08 DIIS
   @RHF iter  13:  -462.89126736187495   -5.25233e-11   8.23007e-09 DIIS
   @RHF iter  14:  -462.89126736187831   -3.35376e-12   2.14415e-09 DIIS
   @RHF iter  15:  -462.89126736187802    2.84217e-13   7.88057e-10 DIIS
   @RHF iter  16:  -462.89126736188030   -2.27374e-12   3.13582e-10 DIIS
   @RHF iter  17:  -462.89126736188308   -2.78533e-12   1.44315e-10 DIIS
   @RHF iter  18:  -462.89126736188030    2.78533e-12   7.01997e-11 DIIS
  Energy and wave function converged.

  ==> Post-Iterations <==

    Orbital Energies [Eh]
    ---------------------

    Doubly Occupied:

       1A    -20.584016     2A    -11.301042     3A    -11.244013
       4A    -11.239961     5A    -11.236629     6A    -11.234558
       7A    -11.233388     8A    -11.228915     9A    -11.210468
      10A    -11.208112    11A    -11.204718    12A     -1.401812
      13A     -1.149652    14A     -1.040323    15A     -1.037816
      16A     -1.016932    17A     -0.927978    18A     -0.915823
      19A     -0.846139    20A     -0.803333    21A     -0.786741
      22A     -0.734132    23A     -0.669461    24A     -0.643172
      25A     -0.616234    26A     -0.607109    27A     -0.587287
      28A     -0.587044    29A     -0.583076    30A     -0.572032
      31A     -0.567434    32A     -0.540589    33A     -0.527467
      34A     -0.524642    35A     -0.498315    36A     -0.487009
      37A     -0.467999    38A     -0.461884    39A     -0.458989
      40A     -0.455839    41A     -0.337672    42A     -0.303590

    Virtual:

      43A      0.126117    44A      0.153394    45A      0.172938
      46A      0.179904    47A      0.199417    48A      0.209437
      49A      0.216826    50A      0.241972    51A      0.244542
      52A      0.248674    53A      0.263987    54A      0.265553
      55A      0.276376    56A      0.285517    57A      0.290255
      58A      0.302882    59A      0.317107    60A      0.336766
      61A      0.369118    62A      0.376376    63A      0.382214
      64A      0.431893    65A      0.440923    66A      0.452486
      67A      0.479276    68A      0.493876    69A      0.512064
      70A      0.576696    71A      0.595990    72A      0.598355
      73A      0.614974    74A      0.626511    75A      0.633225
      76A      0.641589    77A      0.659896    78A      0.672253
      79A      0.683239    80A      0.703490    81A      0.725277
      82A      0.736840    83A      0.742070    84A      0.759872
      85A      0.767031    86A      0.771315    87A      0.786180
      88A      0.800083    89A      0.816673    90A      0.839411
      91A      0.847220    92A      0.851621    93A      0.866218
      94A      0.875242    95A      0.878110    96A      0.881830
      97A      0.892278    98A      0.894158    99A      0.908701
     100A      0.911369   101A      0.913916   102A      0.919146
     103A      0.929582   104A      0.934436   105A      0.936619
     106A      0.944931   107A      0.953165   108A      0.963343
     109A      0.974362   110A      0.999388   111A      1.018632
     112A      1.040654   113A      1.046697   114A      1.063558
     115A      1.114494   116A      1.128063   117A      1.134103
     118A      1.146696   119A      1.174841   120A      1.181126
     121A      1.212722   122A      1.240047   123A      1.250197
     124A      1.254997   125A      1.278350   126A      1.291876
     127A      1.303264   128A      1.313863   129A      1.316629
     130A      1.339927   131A      1.358070   132A      1.389364
     133A      1.399773   134A      1.473227   135A      1.485171
     136A      1.486039   137A      1.499959   138A      1.535045
     139A      1.542330   140A      1.553294   141A      1.606296
     142A      1.623078   143A      1.657160   144A      1.682683
     145A      1.688845   146A      1.694179   147A      1.701470
     148A      1.707929   149A      1.734525   150A      1.754750
     151A      1.784233   152A      1.795272   153A      1.810637
     154A      1.862735   155A      1.871792   156A      1.875332
     157A      1.884170   158A      1.896622   159A      1.902457
     160A      1.908170   161A      1.912457   162A      1.917436
     163A      1.932940   164A      1.938478   165A      1.949672
     166A      1.955826   167A      1.967255   168A      1.977536
     169A      1.978295   170A      1.991780   171A      1.995081
     172A      2.000951   173A      2.006701   174A      2.027124
     175A      2.036781   176A      2.050273   177A      2.054835
     178A      2.060657   179A      2.066273   180A      2.084609
     181A      2.138861   182A      2.143437   183A      2.146770
     184A      2.162387   185A      2.176381   186A      2.198061
     187A      2.231027   188A      2.256749   189A      2.266307
     190A      2.290127   191A      2.305086   192A      2.311022
     193A      2.327896   194A      2.332652   195A      2.349875
     196A      2.397352   197A      2.425861   198A      2.454662
     199A      2.475733   200A      2.482982   201A      2.507424
     202A      2.532296   203A      2.544480   204A      2.574740
     205A      2.592772   206A      2.603686   207A      2.628823
     208A      2.633180   209A      2.656261   210A      2.743900
     211A      2.766187   212A      2.773225   213A      2.777790
     214A      2.787479   215A      2.802875   216A      2.821208
     217A      2.834492   218A      2.855534   219A      2.899631
     220A      2.933182   221A      2.957732   222A      2.981148
     223A      2.999116   224A      3.011048   225A      3.075638
     226A      3.078949   227A      3.108395   228A      3.250316
     229A      3.271147   230A      3.348830   231A      3.578431
     232A      3.665270   233A      3.970800   234A      4.190292

    Final Occupation by Irrep:
              A
    DOCC [    42 ]

  @RHF Final Energy:  -462.89126736188030

   => Energetics <=

    Nuclear Repulsion Energy =            597.7190329782987419
    One-Electron Energy =               -1813.0539156734307653
    Two-Electron Energy =                 752.4436153332516142
    Total Energy =                       -462.8912673618802955

Computation Completed

Properties will be evaluated at   0.000000,   0.000000,   0.000000 [a0]

Properties computed using the SCF density matrix

  Nuclear Dipole Moment: [e a0]
     X:    12.3799      Y:    -4.3983      Z:     2.1810

  Electronic Dipole Moment: [e a0]
     X:   -12.5663      Y:     4.0751      Z:    -2.6255

  Dipole Moment: [e a0]
     X:    -0.1864      Y:    -0.3232      Z:    -0.4445     Total:     0.5803

  Dipole Moment: [D]
     X:    -0.4738      Y:    -0.8215      Z:    -1.1297     Total:     1.4750

*** tstop() called on ds3 at Tue Apr 28 09:39:04 2020
Module time:
	user time   =     162.47 seconds =       2.71 minutes
	system time =      60.29 seconds =       1.00 minutes
	total time  =        263 seconds =       4.38 minutes
Total time:
	user time   =     162.47 seconds =       2.71 minutes
	system time =      60.29 seconds =       1.00 minutes
	total time  =        263 seconds =       4.38 minutes
                                     G D M A

                                 by Anthony Stone

                           version 2.2.06, 22 June 2011

               Distributed Multipoles from Gaussian wavefunctions

Starting at 9:39:5 on 28 Apr 2020

Using SCF density matrix from file ./SSI/SSI-076TYR-125ILE-1-dimer.test.10843.fchk

                         Distributed Multipole Analysis

Standard DMA

Positions and radii in angstrom
Multipole moments in atomic units, ea_0^k for rank k

C          x =  0.887015  y =  0.957384  z = -3.093516 angstrom
           Maximum rank =  0   Radius =  0.650 angstrom
                   Q00  =  -0.198408

C          x = -1.604985  y =  0.218384  z =  0.362484 angstrom
           Maximum rank =  0   Radius =  0.650 angstrom
                   Q00  =   0.307571

C          x = -1.597985  y = -0.667616  z = -0.709516 angstrom
           Maximum rank =  0   Radius =  0.650 angstrom
                   Q00  =  -0.128789

C          x = -0.785985  y =  1.340384  z =  0.348484 angstrom
           Maximum rank =  0   Radius =  0.650 angstrom
                   Q00  =  -0.124829

C          x = -0.781985  y = -0.433616  z = -1.809516 angstrom
           Maximum rank =  0   Radius =  0.650 angstrom
                   Q00  =   0.035931

C          x =  0.035015  y =  1.578384  z = -0.778516 angstrom
           Maximum rank =  0   Radius =  0.650 angstrom
                   Q00  =  -0.058400

C          x =  0.056015  y =  0.677384  z = -1.858516 angstrom
           Maximum rank =  0   Radius =  0.650 angstrom
                   Q00  =  -0.141735

O          x = -2.436985  y = -0.018616  z =  1.414484 angstrom
           Maximum rank =  0   Radius =  0.650 angstrom
                   Q00  =  -0.677123

H          x = -2.233985  y = -1.539616  z = -0.700516 angstrom
           Maximum rank =  0   Radius =  0.325 angstrom
                   Q00  =   0.070186

H          x = -2.959985  y = -0.815616  z =  1.294484 angstrom
           Maximum rank =  0   Radius =  0.325 angstrom
                   Q00  =   0.407651

H          x = -0.797985  y =  2.030384  z =  1.179484 angstrom
           Maximum rank =  0   Radius =  0.325 angstrom
                   Q00  =   0.084782

H          x = -0.785985  y = -1.138616  z = -2.627516 angstrom
           Maximum rank =  0   Radius =  0.325 angstrom
                   Q00  =   0.069930

H          x =  0.661015  y =  2.459384  z = -0.806516 angstrom
           Maximum rank =  0   Radius =  0.325 angstrom
                   Q00  =   0.067946

H          x =  0.823015  y =  2.023384  z = -3.292516 angstrom
           Maximum rank =  0   Radius =  0.325 angstrom
                   Q00  =   0.096677

H          x =  0.440015  y =  0.458384  z = -3.948516 angstrom
           Maximum rank =  0   Radius =  0.325 angstrom
                   Q00  =   0.096766

H          x =  1.947791  y =  0.673260  z = -3.030056 angstrom
           Maximum rank =  0   Radius =  0.325 angstrom
                   Q00  =   0.100328

C          x =  1.665015  y = -0.791616  z =  2.175484 angstrom
           Maximum rank =  0   Radius =  0.650 angstrom
                   Q00  =  -0.083962

C          x =  1.632015  y = -2.320616  z =  2.114484 angstrom
           Maximum rank =  0   Radius =  0.650 angstrom
                   Q00  =  -0.235025

C          x =  2.634015  y = -0.139616  z =  1.168484 angstrom
           Maximum rank =  0   Radius =  0.650 angstrom
                   Q00  =  -0.253507

H          x =  0.664015  y = -0.399616  z =  2.001484 angstrom
           Maximum rank =  0   Radius =  0.325 angstrom
                   Q00  =   0.057868

H          x =  1.975015  y = -0.467616  z =  3.167484 angstrom
           Maximum rank =  0   Radius =  0.325 angstrom
                   Q00  =   0.038150

H          x =  2.623015  y = -2.705616  z =  2.355484 angstrom
           Maximum rank =  0   Radius =  0.325 angstrom
                   Q00  =   0.074103

H          x =  2.234015  y = -0.201616  z =  0.157484 angstrom
           Maximum rank =  0   Radius =  0.325 angstrom
                   Q00  =   0.088817

H          x =  2.751015  y =  0.915384  z =  1.417484 angstrom
           Maximum rank =  0   Radius =  0.325 angstrom
                   Q00  =   0.078109

H          x =  3.608015  y = -0.625616  z =  1.210484 angstrom
           Maximum rank =  0   Radius =  0.325 angstrom
                   Q00  =   0.070712

H          x =  0.902080  y = -2.706079  z =  2.841544 angstrom
           Maximum rank =  0   Radius =  0.325 angstrom
                   Q00  =   0.080818

H          x =  1.367113  y = -2.651744  z =  1.099504 angstrom
           Maximum rank =  0   Radius =  0.325 angstrom
                   Q00  =   0.075434

Total multipoles referred to origin at
           x =   0.000000,  y =    0.000000,  z =    0.000000 angstrom
                   Q00  =  -0.000000

Finished at 9:39:5 on 28 Apr 2020

  DMA results are available in the Python driver through the
	  variable('DMA DISTRIBUTED MULTIPOLES')
  and
	  variable('DMA TOTAL MULTIPOLES')
  commands.

    Psi4 stopped on: Tuesday, 28 April 2020 09:39AM
    Psi4 wall time for execution: 0:04:23.44

*** Psi4 exiting successfully. Buy a developer a beer!
