                               Psi4 1.3.2 release

  ==> Input File <==

--------------------------------------------------------------------------
import numpy as np
set {scf_type pk
basis cc-pvdz
d_convergence 10
gdma_switch   0
gdma_limit    0
gdma_origin   [ 0.0,  0.0,  0.0 ]
}
molecule test {
    units Angstrom
    0 1
    --
    0 1
    C                0.919332714534836     1.250340080959497    -0.615539314801485
    C                2.127332714534836     0.593340080959497    -1.320539314801485
    C               -0.037667285465164     1.971340080959497    -1.541539314801485
    H                0.352332714534836     0.473340080959497    -0.108539314801485
    H                1.271332714534835     1.946340080959497     0.147460685198515
    H                2.786332714534836     1.371340080959497    -1.710539314801485
    H               -0.422667285465164     1.294340080959497    -2.302539314801485
    H               -0.885667285465164     2.342340080959497    -0.965539314801485
    H                1.765011014534836    -0.066576919040503    -2.122557314801485
    H                2.679528014534836     0.028186080959497    -0.555241314801485
    H                0.472381714534836     2.826573080959497    -2.008900314801485
    C               -1.093667285465164    -1.248659919040503     1.453460685198515
    C               -1.846667285465164    -2.479659919040503     1.974460685198515
    H               -0.203667285465164    -1.570659919040503     0.912460685198515
    H               -1.738667285465165    -0.696659919040503     0.769460685198515
    H               -0.810667285465164    -0.600659919040503     2.282460685198515
    H               -2.102667285465164    -3.085659919040503     1.106460685198515
    H               -1.202182285465164    -3.066969919040503     2.645063685198514
    H               -2.778298285465164    -2.227599919040503     2.502217685198515

}
e, wfn = energy('scf', return_wfn=True)
gdma(wfn)
dmavals = variable('DMA DISTRIBUTED MULTIPOLES')
charges = np.array(dmavals)
print(charges)
np.save('SSI-036GLN-105LEU-1-dimer.npy', np.array(charges))--------------------------------------------------------------------------

*** tstart() called on ds3
*** at Tue Apr 28 12:26:27 2020

   => Loading Basis Set <=

    Name: CC-PVDZ
    Role: ORBITAL
    Keyword: BASIS
    atoms 1-3, 12-13  entry C          line   138 file /theoryfs2/ds/metcalf/miniconda2/envs/tf2gpu/share/psi4/basis/cc-pvdz.gbs
    atoms 4-11, 14-19 entry H          line    22 file /theoryfs2/ds/metcalf/miniconda2/envs/tf2gpu/share/psi4/basis/cc-pvdz.gbs

         ---------------------------------------------------------
                                   SCF
               by Justin Turney, Rob Parrish, Andy Simmonett
                          and Daniel G. A. Smith
                              RHF Reference
                        1 Threads,    500 MiB Core
         ---------------------------------------------------------

  ==> Geometry <==

    Molecular point group: c1
    Full point group: C1

    Geometry (in Angstrom), charge = 0, multiplicity = 1:

       Center              X                  Y                   Z               Mass
    ------------   -----------------  -----------------  -----------------  -----------------
         C            0.919332714535     1.250340080959    -0.615539314801    12.000000000000
         C            2.127332714535     0.593340080959    -1.320539314801    12.000000000000
         C           -0.037667285465     1.971340080959    -1.541539314801    12.000000000000
         H            0.352332714535     0.473340080959    -0.108539314801     1.007825032230
         H            1.271332714535     1.946340080959     0.147460685199     1.007825032230
         H            2.786332714535     1.371340080959    -1.710539314801     1.007825032230
         H           -0.422667285465     1.294340080959    -2.302539314801     1.007825032230
         H           -0.885667285465     2.342340080959    -0.965539314801     1.007825032230
         H            1.765011014535    -0.066576919041    -2.122557314801     1.007825032230
         H            2.679528014535     0.028186080959    -0.555241314801     1.007825032230
         H            0.472381714535     2.826573080959    -2.008900314801     1.007825032230
         C           -1.093667285465    -1.248659919041     1.453460685199    12.000000000000
         C           -1.846667285465    -2.479659919041     1.974460685199    12.000000000000
         H           -0.203667285465    -1.570659919041     0.912460685199     1.007825032230
         H           -1.738667285465    -0.696659919041     0.769460685199     1.007825032230
         H           -0.810667285465    -0.600659919041     2.282460685199     1.007825032230
         H           -2.102667285465    -3.085659919041     1.106460685199     1.007825032230
         H           -1.202182285465    -3.066969919041     2.645063685199     1.007825032230
         H           -2.778298285465    -2.227599919041     2.502217685199     1.007825032230

  Running in c1 symmetry.

  Rotational constants: A =      0.23170  B =      0.03547  C =      0.03234 [cm^-1]
  Rotational constants: A =   6946.18417  B =   1063.42003  C =    969.40357 [MHz]
  Nuclear repulsion =  175.021576903341440

  Charge       = 0
  Multiplicity = 1
  Electrons    = 44
  Nalpha       = 22
  Nbeta        = 22

  ==> Algorithm <==

  SCF Algorithm Type is PK.
  DIIS enabled.
  MOM disabled.
  Fractional occupation disabled.
  Guess Type is SAD.
  Energy threshold   = 1.00e-06
  Density threshold  = 1.00e-10
  Integral threshold = 0.00e+00

  ==> Primary Basis <==

  Basis Set: CC-PVDZ
    Blend: CC-PVDZ
    Number of shells: 72
    Number of basis function: 140
    Number of Cartesian functions: 145
    Spherical Harmonics?: true
    Max angular momentum: 2

  ==> Pre-Iterations <==

   -------------------------------------------------------
    Irrep   Nso     Nmo     Nalpha   Nbeta   Ndocc  Nsocc
   -------------------------------------------------------
     A        140     140       0       0       0       0
   -------------------------------------------------------
    Total     140     140      22      22      22       0
   -------------------------------------------------------

  ==> Integral Setup <==

  Using integral reordering PK algorithm.
  Sizing the integral batches needed.
  Building batch lookup table.
   Calculation information:
      Number of atoms:                  19
      Number of AO shells:              72
      Number of primitives:            180
      Number of atomic orbitals:       145
      Number of basis functions:       140

      Integral cutoff                 1.00e-12
      Number of threads:                 1

	Batch   1 pq = [       0,    9405] index = [             0,44231715] size =     44231715
	Batch   2 pq = [    9405,    9870] index = [      44231715,48713385] size =      4481670
  Task number: 5
  Buffer size: 11059200
  Buffer per thread: 2
  We computed 2695630 shell quartets total.
  Whereas there are 3454506 unique shell quartets.

  ==> DiskJK: Disk-Based J/K Matrices <==

    J tasked:                  Yes
    K tasked:                  Yes
    wK tasked:                  No
    Memory [MiB]:              375
    Schwarz Cutoff:          1E-12

    OpenMP threads:              1

  Minimum eigenvalue in the overlap matrix is 5.0995902217E-03.
  Using Symmetric Orthogonalization.

  SCF Guess: Superposition of Atomic Densities via on-the-fly atomic UHF.

  ==> Iterations <==

                        Total Energy        Delta E     RMS |[F,P]|

   @RHF iter SAD:  -196.34583167015623   -1.96346e+02   0.00000e+00
   @RHF iter   1:  -197.31254876445428   -9.66717e-01   3.79204e-03 DIIS
   @RHF iter   2:  -197.47203530358647   -1.59487e-01   1.62908e-03 DIIS
   @RHF iter   3:  -197.50010686217053   -2.80716e-02   3.25670e-04 DIIS
   @RHF iter   4:  -197.50233645890239   -2.22960e-03   4.87879e-05 DIIS
   @RHF iter   5:  -197.50237633628535   -3.98774e-05   1.48997e-05 DIIS
   @RHF iter   6:  -197.50237979050252   -3.45422e-06   2.57388e-06 DIIS
   @RHF iter   7:  -197.50237991121594   -1.20713e-07   5.00606e-07 DIIS
   @RHF iter   8:  -197.50237991685594   -5.64000e-09   1.32807e-07 DIIS
   @RHF iter   9:  -197.50237991723424   -3.78293e-10   4.37235e-08 DIIS
   @RHF iter  10:  -197.50237991728014   -4.59011e-11   8.98339e-09 DIIS
   @RHF iter  11:  -197.50237991728096   -8.24230e-13   1.61370e-09 DIIS
   @RHF iter  12:  -197.50237991728119   -2.27374e-13   2.90630e-10 DIIS
   @RHF iter  13:  -197.50237991728181   -6.25278e-13   6.45529e-11 DIIS
  Energy and wave function converged.

  ==> Post-Iterations <==

    Orbital Energies [Eh]
    ---------------------

    Doubly Occupied:

       1A    -11.220201     2A    -11.219046     3A    -11.218237
       4A    -11.215888     5A    -11.213655     6A     -1.051258
       7A     -1.018213     8A     -0.924269     9A     -0.838861
      10A     -0.792247    11A     -0.625946    12A     -0.599803
      13A     -0.597183    14A     -0.592134    15A     -0.547979
      16A     -0.535117    17A     -0.503809    18A     -0.487386
      19A     -0.486140    20A     -0.473290    21A     -0.464324
      22A     -0.460076

    Virtual:

      23A      0.170244    24A      0.193799    25A      0.213791
      26A      0.226709    27A      0.232569    28A      0.256803
      29A      0.262801    30A      0.264865    31A      0.272439
      32A      0.285711    33A      0.287724    34A      0.299664
      35A      0.306126    36A      0.328138    37A      0.370314
      38A      0.420707    39A      0.426667    40A      0.574485
      41A      0.591833    42A      0.597149    43A      0.610137
      44A      0.615385    45A      0.617181    46A      0.630489
      47A      0.681541    48A      0.691636    49A      0.722174
      50A      0.781639    51A      0.799723    52A      0.850630
      53A      0.877835    54A      0.886617    55A      0.891040
      56A      0.891738    57A      0.893653    58A      0.895239
      59A      0.900977    60A      0.904567    61A      0.909029
      62A      0.916236    63A      0.925040    64A      0.928208
      65A      0.946353    66A      0.976735    67A      0.977827
      68A      1.052421    69A      1.124869    70A      1.125865
      71A      1.129732    72A      1.141732    73A      1.223466
      74A      1.329333    75A      1.384261    76A      1.462512
      77A      1.472197    78A      1.475741    79A      1.491275
      80A      1.509463    81A      1.585810    82A      1.647972
      83A      1.671653    84A      1.680155    85A      1.685711
      86A      1.689890    87A      1.691781    88A      1.849298
      89A      1.857068    90A      1.868788    91A      1.872563
      92A      1.878062    93A      1.902534    94A      1.907601
      95A      1.921898    96A      1.936606    97A      1.945031
      98A      1.947157    99A      1.957030   100A      1.970536
     101A      1.972791   102A      1.974847   103A      1.977778
     104A      1.998308   105A      2.004516   106A      2.042253
     107A      2.083608   108A      2.092956   109A      2.121183
     110A      2.129963   111A      2.163646   112A      2.274371
     113A      2.293523   114A      2.298031   115A      2.326755
     116A      2.345751   117A      2.355922   118A      2.453546
     119A      2.466599   120A      2.487966   121A      2.537789
     122A      2.551063   123A      2.575510   124A      2.579703
     125A      2.618948   126A      2.624357   127A      2.748830
     128A      2.758253   129A      2.765671   130A      2.786465
     131A      2.795442   132A      2.817707   133A      2.845132
     134A      2.856119   135A      2.915641   136A      2.945619
     137A      2.946281   138A      2.964591   139A      2.980555
     140A      3.088846

    Final Occupation by Irrep:
              A
    DOCC [    22 ]

  @RHF Final Energy:  -197.50237991728181

   => Energetics <=

    Nuclear Repulsion Energy =            175.0215769033414404
    One-Electron Energy =                -610.8777888330820360
    Two-Electron Energy =                 238.3538320124587813
    Total Energy =                       -197.5023799172818144

Computation Completed

Properties will be evaluated at   0.000000,   0.000000,   0.000000 [a0]

Properties computed using the SCF density matrix

  Nuclear Dipole Moment: [e a0]
     X:    -0.7664      Y:    -0.9678      Z:     0.5547

  Electronic Dipole Moment: [e a0]
     X:     0.7404      Y:     0.9482      Z:    -0.5037

  Dipole Moment: [e a0]
     X:    -0.0260      Y:    -0.0196      Z:     0.0511     Total:     0.0606

  Dipole Moment: [D]
     X:    -0.0662      Y:    -0.0499      Z:     0.1298     Total:     0.1540

*** tstop() called on ds3 at Tue Apr 28 12:27:15 2020
Module time:
	user time   =      13.92 seconds =       0.23 minutes
	system time =       5.18 seconds =       0.09 minutes
	total time  =         48 seconds =       0.80 minutes
Total time:
	user time   =      13.92 seconds =       0.23 minutes
	system time =       5.18 seconds =       0.09 minutes
	total time  =         48 seconds =       0.80 minutes
                                     G D M A

                                 by Anthony Stone

                           version 2.2.06, 22 June 2011

               Distributed Multipoles from Gaussian wavefunctions

Starting at 12:27:15 on 28 Apr 2020

Using SCF density matrix from file ./SSI/SSI-036GLN-105LEU-1-dimer.test.14925.fchk

                         Distributed Multipole Analysis

Standard DMA

Positions and radii in angstrom
Multipole moments in atomic units, ea_0^k for rank k

C          x =  0.919333  y =  1.250340  z = -0.615539 angstrom
           Maximum rank =  0   Radius =  0.650 angstrom
                   Q00  =  -0.075871

C          x =  2.127333  y =  0.593340  z = -1.320539 angstrom
           Maximum rank =  0   Radius =  0.650 angstrom
                   Q00  =  -0.249108

C          x = -0.037667  y =  1.971340  z = -1.541539 angstrom
           Maximum rank =  0   Radius =  0.650 angstrom
                   Q00  =  -0.243351

H          x =  0.352333  y =  0.473340  z = -0.108539 angstrom
           Maximum rank =  0   Radius =  0.325 angstrom
                   Q00  =   0.048731

H          x =  1.271333  y =  1.946340  z =  0.147461 angstrom
           Maximum rank =  0   Radius =  0.325 angstrom
                   Q00  =   0.046367

H          x =  2.786333  y =  1.371340  z = -1.710539 angstrom
           Maximum rank =  0   Radius =  0.325 angstrom
                   Q00  =   0.079730

H          x = -0.422667  y =  1.294340  z = -2.302539 angstrom
           Maximum rank =  0   Radius =  0.325 angstrom
                   Q00  =   0.075643

H          x = -0.885667  y =  2.342340  z = -0.965539 angstrom
           Maximum rank =  0   Radius =  0.325 angstrom
                   Q00  =   0.081582

H          x =  1.765011  y = -0.066577  z = -2.122557 angstrom
           Maximum rank =  0   Radius =  0.325 angstrom
                   Q00  =   0.078454

H          x =  2.679528  y =  0.028186  z = -0.555241 angstrom
           Maximum rank =  0   Radius =  0.325 angstrom
                   Q00  =   0.082287

H          x =  0.472382  y =  2.826573  z = -2.008900 angstrom
           Maximum rank =  0   Radius =  0.325 angstrom
                   Q00  =   0.072961

C          x = -1.093667  y = -1.248660  z =  1.453461 angstrom
           Maximum rank =  0   Radius =  0.650 angstrom
                   Q00  =  -0.243513

C          x = -1.846667  y = -2.479660  z =  1.974461 angstrom
           Maximum rank =  0   Radius =  0.650 angstrom
                   Q00  =  -0.232529

H          x = -0.203667  y = -1.570660  z =  0.912461 angstrom
           Maximum rank =  0   Radius =  0.325 angstrom
                   Q00  =   0.078363

H          x = -1.738667  y = -0.696660  z =  0.769461 angstrom
           Maximum rank =  0   Radius =  0.325 angstrom
                   Q00  =   0.077218

H          x = -0.810667  y = -0.600660  z =  2.282461 angstrom
           Maximum rank =  0   Radius =  0.325 angstrom
                   Q00  =   0.081604

H          x = -2.102667  y = -3.085660  z =  1.106461 angstrom
           Maximum rank =  0   Radius =  0.325 angstrom
                   Q00  =   0.077977

H          x = -1.202182  y = -3.066970  z =  2.645064 angstrom
           Maximum rank =  0   Radius =  0.325 angstrom
                   Q00  =   0.080595

H          x = -2.778298  y = -2.227600  z =  2.502218 angstrom
           Maximum rank =  0   Radius =  0.325 angstrom
                   Q00  =   0.082859

Total multipoles referred to origin at
           x =   0.000000,  y =    0.000000,  z =    0.000000 angstrom
                   Q00  =  -0.000000

Finished at 12:27:15 on 28 Apr 2020

  DMA results are available in the Python driver through the
	  variable('DMA DISTRIBUTED MULTIPOLES')
  and
	  variable('DMA TOTAL MULTIPOLES')
  commands.

    Psi4 stopped on: Tuesday, 28 April 2020 12:27PM
    Psi4 wall time for execution: 0:00:48.25

*** Psi4 exiting successfully. Buy a developer a beer!
