                               Psi4 1.3.2 release

  ==> Input File <==

--------------------------------------------------------------------------
import numpy as np
set {scf_type pk
basis cc-pvdz
d_convergence 10
gdma_switch   0
gdma_limit    0
gdma_origin   [ 0.0,  0.0,  0.0 ]
}
molecule test {
    units Angstrom
    0 1
    --
    0 1
    C               -0.638688730384672     1.500183313404191    -0.492197425361775
    C               -1.727688730384672     2.527183313404191    -0.220197425361775
    H               -1.045688730384672     0.503183313404191    -0.340197425361775
    H               -0.319688730384672     1.598183313404191    -1.521197425361775
    H                0.233311269615328     1.653183313404191     0.139802574638225
    H               -1.303688730384672     3.519183313404191    -0.386197425361775
    H               -2.087548730384672     2.459803313404191     0.817092574638225
    H               -2.562644730384672     2.386463313404191    -0.922367425361775
    C                0.881311269615328    -1.415816686595809     0.041802574638225
    C                1.487311269615328    -2.613816686595809     0.681802574638225
    H                1.588311269615328    -0.910816686595809    -0.617197425361775
    H                0.043311269615328    -1.731816686595809    -0.574197425361775
    H                0.523311269615328    -0.721816686595809     0.799802574638225
    H                1.901311269615328    -3.253816686595809    -0.097197425361775
    H                2.298215269615328    -2.299386686595809     1.355272574638225
    H                0.704756269615328    -3.175356686595808     1.213102574638225

}
e, wfn = energy('scf', return_wfn=True)
gdma(wfn)
dmavals = variable('DMA DISTRIBUTED MULTIPOLES')
charges = np.array(dmavals)
print(charges)
np.save('SSI-061VAL-066VAL-1-dimer.npy', np.array(charges))--------------------------------------------------------------------------

*** tstart() called on ds3
*** at Tue Apr 28 12:50:22 2020

   => Loading Basis Set <=

    Name: CC-PVDZ
    Role: ORBITAL
    Keyword: BASIS
    atoms 1-2, 9-10  entry C          line   138 file /theoryfs2/ds/metcalf/miniconda2/envs/tf2gpu/share/psi4/basis/cc-pvdz.gbs
    atoms 3-8, 11-16 entry H          line    22 file /theoryfs2/ds/metcalf/miniconda2/envs/tf2gpu/share/psi4/basis/cc-pvdz.gbs

         ---------------------------------------------------------
                                   SCF
               by Justin Turney, Rob Parrish, Andy Simmonett
                          and Daniel G. A. Smith
                              RHF Reference
                        1 Threads,    500 MiB Core
         ---------------------------------------------------------

  ==> Geometry <==

    Molecular point group: c1
    Full point group: C1

    Geometry (in Angstrom), charge = 0, multiplicity = 1:

       Center              X                  Y                   Z               Mass
    ------------   -----------------  -----------------  -----------------  -----------------
         C           -0.638688730385     1.500183313404    -0.492197425362    12.000000000000
         C           -1.727688730385     2.527183313404    -0.220197425362    12.000000000000
         H           -1.045688730385     0.503183313404    -0.340197425362     1.007825032230
         H           -0.319688730385     1.598183313404    -1.521197425362     1.007825032230
         H            0.233311269615     1.653183313404     0.139802574638     1.007825032230
         H           -1.303688730385     3.519183313404    -0.386197425362     1.007825032230
         H           -2.087548730385     2.459803313404     0.817092574638     1.007825032230
         H           -2.562644730385     2.386463313404    -0.922367425362     1.007825032230
         C            0.881311269615    -1.415816686596     0.041802574638    12.000000000000
         C            1.487311269615    -2.613816686596     0.681802574638    12.000000000000
         H            1.588311269615    -0.910816686596    -0.617197425362     1.007825032230
         H            0.043311269615    -1.731816686596    -0.574197425362     1.007825032230
         H            0.523311269615    -0.721816686596     0.799802574638     1.007825032230
         H            1.901311269615    -3.253816686596    -0.097197425362     1.007825032230
         H            2.298215269615    -2.299386686596     1.355272574638     1.007825032230
         H            0.704756269615    -3.175356686596     1.213102574638     1.007825032230

  Running in c1 symmetry.

  Rotational constants: A =      0.96006  B =      0.04436  C =      0.04387 [cm^-1]
  Rotational constants: A =  28781.85050  B =   1329.86792  C =   1315.16996 [MHz]
  Nuclear repulsion =  123.211284425956094

  Charge       = 0
  Multiplicity = 1
  Electrons    = 36
  Nalpha       = 18
  Nbeta        = 18

  ==> Algorithm <==

  SCF Algorithm Type is PK.
  DIIS enabled.
  MOM disabled.
  Fractional occupation disabled.
  Guess Type is SAD.
  Energy threshold   = 1.00e-06
  Density threshold  = 1.00e-10
  Integral threshold = 0.00e+00

  ==> Primary Basis <==

  Basis Set: CC-PVDZ
    Blend: CC-PVDZ
    Number of shells: 60
    Number of basis function: 116
    Number of Cartesian functions: 120
    Spherical Harmonics?: true
    Max angular momentum: 2

  ==> Pre-Iterations <==

   -------------------------------------------------------
    Irrep   Nso     Nmo     Nalpha   Nbeta   Ndocc  Nsocc
   -------------------------------------------------------
     A        116     116       0       0       0       0
   -------------------------------------------------------
    Total     116     116      18      18      18       0
   -------------------------------------------------------

  ==> Integral Setup <==

  Using integral reordering PK algorithm.
  Sizing the integral batches needed.
  Building batch lookup table.
   Calculation information:
      Number of atoms:                  16
      Number of AO shells:              60
      Number of primitives:            148
      Number of atomic orbitals:       120
      Number of basis functions:       116

      Integral cutoff                 1.00e-12
      Number of threads:                 1

	Batch   1 pq = [       0,    6786] index = [             0,23028291] size =     23028291
  Task number: 3
  Buffer size: 11059200
  Buffer per thread: 2
  We computed 1413012 shell quartets total.
  Whereas there are 1675365 unique shell quartets.

  ==> DiskJK: Disk-Based J/K Matrices <==

    J tasked:                  Yes
    K tasked:                  Yes
    wK tasked:                  No
    Memory [MiB]:              375
    Schwarz Cutoff:          1E-12

    OpenMP threads:              1

  Minimum eigenvalue in the overlap matrix is 5.0194202677E-03.
  Using Symmetric Orthogonalization.

  SCF Guess: Superposition of Atomic Densities via on-the-fly atomic UHF.

  ==> Iterations <==

                        Total Energy        Delta E     RMS |[F,P]|

   @RHF iter SAD:  -157.46902907250285   -1.57469e+02   0.00000e+00
   @RHF iter   1:  -158.29755361207185   -8.28525e-01   4.30169e-03 DIIS
   @RHF iter   2:  -158.43590297899431   -1.38349e-01   1.83368e-03 DIIS
   @RHF iter   3:  -158.46020969658051   -2.43067e-02   3.56334e-04 DIIS
   @RHF iter   4:  -158.46210504680258   -1.89535e-03   4.02706e-05 DIIS
   @RHF iter   5:  -158.46212999959238   -2.49528e-05   7.94780e-06 DIIS
   @RHF iter   6:  -158.46213081103264   -8.11440e-07   1.82890e-06 DIIS
   @RHF iter   7:  -158.46213084116411   -3.01315e-08   3.17057e-07 DIIS
   @RHF iter   8:  -158.46213084231948   -1.15537e-09   4.67235e-08 DIIS
   @RHF iter   9:  -158.46213084235504   -3.55556e-11   1.39989e-08 DIIS
   @RHF iter  10:  -158.46213084235728   -2.24532e-12   3.49610e-09 DIIS
   @RHF iter  11:  -158.46213084235737   -8.52651e-14   6.63747e-10 DIIS
   @RHF iter  12:  -158.46213084235688    4.83169e-13   1.11064e-10 DIIS
   @RHF iter  13:  -158.46213084235774   -8.52651e-13   2.56273e-11 DIIS
  Energy and wave function converged.

  ==> Post-Iterations <==

    Orbital Energies [Eh]
    ---------------------

    Doubly Occupied:

       1A    -11.217263     2A    -11.214884     3A    -11.212122
       4A    -11.210610     5A     -1.028818     6A     -1.018816
       7A     -0.840080     8A     -0.826604     9A     -0.605197
      10A     -0.604033    11A     -0.597372    12A     -0.595681
      13A     -0.513911    14A     -0.496621    15A     -0.487385
      16A     -0.485549    17A     -0.477657    18A     -0.472940

    Virtual:

      19A      0.177366    20A      0.195790    21A      0.226166
      22A      0.237415    23A      0.245501    24A      0.262724
      25A      0.266085    26A      0.277640    27A      0.287163
      28A      0.291819    29A      0.303801    30A      0.311104
      31A      0.377796    32A      0.434482    33A      0.561645
      34A      0.598648    35A      0.600128    36A      0.610088
      37A      0.613327    38A      0.661275    39A      0.664145
      40A      0.697899    41A      0.717661    42A      0.788969
      43A      0.858503    44A      0.883642    45A      0.890886
      46A      0.893534    47A      0.895208    48A      0.899434
      49A      0.905512    50A      0.914090    51A      0.917136
      52A      0.917787    53A      0.933123    54A      0.961773
      55A      0.982185    56A      1.005233    57A      1.123832
      58A      1.131057    59A      1.149182    60A      1.178946
      61A      1.213653    62A      1.302791    63A      1.463152
      64A      1.483286    65A      1.499392    66A      1.506066
      67A      1.577812    68A      1.592576    69A      1.675544
      70A      1.680771    71A      1.692689    72A      1.702973
      73A      1.842394    74A      1.854659    75A      1.877549
      76A      1.888950    77A      1.914871    78A      1.940275
      79A      1.943522    80A      1.947994    81A      1.952205
      82A      1.954869    83A      1.960019    84A      1.964437
      85A      1.975921    86A      1.999715    87A      2.031764
      88A      2.074513    89A      2.095514    90A      2.113697
      91A      2.120681    92A      2.139203    93A      2.306289
      94A      2.317341    95A      2.320504    96A      2.387215
      97A      2.453626    98A      2.457102    99A      2.483497
     100A      2.494646   101A      2.559178   102A      2.571291
     103A      2.588694   104A      2.598006   105A      2.759719
     106A      2.769183   107A      2.795682   108A      2.813854
     109A      2.853882   110A      2.856593   111A      2.861337
     112A      2.867250   113A      2.942711   114A      2.955548
     115A      2.975851   116A      2.987818

    Final Occupation by Irrep:
              A
    DOCC [    18 ]

  @RHF Final Energy:  -158.46213084235774

   => Energetics <=

    Nuclear Repulsion Energy =            123.2112844259560944
    One-Electron Energy =                -455.5357444326710947
    Two-Electron Energy =                 173.8623291643572770
    Total Energy =                       -158.4621308423577375

Computation Completed

Properties will be evaluated at   0.000000,   0.000000,   0.000000 [a0]

Properties computed using the SCF density matrix

  Nuclear Dipole Moment: [e a0]
     X:    -0.0251      Y:     0.0253      Z:    -0.1251

  Electronic Dipole Moment: [e a0]
     X:     0.0320      Y:    -0.0297      Z:     0.1005

  Dipole Moment: [e a0]
     X:     0.0069      Y:    -0.0044      Z:    -0.0246     Total:     0.0260

  Dipole Moment: [D]
     X:     0.0176      Y:    -0.0111      Z:    -0.0626     Total:     0.0660

*** tstop() called on ds3 at Tue Apr 28 12:50:32 2020
Module time:
	user time   =       7.68 seconds =       0.13 minutes
	system time =       3.07 seconds =       0.05 minutes
	total time  =         10 seconds =       0.17 minutes
Total time:
	user time   =       7.68 seconds =       0.13 minutes
	system time =       3.07 seconds =       0.05 minutes
	total time  =         10 seconds =       0.17 minutes
                                     G D M A

                                 by Anthony Stone

                           version 2.2.06, 22 June 2011

               Distributed Multipoles from Gaussian wavefunctions

Starting at 12:50:32 on 28 Apr 2020

Using SCF density matrix from file ./SSI/SSI-061VAL-066VAL-1-dimer.test.15474.fchk

                         Distributed Multipole Analysis

Standard DMA

Positions and radii in angstrom
Multipole moments in atomic units, ea_0^k for rank k

C          x = -0.638689  y =  1.500183  z = -0.492197 angstrom
           Maximum rank =  0   Radius =  0.650 angstrom
                   Q00  =  -0.241710

C          x = -1.727689  y =  2.527183  z = -0.220197 angstrom
           Maximum rank =  0   Radius =  0.650 angstrom
                   Q00  =  -0.226764

H          x = -1.045689  y =  0.503183  z = -0.340197 angstrom
           Maximum rank =  0   Radius =  0.325 angstrom
                   Q00  =   0.078299

H          x = -0.319689  y =  1.598183  z = -1.521197 angstrom
           Maximum rank =  0   Radius =  0.325 angstrom
                   Q00  =   0.078272

H          x =  0.233311  y =  1.653183  z =  0.139803 angstrom
           Maximum rank =  0   Radius =  0.325 angstrom
                   Q00  =   0.077806

H          x = -1.303689  y =  3.519183  z = -0.386197 angstrom
           Maximum rank =  0   Radius =  0.325 angstrom
                   Q00  =   0.075870

H          x = -2.087549  y =  2.459803  z =  0.817093 angstrom
           Maximum rank =  0   Radius =  0.325 angstrom
                   Q00  =   0.077952

H          x = -2.562645  y =  2.386463  z = -0.922367 angstrom
           Maximum rank =  0   Radius =  0.325 angstrom
                   Q00  =   0.078765

C          x =  0.881311  y = -1.415817  z =  0.041803 angstrom
           Maximum rank =  0   Radius =  0.650 angstrom
                   Q00  =  -0.224003

C          x =  1.487311  y = -2.613817  z =  0.681803 angstrom
           Maximum rank =  0   Radius =  0.650 angstrom
                   Q00  =  -0.221085

H          x =  1.588311  y = -0.910817  z = -0.617197 angstrom
           Maximum rank =  0   Radius =  0.325 angstrom
                   Q00  =   0.075629

H          x =  0.043311  y = -1.731817  z = -0.574197 angstrom
           Maximum rank =  0   Radius =  0.325 angstrom
                   Q00  =   0.070547

H          x =  0.523311  y = -0.721817  z =  0.799803 angstrom
           Maximum rank =  0   Radius =  0.325 angstrom
                   Q00  =   0.075095

H          x =  1.901311  y = -3.253817  z = -0.097197 angstrom
           Maximum rank =  0   Radius =  0.325 angstrom
                   Q00  =   0.075120

H          x =  2.298215  y = -2.299387  z =  1.355273 angstrom
           Maximum rank =  0   Radius =  0.325 angstrom
                   Q00  =   0.075064

H          x =  0.704756  y = -3.175357  z =  1.213103 angstrom
           Maximum rank =  0   Radius =  0.325 angstrom
                   Q00  =   0.075142

Total multipoles referred to origin at
           x =   0.000000,  y =    0.000000,  z =    0.000000 angstrom
                   Q00  =  -0.000000

Finished at 12:50:32 on 28 Apr 2020

  DMA results are available in the Python driver through the
	  variable('DMA DISTRIBUTED MULTIPOLES')
  and
	  variable('DMA TOTAL MULTIPOLES')
  commands.

    Psi4 stopped on: Tuesday, 28 April 2020 12:50PM
    Psi4 wall time for execution: 0:00:10.47

*** Psi4 exiting successfully. Buy a developer a beer!
