                               Psi4 1.3.2 release

  ==> Input File <==

--------------------------------------------------------------------------
import numpy as np
set {scf_type pk
basis cc-pvdz
d_convergence 10
gdma_switch   0
gdma_limit    0
gdma_origin   [ 0.0,  0.0,  0.0 ]
}
molecule test {
    units Angstrom
    0 1
    --
    0 1
    C               -0.483350116350273    -1.225019666624666     2.171261743279661
    C               -1.617350116350272    -1.916019666624666     1.433261743279661
    C               -0.272350116350273    -2.878019666624667     4.382261743279661
    S               -0.618350116350273    -1.179019666624666     3.985261743279662
    H                0.451649883649727    -1.722019666624666     1.912261743279661
    H               -0.409350116350273    -0.197019666624666     1.816261743279662
    H               -1.685350116350272    -2.943019666624667     1.792261743279661
    H               -1.359350116350272    -1.956019666624667     0.374261743279661
    H                0.685649883649727    -3.171019666624666     3.951261743279662
    H               -0.221350116350273    -2.981019666624667     5.465261743279661
    H               -1.058350116350273    -3.526019666624666     3.994261743279662
    H               -2.596940116350273    -1.430169666624666     1.553111743279662
    C                0.379649883649727     2.702980333375334    -4.724738256720340
    C                0.718649883649727     0.409980333375334    -1.071738256720339
    C                0.690649883649727    -0.230019666624666    -2.304738256720339
    C                0.680649883649727     1.777980333375333    -1.038738256720339
    C                0.586649883649727     0.501980333375334    -3.491738256720339
    C                0.584649883649727     2.511980333375333    -2.221738256720339
    C                0.524649883649727     1.885980333375334    -3.462738256720338
    H                0.813649883649727    -0.160019666624666    -0.159738256720339
    H                0.744649883649727    -1.302019666624666    -2.338738256720339
    H                0.727649883649727     2.287980333375333    -0.089738256720339
    H                0.527649883649727    -0.028019666624666    -4.423738256720339
    H                0.558649883649727     3.589980333375333    -2.164738256720339
    H                1.184649883649727     2.450980333375333    -5.416738256720339
    H                0.493649883649727     3.757980333375333    -4.466738256720340
    H               -0.583700116350273     2.560820333375334    -5.236358256720339

}
e, wfn = energy('scf', return_wfn=True)
gdma(wfn)
dmavals = variable('DMA DISTRIBUTED MULTIPOLES')
charges = np.array(dmavals)
print(charges)
np.save('SSI-085MET-136PHE-1-dimer.npy', np.array(charges))--------------------------------------------------------------------------

*** tstart() called on ds3
*** at Mon Apr 27 22:41:51 2020

   => Loading Basis Set <=

    Name: CC-PVDZ
    Role: ORBITAL
    Keyword: BASIS
    atoms 1-3, 13-19  entry C          line   138 file /theoryfs2/ds/metcalf/miniconda2/envs/tf2gpu/share/psi4/basis/cc-pvdz.gbs
    atoms 4           entry S          line   598 file /theoryfs2/ds/metcalf/miniconda2/envs/tf2gpu/share/psi4/basis/cc-pvdz.gbs
    atoms 5-12, 20-27 entry H          line    22 file /theoryfs2/ds/metcalf/miniconda2/envs/tf2gpu/share/psi4/basis/cc-pvdz.gbs

         ---------------------------------------------------------
                                   SCF
               by Justin Turney, Rob Parrish, Andy Simmonett
                          and Daniel G. A. Smith
                              RHF Reference
                        1 Threads,    500 MiB Core
         ---------------------------------------------------------

  ==> Geometry <==

    Molecular point group: c1
    Full point group: C1

    Geometry (in Angstrom), charge = 0, multiplicity = 1:

       Center              X                  Y                   Z               Mass
    ------------   -----------------  -----------------  -----------------  -----------------
         C           -0.483350116350    -1.225019666625     2.171261743280    12.000000000000
         C           -1.617350116350    -1.916019666625     1.433261743280    12.000000000000
         C           -0.272350116350    -2.878019666625     4.382261743280    12.000000000000
         S           -0.618350116350    -1.179019666625     3.985261743280    31.972071174400
         H            0.451649883650    -1.722019666625     1.912261743280     1.007825032230
         H           -0.409350116350    -0.197019666625     1.816261743280     1.007825032230
         H           -1.685350116350    -2.943019666625     1.792261743280     1.007825032230
         H           -1.359350116350    -1.956019666625     0.374261743280     1.007825032230
         H            0.685649883650    -3.171019666625     3.951261743280     1.007825032230
         H           -0.221350116350    -2.981019666625     5.465261743280     1.007825032230
         H           -1.058350116350    -3.526019666625     3.994261743280     1.007825032230
         H           -2.596940116350    -1.430169666625     1.553111743280     1.007825032230
         C            0.379649883650     2.702980333375    -4.724738256720    12.000000000000
         C            0.718649883650     0.409980333375    -1.071738256720    12.000000000000
         C            0.690649883650    -0.230019666625    -2.304738256720    12.000000000000
         C            0.680649883650     1.777980333375    -1.038738256720    12.000000000000
         C            0.586649883650     0.501980333375    -3.491738256720    12.000000000000
         C            0.584649883650     2.511980333375    -2.221738256720    12.000000000000
         C            0.524649883650     1.885980333375    -3.462738256720    12.000000000000
         H            0.813649883650    -0.160019666625    -0.159738256720     1.007825032230
         H            0.744649883650    -1.302019666625    -2.338738256720     1.007825032230
         H            0.727649883650     2.287980333375    -0.089738256720     1.007825032230
         H            0.527649883650    -0.028019666625    -4.423738256720     1.007825032230
         H            0.558649883650     3.589980333375    -2.164738256720     1.007825032230
         H            1.184649883650     2.450980333375    -5.416738256720     1.007825032230
         H            0.493649883650     3.757980333375    -4.466738256720     1.007825032230
         H           -0.583700116350     2.560820333375    -5.236358256720     1.007825032230

  Running in c1 symmetry.

  Rotational constants: A =      0.09266  B =      0.00759  C =      0.00729 [cm^-1]
  Rotational constants: A =   2777.96389  B =    227.57770  C =    218.64336 [MHz]
  Nuclear repulsion =  613.292410263266788

  Charge       = 0
  Multiplicity = 1
  Electrons    = 92
  Nalpha       = 46
  Nbeta        = 46

  ==> Algorithm <==

  SCF Algorithm Type is PK.
  DIIS enabled.
  MOM disabled.
  Fractional occupation disabled.
  Guess Type is SAD.
  Energy threshold   = 1.00e-06
  Density threshold  = 1.00e-10
  Integral threshold = 0.00e+00

  ==> Primary Basis <==

  Basis Set: CC-PVDZ
    Blend: CC-PVDZ
    Number of shells: 116
    Number of basis function: 238
    Number of Cartesian functions: 249
    Spherical Harmonics?: true
    Max angular momentum: 2

  ==> Pre-Iterations <==

   -------------------------------------------------------
    Irrep   Nso     Nmo     Nalpha   Nbeta   Ndocc  Nsocc
   -------------------------------------------------------
     A        238     238       0       0       0       0
   -------------------------------------------------------
    Total     238     238      46      46      46       0
   -------------------------------------------------------

  ==> Integral Setup <==

  Using integral reordering PK algorithm.
  Sizing the integral batches needed.
  Building batch lookup table.
   Calculation information:
      Number of atoms:                  27
      Number of AO shells:             116
      Number of primitives:            350
      Number of atomic orbitals:       249
      Number of basis functions:       238

      Integral cutoff                 1.00e-12
      Number of threads:                 1

	Batch   1 pq = [       0,    9405] index = [             0,44231715] size =     44231715
	Batch   2 pq = [    9405,   13301] index = [      44231715,88464951] size =     44233236
	Batch   3 pq = [   13301,   16290] index = [      88464951,132690195] size =     44225244
	Batch   4 pq = [   16290,   18810] index = [     132690195,176917455] size =     44227260
	Batch   5 pq = [   18810,   21030] index = [     176917455,221140965] size =     44223510
	Batch   6 pq = [   21030,   23037] index = [     221140965,265363203] size =     44222238
	Batch   7 pq = [   23037,   24883] index = [     265363203,309594286] size =     44231083
	Batch   8 pq = [   24883,   26601] index = [     309594286,353819901] size =     44225615
	Batch   9 pq = [   26601,   28214] index = [     353819901,398029005] size =     44209104
	Batch  10 pq = [   28214,   28441] index = [     398029005,404459461] size =      6430456
  Task number: 37
  Buffer size: 11059200
  Buffer per thread: 2
  We computed 16437502 shell quartets total.
  Whereas there are 23028291 unique shell quartets.

  ==> DiskJK: Disk-Based J/K Matrices <==

    J tasked:                  Yes
    K tasked:                  Yes
    wK tasked:                  No
    Memory [MiB]:              375
    Schwarz Cutoff:          1E-12

    OpenMP threads:              1

  Minimum eigenvalue in the overlap matrix is 2.9093512350E-04.
  Using Symmetric Orthogonalization.

  SCF Guess: Superposition of Atomic Densities via on-the-fly atomic UHF.

  ==> Iterations <==

                        Total Energy        Delta E     RMS |[F,P]|

   @RHF iter SAD:  -784.49576860359264   -7.84496e+02   0.00000e+00
   @RHF iter   1:  -785.30703430879691   -8.11266e-01   2.45105e-03 DIIS
   @RHF iter   2:  -785.51913182464637   -2.12098e-01   9.85238e-04 DIIS
   @RHF iter   3:  -785.54962398344583   -3.04922e-02   2.38297e-04 DIIS
   @RHF iter   4:  -785.55261568537151   -2.99170e-03   4.95591e-05 DIIS
   @RHF iter   5:  -785.55271599327364   -1.00308e-04   1.45632e-05 DIIS
   @RHF iter   6:  -785.55272428361104   -8.29034e-06   4.26111e-06 DIIS
   @RHF iter   7:  -785.55272510738791   -8.23777e-07   1.36979e-06 DIIS
   @RHF iter   8:  -785.55272520726055   -9.98726e-08   3.99244e-07 DIIS
   @RHF iter   9:  -785.55272522470625   -1.74457e-08   1.62110e-07 DIIS
   @RHF iter  10:  -785.55272522834093   -3.63468e-09   7.49109e-08 DIIS
   @RHF iter  11:  -785.55272522936764   -1.02671e-09   2.97968e-08 DIIS
   @RHF iter  12:  -785.55272522955329   -1.85651e-10   1.14034e-08 DIIS
   @RHF iter  13:  -785.55272522957205   -1.87583e-11   4.44350e-09 DIIS
   @RHF iter  14:  -785.55272522957171    3.41061e-13   1.22528e-09 DIIS
   @RHF iter  15:  -785.55272522957125    4.54747e-13   3.74089e-10 DIIS
   @RHF iter  16:  -785.55272522957011    1.13687e-12   1.32705e-10 DIIS
   @RHF iter  17:  -785.55272522957307   -2.95586e-12   5.75279e-11 DIIS
  Energy and wave function converged.

  ==> Post-Iterations <==

    Orbital Energies [Eh]
    ---------------------

    Doubly Occupied:

       1A    -91.932267     2A    -11.258082     3A    -11.253208
       4A    -11.242240     5A    -11.236735     6A    -11.234211
       7A    -11.232214     8A    -11.231513     9A    -11.231297
      10A    -11.230363    11A    -11.227363    12A     -8.936428
      13A     -6.618498    14A     -6.616901    15A     -6.614712
      16A     -1.157195    17A     -1.081446    18A     -1.049306
      19A     -1.011716    20A     -1.000479    21A     -0.935396
      22A     -0.883827    23A     -0.829279    24A     -0.798050
      25A     -0.784530    26A     -0.695961    27A     -0.634951
      28A     -0.632064    29A     -0.631240    30A     -0.606029
      31A     -0.585430    32A     -0.581731    33A     -0.577582
      34A     -0.569855    35A     -0.558393    36A     -0.536960
      37A     -0.531340    38A     -0.512817    39A     -0.491362
      40A     -0.486798    41A     -0.484641    42A     -0.476117
      43A     -0.419412    44A     -0.332555    45A     -0.330214
      46A     -0.327462

    Virtual:

      47A      0.133116    48A      0.139731    49A      0.166644
      50A      0.181796    51A      0.191995    52A      0.202888
      53A      0.213656    54A      0.217595    55A      0.228715
      56A      0.240727    57A      0.243586    58A      0.251254
      59A      0.267123    60A      0.267452    61A      0.278052
      62A      0.285475    63A      0.306403    64A      0.308633
      65A      0.318208    66A      0.347104    67A      0.366733
      68A      0.376680    69A      0.385704    70A      0.455942
      71A      0.467481    72A      0.476834    73A      0.501830
      74A      0.535545    75A      0.564881    76A      0.577163
      77A      0.586712    78A      0.596093    79A      0.610645
      80A      0.623786    81A      0.626088    82A      0.629722
      83A      0.683366    84A      0.687280    85A      0.694349
      86A      0.699296    87A      0.713872    88A      0.725709
      89A      0.734517    90A      0.739235    91A      0.745232
      92A      0.749297    93A      0.754568    94A      0.761946
      95A      0.780371    96A      0.788760    97A      0.808147
      98A      0.817785    99A      0.825271   100A      0.839755
     101A      0.852558   102A      0.856226   103A      0.861654
     104A      0.872366   105A      0.876654   106A      0.881457
     107A      0.885711   108A      0.890562   109A      0.894479
     110A      0.898079   111A      0.906778   112A      0.907736
     113A      0.920788   114A      0.922422   115A      0.934196
     116A      0.939016   117A      0.948845   118A      0.968862
     119A      0.976424   120A      0.986266   121A      1.008931
     122A      1.019737   123A      1.054293   124A      1.089277
     125A      1.127816   126A      1.143903   127A      1.151140
     128A      1.159401   129A      1.181237   130A      1.198951
     131A      1.224286   132A      1.234371   133A      1.249327
     134A      1.254277   135A      1.259123   136A      1.265189
     137A      1.292326   138A      1.304254   139A      1.321216
     140A      1.329354   141A      1.331286   142A      1.343118
     143A      1.363862   144A      1.396174   145A      1.416795
     146A      1.460181   147A      1.509846   148A      1.514445
     149A      1.531255   150A      1.548093   151A      1.606744
     152A      1.643112   153A      1.648231   154A      1.676341
     155A      1.682443   156A      1.685959   157A      1.687753
     158A      1.734584   159A      1.742896   160A      1.766957
     161A      1.791564   162A      1.816284   163A      1.855552
     164A      1.864242   165A      1.873530   166A      1.879429
     167A      1.893049   168A      1.894238   169A      1.899600
     170A      1.902953   171A      1.913507   172A      1.919402
     173A      1.926823   174A      1.934456   175A      1.940526
     176A      1.945897   177A      1.959198   178A      1.960288
     179A      1.965185   180A      1.981811   181A      1.998238
     182A      2.006845   183A      2.020358   184A      2.024233
     185A      2.034117   186A      2.042255   187A      2.060485
     188A      2.079807   189A      2.100032   190A      2.118104
     191A      2.131733   192A      2.136803   193A      2.160395
     194A      2.177921   195A      2.180550   196A      2.202846
     197A      2.218553   198A      2.240755   199A      2.261448
     200A      2.271454   201A      2.299201   202A      2.300968
     203A      2.305679   204A      2.327619   205A      2.347177
     206A      2.355479   207A      2.420934   208A      2.448728
     209A      2.455992   210A      2.462890   211A      2.478024
     212A      2.519652   213A      2.537510   214A      2.546715
     215A      2.573597   216A      2.633941   217A      2.731566
     218A      2.756026   219A      2.762357   220A      2.766339
     221A      2.769720   222A      2.786003   223A      2.798238
     224A      2.803057   225A      2.819446   226A      2.825058
     227A      2.844487   228A      2.850602   229A      2.869243
     230A      2.899368   231A      2.985455   232A      2.996676
     233A      3.016979   234A      3.040737   235A      3.168703
     236A      3.215046   237A      3.312658   238A      3.979728

    Final Occupation by Irrep:
              A
    DOCC [    46 ]

  @RHF Final Energy:  -785.55272522957307

   => Energetics <=

    Nuclear Repulsion Energy =            613.2924102632667882
    One-Electron Energy =               -2290.4299345099661878
    Two-Electron Energy =                 891.5847990171262154
    Total Energy =                       -785.5527252295730705

Computation Completed

Properties will be evaluated at   0.000000,   0.000000,   0.000000 [a0]

Properties computed using the SCF density matrix

  Nuclear Dipole Moment: [e a0]
     X:    -1.6349      Y:    -4.5016      Z:    -3.1175

  Electronic Dipole Moment: [e a0]
     X:     1.7474      Y:     4.0804      Z:     2.5408

  Dipole Moment: [e a0]
     X:     0.1125      Y:    -0.4212      Z:    -0.5767     Total:     0.7229

  Dipole Moment: [D]
     X:     0.2859      Y:    -1.0705      Z:    -1.4657     Total:     1.8374

*** tstop() called on ds3 at Mon Apr 27 22:45:48 2020
Module time:
	user time   =     133.48 seconds =       2.22 minutes
	system time =      58.20 seconds =       0.97 minutes
	total time  =        237 seconds =       3.95 minutes
Total time:
	user time   =     133.48 seconds =       2.22 minutes
	system time =      58.20 seconds =       0.97 minutes
	total time  =        237 seconds =       3.95 minutes
                                     G D M A

                                 by Anthony Stone

                           version 2.2.06, 22 June 2011

               Distributed Multipoles from Gaussian wavefunctions

Starting at 22:45:48 on 27 Apr 2020

Using SCF density matrix from file ./SSI/SSI-085MET-136PHE-1-dimer.test.32098.fchk

                         Distributed Multipole Analysis

Standard DMA

Positions and radii in angstrom
Multipole moments in atomic units, ea_0^k for rank k

C          x = -0.483350  y = -1.225020  z =  2.171262 angstrom
           Maximum rank =  0   Radius =  0.650 angstrom
                   Q00  =  -0.198237

C          x = -1.617350  y = -1.916020  z =  1.433262 angstrom
           Maximum rank =  0   Radius =  0.650 angstrom
                   Q00  =  -0.249378

C          x = -0.272350  y = -2.878020  z =  4.382262 angstrom
           Maximum rank =  0   Radius =  0.650 angstrom
                   Q00  =  -0.358894

S          x = -0.618350  y = -1.179020  z =  3.985262 angstrom
           Maximum rank =  0   Radius =  0.650 angstrom
                   Q00  =   0.122695

H          x =  0.451650  y = -1.722020  z =  1.912262 angstrom
           Maximum rank =  0   Radius =  0.325 angstrom
                   Q00  =   0.053805

H          x = -0.409350  y = -0.197020  z =  1.816262 angstrom
           Maximum rank =  0   Radius =  0.325 angstrom
                   Q00  =   0.085947

H          x = -1.685350  y = -2.943020  z =  1.792262 angstrom
           Maximum rank =  0   Radius =  0.325 angstrom
                   Q00  =   0.077092

H          x = -1.359350  y = -1.956020  z =  0.374262 angstrom
           Maximum rank =  0   Radius =  0.325 angstrom
                   Q00  =   0.088190

H          x =  0.685650  y = -3.171020  z =  3.951262 angstrom
           Maximum rank =  0   Radius =  0.325 angstrom
                   Q00  =   0.082365

H          x = -0.221350  y = -2.981020  z =  5.465262 angstrom
           Maximum rank =  0   Radius =  0.325 angstrom
                   Q00  =   0.121548

H          x = -1.058350  y = -3.526020  z =  3.994262 angstrom
           Maximum rank =  0   Radius =  0.325 angstrom
                   Q00  =   0.083577

H          x = -2.596940  y = -1.430170  z =  1.553112 angstrom
           Maximum rank =  0   Radius =  0.325 angstrom
                   Q00  =   0.094726

C          x =  0.379650  y =  2.702980  z = -4.724738 angstrom
           Maximum rank =  0   Radius =  0.650 angstrom
                   Q00  =  -0.209140

C          x =  0.718650  y =  0.409980  z = -1.071738 angstrom
           Maximum rank =  0   Radius =  0.650 angstrom
                   Q00  =  -0.086660

C          x =  0.690650  y = -0.230020  z = -2.304738 angstrom
           Maximum rank =  0   Radius =  0.650 angstrom
                   Q00  =  -0.014435

C          x =  0.680650  y =  1.777980  z = -1.038738 angstrom
           Maximum rank =  0   Radius =  0.650 angstrom
                   Q00  =  -0.075777

C          x =  0.586650  y =  0.501980  z = -3.491738 angstrom
           Maximum rank =  0   Radius =  0.650 angstrom
                   Q00  =  -0.088736

C          x =  0.584650  y =  2.511980  z = -2.221738 angstrom
           Maximum rank =  0   Radius =  0.650 angstrom
                   Q00  =  -0.024029

C          x =  0.524650  y =  1.885980  z = -3.462738 angstrom
           Maximum rank =  0   Radius =  0.650 angstrom
                   Q00  =  -0.099754

H          x =  0.813650  y = -0.160020  z = -0.159738 angstrom
           Maximum rank =  0   Radius =  0.325 angstrom
                   Q00  =   0.054442

H          x =  0.744650  y = -1.302020  z = -2.338738 angstrom
           Maximum rank =  0   Radius =  0.325 angstrom
                   Q00  =   0.060316

H          x =  0.727650  y =  2.287980  z = -0.089738 angstrom
           Maximum rank =  0   Radius =  0.325 angstrom
                   Q00  =   0.061975

H          x =  0.527650  y = -0.028020  z = -4.423738 angstrom
           Maximum rank =  0   Radius =  0.325 angstrom
                   Q00  =   0.054766

H          x =  0.558650  y =  3.589980  z = -2.164738 angstrom
           Maximum rank =  0   Radius =  0.325 angstrom
                   Q00  =   0.057103

H          x =  1.184650  y =  2.450980  z = -5.416738 angstrom
           Maximum rank =  0   Radius =  0.325 angstrom
                   Q00  =   0.103065

H          x =  0.493650  y =  3.757980  z = -4.466738 angstrom
           Maximum rank =  0   Radius =  0.325 angstrom
                   Q00  =   0.097852

H          x = -0.583700  y =  2.560820  z = -5.236358 angstrom
           Maximum rank =  0   Radius =  0.325 angstrom
                   Q00  =   0.105575

Total multipoles referred to origin at
           x =   0.000000,  y =    0.000000,  z =    0.000000 angstrom
                   Q00  =  -0.000000

Finished at 22:45:48 on 27 Apr 2020

  DMA results are available in the Python driver through the
	  variable('DMA DISTRIBUTED MULTIPOLES')
  and
	  variable('DMA TOTAL MULTIPOLES')
  commands.

    Psi4 stopped on: Monday, 27 April 2020 10:45PM
    Psi4 wall time for execution: 0:03:56.84

*** Psi4 exiting successfully. Buy a developer a beer!
