                               Psi4 1.3.2 release

  ==> Input File <==

--------------------------------------------------------------------------
import numpy as np
set {scf_type pk
basis cc-pvdz
d_convergence 10
gdma_switch   0
gdma_limit    0
gdma_origin   [ 0.0,  0.0,  0.0 ]
}
molecule test {
    units Angstrom
    1 1
    --
    1 1
    C               -0.367875564901189    -1.242686498534272    -2.237427909313146
    C               -1.855875564901189    -1.124686498534272    -1.928427909313146
    N                0.447124435098811    -1.437686498534272    -1.010427909313146
    H               -0.219875564901189    -2.094686498534272    -2.913427909313146
    H               -0.045875564901189    -0.341686498534272    -2.771427909313146
    H               -2.054875564901189    -0.179686498534272    -1.416427909313146
    H               -2.163875564901189    -1.943686498534272    -1.280427909313146
    H                0.176124435098811    -2.269686498534272    -0.498427909313146
    H                1.427124435098811    -1.542686498534272    -1.255427909313146
    H                0.369124435098811    -0.609686498534272    -0.427427909313146
    H               -2.432147564901189    -1.158666498534272    -2.864777909313146
    C               -0.124875564901189     0.397313501465728     2.518572090686853
    C                0.405124435098811     1.014313501465728     1.239572090686854
    O               -0.251875564901189     0.992313501465728     0.201572090686854
    N                1.614124435098811     1.544313501465728     1.292572090686854
    H               -0.317875564901189     1.174313501465728     3.256572090686854
    H                0.672124435098811    -0.233686498534272     2.918572090686854
    H                1.979124435098811     2.005313501465728     0.471572090686854
    H                2.126124435098811     1.569313501465728     2.163572090686854
    H               -1.016538564901189    -0.225126498534272     2.352732090686854

}
e, wfn = energy('scf', return_wfn=True)
gdma(wfn)
dmavals = variable('DMA DISTRIBUTED MULTIPOLES')
charges = np.array(dmavals)
print(charges)
np.save('SSI-028LYS-317ASN-1-dimer.npy', np.array(charges))--------------------------------------------------------------------------

*** tstart() called on ds3
*** at Sun Apr 26 23:17:11 2020

   => Loading Basis Set <=

    Name: CC-PVDZ
    Role: ORBITAL
    Keyword: BASIS
    atoms 1-2, 12-13  entry C          line   138 file /theoryfs2/ds/metcalf/miniconda2/envs/tf2gpu/share/psi4/basis/cc-pvdz.gbs
    atoms 3, 15       entry N          line   168 file /theoryfs2/ds/metcalf/miniconda2/envs/tf2gpu/share/psi4/basis/cc-pvdz.gbs
    atoms 4-11, 16-20 entry H          line    22 file /theoryfs2/ds/metcalf/miniconda2/envs/tf2gpu/share/psi4/basis/cc-pvdz.gbs
    atoms 14          entry O          line   198 file /theoryfs2/ds/metcalf/miniconda2/envs/tf2gpu/share/psi4/basis/cc-pvdz.gbs

         ---------------------------------------------------------
                                   SCF
               by Justin Turney, Rob Parrish, Andy Simmonett
                          and Daniel G. A. Smith
                              RHF Reference
                        1 Threads,    500 MiB Core
         ---------------------------------------------------------

  ==> Geometry <==

    Molecular point group: c1
    Full point group: C1

    Geometry (in Angstrom), charge = 1, multiplicity = 1:

       Center              X                  Y                   Z               Mass
    ------------   -----------------  -----------------  -----------------  -----------------
         C           -0.367875564901    -1.242686498534    -2.237427909313    12.000000000000
         C           -1.855875564901    -1.124686498534    -1.928427909313    12.000000000000
         N            0.447124435099    -1.437686498534    -1.010427909313    14.003074004430
         H           -0.219875564901    -2.094686498534    -2.913427909313     1.007825032230
         H           -0.045875564901    -0.341686498534    -2.771427909313     1.007825032230
         H           -2.054875564901    -0.179686498534    -1.416427909313     1.007825032230
         H           -2.163875564901    -1.943686498534    -1.280427909313     1.007825032230
         H            0.176124435099    -2.269686498534    -0.498427909313     1.007825032230
         H            1.427124435099    -1.542686498534    -1.255427909313     1.007825032230
         H            0.369124435099    -0.609686498534    -0.427427909313     1.007825032230
         H           -2.432147564901    -1.158666498534    -2.864777909313     1.007825032230
         C           -0.124875564901     0.397313501466     2.518572090687    12.000000000000
         C            0.405124435099     1.014313501466     1.239572090687    12.000000000000
         O           -0.251875564901     0.992313501466     0.201572090687    15.994914619570
         N            1.614124435099     1.544313501466     1.292572090687    14.003074004430
         H           -0.317875564901     1.174313501466     3.256572090687     1.007825032230
         H            0.672124435099    -0.233686498534     2.918572090687     1.007825032230
         H            1.979124435099     2.005313501466     0.471572090687     1.007825032230
         H            2.126124435099     1.569313501466     2.163572090687     1.007825032230
         H           -1.016538564901    -0.225126498534     2.352732090687     1.007825032230

  Running in c1 symmetry.

  Rotational constants: A =      0.14068  B =      0.03456  C =      0.03263 [cm^-1]
  Rotational constants: A =   4217.38982  B =   1035.97119  C =    978.23428 [MHz]
  Nuclear repulsion =  325.895641547027310

  Charge       = 1
  Multiplicity = 1
  Electrons    = 58
  Nalpha       = 29
  Nbeta        = 29

  ==> Algorithm <==

  SCF Algorithm Type is PK.
  DIIS enabled.
  MOM disabled.
  Fractional occupation disabled.
  Guess Type is SAD.
  Energy threshold   = 1.00e-06
  Density threshold  = 1.00e-10
  Integral threshold = 0.00e+00

  ==> Primary Basis <==

  Basis Set: CC-PVDZ
    Blend: CC-PVDZ
    Number of shells: 81
    Number of basis function: 163
    Number of Cartesian functions: 170
    Spherical Harmonics?: true
    Max angular momentum: 2

  ==> Pre-Iterations <==

   -------------------------------------------------------
    Irrep   Nso     Nmo     Nalpha   Nbeta   Ndocc  Nsocc
   -------------------------------------------------------
     A        163     163       0       0       0       0
   -------------------------------------------------------
    Total     163     163      29      29      29       0
   -------------------------------------------------------

  ==> Integral Setup <==

  Using integral reordering PK algorithm.
  Sizing the integral batches needed.
  Building batch lookup table.
   Calculation information:
      Number of atoms:                  20
      Number of AO shells:              81
      Number of primitives:            219
      Number of atomic orbitals:       170
      Number of basis functions:       163

      Integral cutoff                 1.00e-12
      Number of threads:                 1

	Batch   1 pq = [       0,    9405] index = [             0,44231715] size =     44231715
	Batch   2 pq = [    9405,   13366] index = [      44231715,89331661] size =     45099946
  Task number: 9
  Buffer size: 11059200
  Buffer per thread: 2
  We computed 5104573 shell quartets total.
  Whereas there are 5516181 unique shell quartets.

  ==> DiskJK: Disk-Based J/K Matrices <==

    J tasked:                  Yes
    K tasked:                  Yes
    wK tasked:                  No
    Memory [MiB]:              375
    Schwarz Cutoff:          1E-12

    OpenMP threads:              1

  Minimum eigenvalue in the overlap matrix is 4.4628719041E-03.
  Using Symmetric Orthogonalization.

  SCF Guess: Superposition of Atomic Densities via on-the-fly atomic UHF.

  ==> Iterations <==

                        Total Energy        Delta E     RMS |[F,P]|

   @RHF iter SAD:  -341.86567605746433   -3.41866e+02   0.00000e+00
   @RHF iter   1:  -342.43033001888188   -5.64654e-01   3.85447e-03 DIIS
   @RHF iter   2:  -342.60990719935467   -1.79577e-01   1.94115e-03 DIIS
   @RHF iter   3:  -342.64881924000679   -3.89120e-02   4.93297e-04 DIIS
   @RHF iter   4:  -342.65246411727617   -3.64488e-03   1.70096e-04 DIIS
   @RHF iter   5:  -342.65292102896586   -4.56912e-04   2.93358e-05 DIIS
   @RHF iter   6:  -342.65294520153304   -2.41726e-05   1.13574e-05 DIIS
   @RHF iter   7:  -342.65294795901747   -2.75748e-06   3.58634e-06 DIIS
   @RHF iter   8:  -342.65294845238060   -4.93363e-07   1.26160e-06 DIIS
   @RHF iter   9:  -342.65294851476301   -6.23824e-08   3.65111e-07 DIIS
   @RHF iter  10:  -342.65294852011624   -5.35323e-09   1.22698e-07 DIIS
   @RHF iter  11:  -342.65294852062522   -5.08976e-10   3.07651e-08 DIIS
   @RHF iter  12:  -342.65294852065404   -2.88196e-11   7.75458e-09 DIIS
   @RHF iter  13:  -342.65294852065529   -1.25056e-12   1.88391e-09 DIIS
   @RHF iter  14:  -342.65294852065472    5.68434e-13   7.28167e-10 DIIS
   @RHF iter  15:  -342.65294852065585   -1.13687e-12   2.65427e-10 DIIS
   @RHF iter  16:  -342.65294852065466    1.19371e-12   1.07788e-10 DIIS
   @RHF iter  17:  -342.65294852065330    1.36424e-12   5.13155e-11 DIIS
  Energy and wave function converged.

  ==> Post-Iterations <==

    Orbital Energies [Eh]
    ---------------------

    Doubly Occupied:

       1A    -20.667513     2A    -15.862253     3A    -15.733802
       4A    -11.502931     5A    -11.452504     6A    -11.375066
       7A    -11.374913     8A     -1.536241     9A     -1.487833
      10A     -1.366892    11A     -1.188946    12A     -1.138216
      13A     -1.024956    14A     -0.956650    15A     -0.942430
      16A     -0.930981    17A     -0.869495    18A     -0.830430
      19A     -0.809785    20A     -0.770072    21A     -0.753878
      22A     -0.723995    23A     -0.694384    24A     -0.692555
      25A     -0.674081    26A     -0.666611    27A     -0.652135
      28A     -0.571004    29A     -0.562657

    Virtual:

      30A     -0.019516    31A      0.034416    32A      0.041877
      33A      0.046810    34A      0.061359    35A      0.092437
      36A      0.093873    37A      0.102876    38A      0.117355
      39A      0.134397    40A      0.140900    41A      0.152548
      42A      0.161209    43A      0.175272    44A      0.200755
      45A      0.231451    46A      0.250974    47A      0.358913
      48A      0.398799    49A      0.411129    50A      0.428372
      51A      0.452795    52A      0.462245    53A      0.473790
      54A      0.506873    55A      0.513100    56A      0.560527
      57A      0.589497    58A      0.601524    59A      0.621228
      60A      0.641183    61A      0.669553    62A      0.678742
      63A      0.690401    64A      0.701197    65A      0.714490
      66A      0.720999    67A      0.742360    68A      0.744748
      69A      0.752151    70A      0.771405    71A      0.783753
      72A      0.798435    73A      0.815768    74A      0.825519
      75A      0.848786    76A      0.857867    77A      0.890584
      78A      0.914785    79A      0.940814    80A      0.957312
      81A      0.978259    82A      1.002833    83A      1.058917
      84A      1.141379    85A      1.200835    86A      1.204961
      87A      1.224288    88A      1.239124    89A      1.249417
      90A      1.285490    91A      1.316492    92A      1.329343
      93A      1.355332    94A      1.407499    95A      1.432579
      96A      1.493379    97A      1.512342    98A      1.515664
      99A      1.530451   100A      1.541766   101A      1.587853
     102A      1.654867   103A      1.666311   104A      1.690385
     105A      1.713855   106A      1.716831   107A      1.747014
     108A      1.751930   109A      1.763357   110A      1.771469
     111A      1.785818   112A      1.797432   113A      1.803232
     114A      1.811153   115A      1.827273   116A      1.842904
     117A      1.870330   118A      1.896753   119A      1.919540
     120A      1.941494   121A      1.947433   122A      1.974419
     123A      1.990968   124A      2.034524   125A      2.059429
     126A      2.085070   127A      2.119423   128A      2.132316
     129A      2.149534   130A      2.193264   131A      2.212682
     132A      2.301363   133A      2.305575   134A      2.322966
     135A      2.358794   136A      2.374137   137A      2.412774
     138A      2.416698   139A      2.446024   140A      2.457605
     141A      2.490212   142A      2.537948   143A      2.578260
     144A      2.588067   145A      2.614312   146A      2.635440
     147A      2.657994   148A      2.665509   149A      2.698565
     150A      2.744891   151A      2.768702   152A      2.840525
     153A      2.857552   154A      2.890183   155A      2.974018
     156A      2.982805   157A      3.138296   158A      3.149819
     159A      3.236101   160A      3.367220   161A      3.386124
     162A      3.717532   163A      3.783384

    Final Occupation by Irrep:
              A
    DOCC [    29 ]

  @RHF Final Energy:  -342.65294852065330

   => Energetics <=

    Nuclear Repulsion Energy =            325.8956415470273100
    One-Electron Energy =               -1101.4707658071106380
    Two-Electron Energy =                 432.9221757394300880
    Total Energy =                       -342.6529485206532968

Computation Completed

Properties will be evaluated at   0.000000,   0.000000,   0.000000 [a0]

Properties computed using the SCF density matrix

  Nuclear Dipole Moment: [e a0]
     X:    -1.4146      Y:    -5.4801      Z:    -2.1230

  Electronic Dipole Moment: [e a0]
     X:     3.0124      Y:     3.7065      Z:     1.7436

  Dipole Moment: [e a0]
     X:     1.5978      Y:    -1.7736      Z:    -0.3794     Total:     2.4171

  Dipole Moment: [D]
     X:     4.0611      Y:    -4.5080      Z:    -0.9643     Total:     6.1437

*** tstop() called on ds3 at Sun Apr 26 23:17:55 2020
Module time:
	user time   =      32.13 seconds =       0.54 minutes
	system time =      12.36 seconds =       0.21 minutes
	total time  =         44 seconds =       0.73 minutes
Total time:
	user time   =      32.13 seconds =       0.54 minutes
	system time =      12.36 seconds =       0.21 minutes
	total time  =         44 seconds =       0.73 minutes
                                     G D M A

                                 by Anthony Stone

                           version 2.2.06, 22 June 2011

               Distributed Multipoles from Gaussian wavefunctions

Starting at 23:17:55 on 26 Apr 2020

Using SCF density matrix from file ./SSI/SSI-028LYS-317ASN-1-dimer.test.27760.fchk

                         Distributed Multipole Analysis

Standard DMA

Positions and radii in angstrom
Multipole moments in atomic units, ea_0^k for rank k

C          x = -0.367876  y = -1.242686  z = -2.237428 angstrom
           Maximum rank =  0   Radius =  0.650 angstrom
                   Q00  =  -0.039424

C          x = -1.855876  y = -1.124686  z = -1.928428 angstrom
           Maximum rank =  0   Radius =  0.650 angstrom
                   Q00  =  -0.227135

N          x =  0.447124  y = -1.437687  z = -1.010428 angstrom
           Maximum rank =  0   Radius =  0.650 angstrom
                   Q00  =  -0.150748

H          x = -0.219876  y = -2.094686  z = -2.913428 angstrom
           Maximum rank =  0   Radius =  0.325 angstrom
                   Q00  =   0.112341

H          x = -0.045876  y = -0.341686  z = -2.771428 angstrom
           Maximum rank =  0   Radius =  0.325 angstrom
                   Q00  =   0.133905

H          x = -2.054876  y = -0.179686  z = -1.416428 angstrom
           Maximum rank =  0   Radius =  0.325 angstrom
                   Q00  =   0.132350

H          x = -2.163876  y = -1.943687  z = -1.280428 angstrom
           Maximum rank =  0   Radius =  0.325 angstrom
                   Q00  =   0.088669

H          x =  0.176124  y = -2.269686  z = -0.498428 angstrom
           Maximum rank =  0   Radius =  0.325 angstrom
                   Q00  =   0.242095

H          x =  1.427124  y = -1.542686  z = -1.255428 angstrom
           Maximum rank =  0   Radius =  0.325 angstrom
                   Q00  =   0.232302

H          x =  0.369124  y = -0.609686  z = -0.427428 angstrom
           Maximum rank =  0   Radius =  0.325 angstrom
                   Q00  =   0.317635

H          x = -2.432148  y = -1.158666  z = -2.864778 angstrom
           Maximum rank =  0   Radius =  0.325 angstrom
                   Q00  =   0.138574

C          x = -0.124876  y =  0.397314  z =  2.518572 angstrom
           Maximum rank =  0   Radius =  0.650 angstrom
                   Q00  =  -0.266155

C          x =  0.405124  y =  1.014314  z =  1.239572 angstrom
           Maximum rank =  0   Radius =  0.650 angstrom
                   Q00  =   0.797166

O          x = -0.251876  y =  0.992314  z =  0.201572 angstrom
           Maximum rank =  0   Radius =  0.650 angstrom
                   Q00  =  -0.847814

N          x =  1.614124  y =  1.544314  z =  1.292572 angstrom
           Maximum rank =  0   Radius =  0.650 angstrom
                   Q00  =  -0.532216

H          x = -0.317876  y =  1.174314  z =  3.256572 angstrom
           Maximum rank =  0   Radius =  0.325 angstrom
                   Q00  =   0.157830

H          x =  0.672124  y = -0.233686  z =  2.918572 angstrom
           Maximum rank =  0   Radius =  0.325 angstrom
                   Q00  =   0.101003

H          x =  1.979124  y =  2.005314  z =  0.471572 angstrom
           Maximum rank =  0   Radius =  0.325 angstrom
                   Q00  =   0.238296

H          x =  2.126124  y =  1.569314  z =  2.163572 angstrom
           Maximum rank =  0   Radius =  0.325 angstrom
                   Q00  =   0.239357

H          x = -1.016539  y = -0.225126  z =  2.352732 angstrom
           Maximum rank =  0   Radius =  0.325 angstrom
                   Q00  =   0.131970

Total multipoles referred to origin at
           x =   0.000000,  y =    0.000000,  z =    0.000000 angstrom
                   Q00  =   1.000000

Finished at 23:17:55 on 26 Apr 2020

  DMA results are available in the Python driver through the
	  variable('DMA DISTRIBUTED MULTIPOLES')
  and
	  variable('DMA TOTAL MULTIPOLES')
  commands.

    Psi4 stopped on: Sunday, 26 April 2020 11:17PM
    Psi4 wall time for execution: 0:00:44.10

*** Psi4 exiting successfully. Buy a developer a beer!
