                               Psi4 1.3.2 release

  ==> Input File <==

--------------------------------------------------------------------------
import numpy as np
set {scf_type pk
basis cc-pvdz
d_convergence 10
gdma_switch   0
gdma_limit    0
gdma_origin   [ 0.0,  0.0,  0.0 ]
}
molecule test {
    units Angstrom
    0 1
    --
    0 1
    C               -2.838663415185535     1.446627155594651     1.447567705599171
    C                1.169336584814465     0.608627155594651     0.166567705599171
    C                0.359336584814465     1.457627155594651    -0.551432294400829
    C                0.699336584814465     0.020627155594651     1.335567705599171
    C               -0.913663415185535     1.738627155594651    -0.096432294400829
    C               -0.604663415185535     0.289627155594651     1.769567705599171
    C               -1.428663415185535     1.131627155594651     1.021567705599171
    H                2.171336584814465     0.396627155594651    -0.180432294400829
    H                0.731336584814465     1.924627155594651    -1.452432294400829
    H                1.330336584814465    -0.651372844405349     1.897567705599171
    H               -1.528663415185535     2.425627155594651    -0.661432294400829
    H               -0.979663415185535    -0.191372844405349     2.661567705599170
    H               -3.339663415185535     0.516627155594651     1.719567705599171
    H               -3.383663415185535     1.874627155594651     0.604567705599171
    H               -2.885763415185535     2.145111155594651     2.296037705599171
    C                1.725336584814465    -2.287372844405349    -1.924432294400829
    C                1.643336584814465    -3.629372844405349    -2.603432294400829
    H                1.313336584814465    -2.348372844405349    -0.916432294400829
    H                2.766336584814465    -1.970372844405349    -1.863432294400829
    H                1.170336584814465    -1.542372844405349    -2.494432294400829
    H                2.079336584814464    -3.532372844405349    -3.596432294400829
    H                0.584186584814465    -3.911764844405349    -2.695407194400830
    H                2.220916584814465    -4.382616844405349    -2.047535494400829

}
e, wfn = energy('scf', return_wfn=True)
gdma(wfn)
dmavals = variable('DMA DISTRIBUTED MULTIPOLES')
charges = np.array(dmavals)
print(charges)
np.save('SSI-006PHE-053LEU-1-dimer.npy', np.array(charges))--------------------------------------------------------------------------

*** tstart() called on ds3
*** at Mon Apr 27 19:52:52 2020

   => Loading Basis Set <=

    Name: CC-PVDZ
    Role: ORBITAL
    Keyword: BASIS
    atoms 1-7, 16-17  entry C          line   138 file /theoryfs2/ds/metcalf/miniconda2/envs/tf2gpu/share/psi4/basis/cc-pvdz.gbs
    atoms 8-15, 18-23 entry H          line    22 file /theoryfs2/ds/metcalf/miniconda2/envs/tf2gpu/share/psi4/basis/cc-pvdz.gbs

         ---------------------------------------------------------
                                   SCF
               by Justin Turney, Rob Parrish, Andy Simmonett
                          and Daniel G. A. Smith
                              RHF Reference
                        1 Threads,    500 MiB Core
         ---------------------------------------------------------

  ==> Geometry <==

    Molecular point group: c1
    Full point group: C1

    Geometry (in Angstrom), charge = 0, multiplicity = 1:

       Center              X                  Y                   Z               Mass
    ------------   -----------------  -----------------  -----------------  -----------------
         C           -2.838663415186     1.446627155595     1.447567705599    12.000000000000
         C            1.169336584814     0.608627155595     0.166567705599    12.000000000000
         C            0.359336584814     1.457627155595    -0.551432294401    12.000000000000
         C            0.699336584814     0.020627155595     1.335567705599    12.000000000000
         C           -0.913663415186     1.738627155595    -0.096432294401    12.000000000000
         C           -0.604663415186     0.289627155595     1.769567705599    12.000000000000
         C           -1.428663415186     1.131627155595     1.021567705599    12.000000000000
         H            2.171336584814     0.396627155595    -0.180432294401     1.007825032230
         H            0.731336584814     1.924627155595    -1.452432294401     1.007825032230
         H            1.330336584814    -0.651372844405     1.897567705599     1.007825032230
         H           -1.528663415186     2.425627155595    -0.661432294401     1.007825032230
         H           -0.979663415186    -0.191372844405     2.661567705599     1.007825032230
         H           -3.339663415186     0.516627155595     1.719567705599     1.007825032230
         H           -3.383663415186     1.874627155595     0.604567705599     1.007825032230
         H           -2.885763415186     2.145111155595     2.296037705599     1.007825032230
         C            1.725336584814    -2.287372844405    -1.924432294401    12.000000000000
         C            1.643336584814    -3.629372844405    -2.603432294401    12.000000000000
         H            1.313336584814    -2.348372844405    -0.916432294401     1.007825032230
         H            2.766336584814    -1.970372844405    -1.863432294401     1.007825032230
         H            1.170336584814    -1.542372844405    -2.494432294401     1.007825032230
         H            2.079336584814    -3.532372844405    -3.596432294401     1.007825032230
         H            0.584186584814    -3.911764844405    -2.695407194401     1.007825032230
         H            2.220916584814    -4.382616844405    -2.047535494401     1.007825032230

  Running in c1 symmetry.

  Rotational constants: A =      0.08862  B =      0.01920  C =      0.01891 [cm^-1]
  Rotational constants: A =   2656.69055  B =    575.47140  C =    566.98600 [MHz]
  Nuclear repulsion =  401.598067737671272

  Charge       = 0
  Multiplicity = 1
  Electrons    = 68
  Nalpha       = 34
  Nbeta        = 34

  ==> Algorithm <==

  SCF Algorithm Type is PK.
  DIIS enabled.
  MOM disabled.
  Fractional occupation disabled.
  Guess Type is SAD.
  Energy threshold   = 1.00e-06
  Density threshold  = 1.00e-10
  Integral threshold = 0.00e+00

  ==> Primary Basis <==

  Basis Set: CC-PVDZ
    Blend: CC-PVDZ
    Number of shells: 96
    Number of basis function: 196
    Number of Cartesian functions: 205
    Spherical Harmonics?: true
    Max angular momentum: 2

  ==> Pre-Iterations <==

   -------------------------------------------------------
    Irrep   Nso     Nmo     Nalpha   Nbeta   Ndocc  Nsocc
   -------------------------------------------------------
     A        196     196       0       0       0       0
   -------------------------------------------------------
    Total     196     196      34      34      34       0
   -------------------------------------------------------

  ==> Integral Setup <==

  Using integral reordering PK algorithm.
  Sizing the integral batches needed.
  Building batch lookup table.
   Calculation information:
      Number of atoms:                  23
      Number of AO shells:              96
      Number of primitives:            268
      Number of atomic orbitals:       205
      Number of basis functions:       196

      Integral cutoff                 1.00e-12
      Number of threads:                 1

	Batch   1 pq = [       0,    9405] index = [             0,44231715] size =     44231715
	Batch   2 pq = [    9405,   13301] index = [      44231715,88464951] size =     44233236
	Batch   3 pq = [   13301,   16290] index = [      88464951,132690195] size =     44225244
	Batch   4 pq = [   16290,   18810] index = [     132690195,176917455] size =     44227260
	Batch   5 pq = [   18810,   19306] index = [     176917455,186370471] size =      9453016
  Task number: 17
  Buffer size: 11059200
  Buffer per thread: 2
  We computed 8644216 shell quartets total.
  Whereas there are 10841496 unique shell quartets.

  ==> DiskJK: Disk-Based J/K Matrices <==

    J tasked:                  Yes
    K tasked:                  Yes
    wK tasked:                  No
    Memory [MiB]:              375
    Schwarz Cutoff:          1E-12

    OpenMP threads:              1

  Minimum eigenvalue in the overlap matrix is 3.0447049200E-04.
  Using Symmetric Orthogonalization.

  SCF Guess: Superposition of Atomic Densities via on-the-fly atomic UHF.

  ==> Iterations <==

                        Total Energy        Delta E     RMS |[F,P]|

   @RHF iter SAD:  -347.97135075021515   -3.47971e+02   0.00000e+00
   @RHF iter   1:  -348.76146014221047   -7.90109e-01   2.93826e-03 DIIS
   @RHF iter   2:  -348.95767758575732   -1.96217e-01   1.23443e-03 DIIS
   @RHF iter   3:  -348.98934926168641   -3.16717e-02   2.62149e-04 DIIS
   @RHF iter   4:  -348.99185921763103   -2.50996e-03   5.87112e-05 DIIS
   @RHF iter   5:  -348.99194660401224   -8.73864e-05   1.94904e-05 DIIS
   @RHF iter   6:  -348.99195605587801   -9.45187e-06   5.07878e-06 DIIS
   @RHF iter   7:  -348.99195682986908   -7.73991e-07   1.30866e-06 DIIS
   @RHF iter   8:  -348.99195690736076   -7.74917e-08   4.40509e-07 DIIS
   @RHF iter   9:  -348.99195692586233   -1.85016e-08   2.24965e-07 DIIS
   @RHF iter  10:  -348.99195693109311   -5.23079e-09   1.06556e-07 DIIS
   @RHF iter  11:  -348.99195693250869   -1.41557e-09   3.42019e-08 DIIS
   @RHF iter  12:  -348.99195693261356   -1.04876e-10   1.49345e-08 DIIS
   @RHF iter  13:  -348.99195693262720   -1.36424e-11   4.01483e-09 DIIS
   @RHF iter  14:  -348.99195693262806   -8.52651e-13   1.27212e-09 DIIS
   @RHF iter  15:  -348.99195693262720    8.52651e-13   6.23343e-10 DIIS
   @RHF iter  16:  -348.99195693262749   -2.84217e-13   2.74720e-10 DIIS
   @RHF iter  17:  -348.99195693262783   -3.41061e-13   9.32481e-11 DIIS
  Energy and wave function converged.

  ==> Post-Iterations <==

    Orbital Energies [Eh]
    ---------------------

    Doubly Occupied:

       1A    -11.237037     2A    -11.235099     3A    -11.231456
       4A    -11.230401     5A    -11.228859     6A    -11.227857
       7A    -11.224991     8A    -11.213985     9A    -11.209715
      10A     -1.156215    11A     -1.045921    12A     -1.020306
      13A     -1.011695    14A     -0.931432    15A     -0.829505
      16A     -0.826033    17A     -0.795377    18A     -0.691606
      19A     -0.632388    20A     -0.628309    21A     -0.598722
      22A     -0.596206    23A     -0.581900    24A     -0.576843
      25A     -0.562416    26A     -0.534010    27A     -0.500890
      28A     -0.488204    29A     -0.484780    30A     -0.481212
      31A     -0.479137    32A     -0.477695    33A     -0.331691
      34A     -0.323283

    Virtual:

      35A      0.135292    36A      0.144980    37A      0.177241
      38A      0.192080    39A      0.203898    40A      0.214577
      41A      0.232406    42A      0.246170    43A      0.252372
      44A      0.263203    45A      0.268163    46A      0.276886
      47A      0.278824    48A      0.289790    49A      0.306194
      50A      0.308480    51A      0.367607    52A      0.377744
      53A      0.413156    54A      0.454282    55A      0.465914
      56A      0.479768    57A      0.498707    58A      0.565306
      59A      0.578056    60A      0.604681    61A      0.609098
      62A      0.613761    63A      0.631593    64A      0.667111
      65A      0.681499    66A      0.684093    67A      0.694624
      68A      0.710216    69A      0.732943    70A      0.736862
      71A      0.740941    72A      0.751219    73A      0.757227
      74A      0.765393    75A      0.784351    76A      0.810470
      77A      0.831146    78A      0.844471    79A      0.863934
      80A      0.864501    81A      0.879418    82A      0.891929
      83A      0.896502    84A      0.897352    85A      0.900579
      86A      0.908943    87A      0.917770    88A      0.925254
      89A      0.927787    90A      0.941364    91A      0.947631
      92A      0.979476    93A      0.988166    94A      1.009106
      95A      1.013176    96A      1.052551    97A      1.119177
      98A      1.126350    99A      1.138921   100A      1.148114
     101A      1.150068   102A      1.169814   103A      1.189549
     104A      1.216187   105A      1.242456   106A      1.253239
     107A      1.260325   108A      1.275510   109A      1.303956
     110A      1.316313   111A      1.331940   112A      1.356174
     113A      1.414481   114A      1.483357   115A      1.493708
     116A      1.509291   117A      1.528529   118A      1.558285
     119A      1.583315   120A      1.600443   121A      1.672786
     122A      1.678463   123A      1.693971   124A      1.698493
     125A      1.734201   126A      1.752337   127A      1.776246
     128A      1.798296   129A      1.819445   130A      1.846401
     131A      1.856701   132A      1.877842   133A      1.892110
     134A      1.894793   135A      1.907587   136A      1.919156
     137A      1.927682   138A      1.933462   139A      1.943541
     140A      1.947033   141A      1.954965   142A      1.960117
     143A      1.968700   144A      1.974914   145A      1.984459
     146A      1.986102   147A      2.000395   148A      2.027878
     149A      2.046896   150A      2.069975   151A      2.080157
     152A      2.104290   153A      2.123693   154A      2.125276
     155A      2.138699   156A      2.163167   157A      2.170171
     158A      2.178532   159A      2.191404   160A      2.251172
     161A      2.278681   162A      2.292732   163A      2.300587
     164A      2.309144   165A      2.320782   166A      2.336277
     167A      2.368129   168A      2.460641   169A      2.460992
     170A      2.473572   171A      2.475840   172A      2.511693
     173A      2.549589   174A      2.568480   175A      2.582474
     176A      2.631155   177A      2.738117   178A      2.756865
     179A      2.767723   180A      2.770049   181A      2.790996
     182A      2.803638   183A      2.815053   184A      2.849450
     185A      2.853945   186A      2.859209   187A      2.878698
     188A      2.951885   189A      2.971870   190A      2.993850
     191A      3.017718   192A      3.034294   193A      3.167647
     194A      3.215185   195A      3.312384   196A      3.987041

    Final Occupation by Irrep:
              A
    DOCC [    34 ]

  @RHF Final Energy:  -348.99195693262783

   => Energetics <=

    Nuclear Repulsion Energy =            401.5980677376712720
    One-Electron Energy =               -1265.9296952898496329
    Two-Electron Energy =                 515.3396706195505885
    Total Energy =                       -348.9919569326277724

Computation Completed

Properties will be evaluated at   0.000000,   0.000000,   0.000000 [a0]

Properties computed using the SCF density matrix

  Nuclear Dipole Moment: [e a0]
     X:     2.1093      Y:    -8.6691      Z:    -6.3079

  Electronic Dipole Moment: [e a0]
     X:    -2.2324      Y:     8.7229      Z:     6.3575

  Dipole Moment: [e a0]
     X:    -0.1230      Y:     0.0538      Z:     0.0496     Total:     0.1431

  Dipole Moment: [D]
     X:    -0.3127      Y:     0.1368      Z:     0.1260     Total:     0.3638

*** tstop() called on ds3 at Mon Apr 27 19:54:12 2020
Module time:
	user time   =      56.39 seconds =       0.94 minutes
	system time =      26.47 seconds =       0.44 minutes
	total time  =         80 seconds =       1.33 minutes
Total time:
	user time   =      56.39 seconds =       0.94 minutes
	system time =      26.47 seconds =       0.44 minutes
	total time  =         80 seconds =       1.33 minutes
                                     G D M A

                                 by Anthony Stone

                           version 2.2.06, 22 June 2011

               Distributed Multipoles from Gaussian wavefunctions

Starting at 19:54:12 on 27 Apr 2020

Using SCF density matrix from file ./SSI/SSI-006PHE-053LEU-1-dimer.test.10034.fchk

                         Distributed Multipole Analysis

Standard DMA

Positions and radii in angstrom
Multipole moments in atomic units, ea_0^k for rank k

C          x = -2.838663  y =  1.446627  z =  1.447568 angstrom
           Maximum rank =  0   Radius =  0.650 angstrom
                   Q00  =  -0.208704

C          x =  1.169337  y =  0.608627  z =  0.166568 angstrom
           Maximum rank =  0   Radius =  0.650 angstrom
                   Q00  =  -0.080044

C          x =  0.359337  y =  1.457627  z = -0.551432 angstrom
           Maximum rank =  0   Radius =  0.650 angstrom
                   Q00  =  -0.076442

C          x =  0.699337  y =  0.020627  z =  1.335568 angstrom
           Maximum rank =  0   Radius =  0.650 angstrom
                   Q00  =  -0.057079

C          x = -0.913663  y =  1.738627  z = -0.096432 angstrom
           Maximum rank =  0   Radius =  0.650 angstrom
                   Q00  =   0.018749

C          x = -0.604663  y =  0.289627  z =  1.769568 angstrom
           Maximum rank =  0   Radius =  0.650 angstrom
                   Q00  =  -0.096436

C          x = -1.428663  y =  1.131627  z =  1.021568 angstrom
           Maximum rank =  0   Radius =  0.650 angstrom
                   Q00  =  -0.097204

H          x =  2.171337  y =  0.396627  z = -0.180432 angstrom
           Maximum rank =  0   Radius =  0.325 angstrom
                   Q00  =   0.061560

H          x =  0.731337  y =  1.924627  z = -1.452432 angstrom
           Maximum rank =  0   Radius =  0.325 angstrom
                   Q00  =   0.061679

H          x =  1.330337  y = -0.651373  z =  1.897568 angstrom
           Maximum rank =  0   Radius =  0.325 angstrom
                   Q00  =   0.064997

H          x = -1.528663  y =  2.425627  z = -0.661432 angstrom
           Maximum rank =  0   Radius =  0.325 angstrom
                   Q00  =   0.052018

H          x = -0.979663  y = -0.191373  z =  2.661568 angstrom
           Maximum rank =  0   Radius =  0.325 angstrom
                   Q00  =   0.057288

H          x = -3.339663  y =  0.516627  z =  1.719568 angstrom
           Maximum rank =  0   Radius =  0.325 angstrom
                   Q00  =   0.099341

H          x = -3.383663  y =  1.874627  z =  0.604568 angstrom
           Maximum rank =  0   Radius =  0.325 angstrom
                   Q00  =   0.096792

H          x = -2.885763  y =  2.145111  z =  2.296038 angstrom
           Maximum rank =  0   Radius =  0.325 angstrom
                   Q00  =   0.104299

C          x =  1.725337  y = -2.287373  z = -1.924432 angstrom
           Maximum rank =  0   Radius =  0.650 angstrom
                   Q00  =  -0.230149

C          x =  1.643337  y = -3.629373  z = -2.603432 angstrom
           Maximum rank =  0   Radius =  0.650 angstrom
                   Q00  =  -0.226607

H          x =  1.313337  y = -2.348373  z = -0.916432 angstrom
           Maximum rank =  0   Radius =  0.325 angstrom
                   Q00  =   0.080903

H          x =  2.766337  y = -1.970373  z = -1.863432 angstrom
           Maximum rank =  0   Radius =  0.325 angstrom
                   Q00  =   0.068550

H          x =  1.170337  y = -1.542373  z = -2.494432 angstrom
           Maximum rank =  0   Radius =  0.325 angstrom
                   Q00  =   0.078957

H          x =  2.079337  y = -3.532373  z = -3.596432 angstrom
           Maximum rank =  0   Radius =  0.325 angstrom
                   Q00  =   0.074039

H          x =  0.584187  y = -3.911765  z = -2.695407 angstrom
           Maximum rank =  0   Radius =  0.325 angstrom
                   Q00  =   0.077064

H          x =  2.220917  y = -4.382617  z = -2.047535 angstrom
           Maximum rank =  0   Radius =  0.325 angstrom
                   Q00  =   0.076427

Total multipoles referred to origin at
           x =   0.000000,  y =    0.000000,  z =    0.000000 angstrom
                   Q00  =  -0.000000

Finished at 19:54:12 on 27 Apr 2020

  DMA results are available in the Python driver through the
	  variable('DMA DISTRIBUTED MULTIPOLES')
  and
	  variable('DMA TOTAL MULTIPOLES')
  commands.

    Psi4 stopped on: Monday, 27 April 2020 07:54PM
    Psi4 wall time for execution: 0:01:20.22

*** Psi4 exiting successfully. Buy a developer a beer!
