                               Psi4 1.3.2 release

  ==> Input File <==

--------------------------------------------------------------------------
import numpy as np
set {scf_type pk
basis cc-pvdz
d_convergence 10
gdma_switch   0
gdma_limit    0
gdma_origin   [ 0.0,  0.0,  0.0 ]
}
molecule test {
    units Angstrom
    0 1
    --
    0 1
    C               -0.146871243363827    -2.315469431110320     0.473626655391720
    C               -1.894871243363828    -1.455469431110320    -1.141373344608281
    C               -1.120871243363827    -2.520469431110320    -0.663373344608280
    C               -2.738871243363827    -1.651469431110320    -2.237373344608280
    C               -2.794871243363827    -2.865469431110319    -2.884373344608280
    C               -1.222871243363827    -3.754469431110320    -1.280373344608280
    C               -2.092871243363827    -3.946469431110319    -2.384373344608280
    H               -1.848871243363827    -0.497469431110319    -0.660373344608280
    H               -3.310871243363827    -0.818469431110320    -2.618373344608280
    H                0.195128756636173    -1.279469431110320     0.445626655391720
    H                0.724128756636173    -2.952469431110319     0.324626655391720
    H               -3.428871243363827    -2.985469431110320    -3.752373344608280
    H               -0.627871243363827    -4.583469431110319    -0.924373344608280
    H               -2.153871243363827    -4.896469431110320    -2.884373344608280
    H               -0.564101243363827    -2.521149431110319     1.470426655391720
    C                4.139128756636173     1.707530568889680     0.903626655391720
    C                0.480128756636173     1.947530568889680     1.630626655391719
    C                1.538128756636173     1.815530568889680     0.700626655391720
    C                2.765128756636173     1.847530568889680     1.445626655391719
    C                2.432128756636172     1.997530568889681     2.734626655391720
    C               -1.150871243363828     1.821530568889680    -0.094373344608280
    C               -0.862871243363827     1.969530568889680     1.254626655391720
    C               -0.131871243363827     1.680530568889680    -1.055373344608280
    C                1.232128756636173     1.690530568889680    -0.658373344608280
    N                1.063128756636173     2.046530568889680     2.857626655391720
    H               -2.175871243363827     1.837530568889680    -0.428373344608280
    H               -1.635871243363828     2.088530568889680     1.994626655391720
    H               -0.395871243363827     1.560530568889680    -2.097373344608280
    H                2.015128756636173     1.554530568889680    -1.388373344608280
    H                0.564128756636173     2.140530568889681     3.738626655391720
    H                3.138128756636173     2.046530568889680     3.556626655391720
    H                4.876128756636172     2.015530568889680     1.647626655391720
    H                4.244128756636173     2.373530568889681     0.056626655391720
    H                4.318598756636172     0.670830568889680     0.582626655391720

}
e, wfn = energy('scf', return_wfn=True)
gdma(wfn)
dmavals = variable('DMA DISTRIBUTED MULTIPOLES')
charges = np.array(dmavals)
print(charges)
np.save('SSI-184PHE-225TRP-1-dimer.npy', np.array(charges))--------------------------------------------------------------------------

*** tstart() called on ds3
*** at Sun Apr 26 20:55:40 2020

   => Loading Basis Set <=

    Name: CC-PVDZ
    Role: ORBITAL
    Keyword: BASIS
    atoms 1-7, 16-24  entry C          line   138 file /theoryfs2/ds/metcalf/miniconda2/envs/tf2gpu/share/psi4/basis/cc-pvdz.gbs
    atoms 8-15, 26-34 entry H          line    22 file /theoryfs2/ds/metcalf/miniconda2/envs/tf2gpu/share/psi4/basis/cc-pvdz.gbs
    atoms 25          entry N          line   168 file /theoryfs2/ds/metcalf/miniconda2/envs/tf2gpu/share/psi4/basis/cc-pvdz.gbs

         ---------------------------------------------------------
                                   SCF
               by Justin Turney, Rob Parrish, Andy Simmonett
                          and Daniel G. A. Smith
                              RHF Reference
                        1 Threads,    500 MiB Core
         ---------------------------------------------------------

  ==> Geometry <==

    Molecular point group: c1
    Full point group: C1

    Geometry (in Angstrom), charge = 0, multiplicity = 1:

       Center              X                  Y                   Z               Mass
    ------------   -----------------  -----------------  -----------------  -----------------
         C           -0.146871243364    -2.315469431110     0.473626655392    12.000000000000
         C           -1.894871243364    -1.455469431110    -1.141373344608    12.000000000000
         C           -1.120871243364    -2.520469431110    -0.663373344608    12.000000000000
         C           -2.738871243364    -1.651469431110    -2.237373344608    12.000000000000
         C           -2.794871243364    -2.865469431110    -2.884373344608    12.000000000000
         C           -1.222871243364    -3.754469431110    -1.280373344608    12.000000000000
         C           -2.092871243364    -3.946469431110    -2.384373344608    12.000000000000
         H           -1.848871243364    -0.497469431110    -0.660373344608     1.007825032230
         H           -3.310871243364    -0.818469431110    -2.618373344608     1.007825032230
         H            0.195128756636    -1.279469431110     0.445626655392     1.007825032230
         H            0.724128756636    -2.952469431110     0.324626655392     1.007825032230
         H           -3.428871243364    -2.985469431110    -3.752373344608     1.007825032230
         H           -0.627871243364    -4.583469431110    -0.924373344608     1.007825032230
         H           -2.153871243364    -4.896469431110    -2.884373344608     1.007825032230
         H           -0.564101243364    -2.521149431110     1.470426655392     1.007825032230
         C            4.139128756636     1.707530568890     0.903626655392    12.000000000000
         C            0.480128756636     1.947530568890     1.630626655392    12.000000000000
         C            1.538128756636     1.815530568890     0.700626655392    12.000000000000
         C            2.765128756636     1.847530568890     1.445626655392    12.000000000000
         C            2.432128756636     1.997530568890     2.734626655392    12.000000000000
         C           -1.150871243364     1.821530568890    -0.094373344608    12.000000000000
         C           -0.862871243364     1.969530568890     1.254626655392    12.000000000000
         C           -0.131871243364     1.680530568890    -1.055373344608    12.000000000000
         C            1.232128756636     1.690530568890    -0.658373344608    12.000000000000
         N            1.063128756636     2.046530568890     2.857626655392    14.003074004430
         H           -2.175871243364     1.837530568890    -0.428373344608     1.007825032230
         H           -1.635871243364     2.088530568890     1.994626655392     1.007825032230
         H           -0.395871243364     1.560530568890    -2.097373344608     1.007825032230
         H            2.015128756636     1.554530568890    -1.388373344608     1.007825032230
         H            0.564128756636     2.140530568890     3.738626655392     1.007825032230
         H            3.138128756636     2.046530568890     3.556626655392     1.007825032230
         H            4.876128756636     2.015530568890     1.647626655392     1.007825032230
         H            4.244128756636     2.373530568890     0.056626655392     1.007825032230
         H            4.318598756636     0.670830568890     0.582626655392     1.007825032230

  Running in c1 symmetry.

  Rotational constants: A =      0.03144  B =      0.00706  C =      0.00667 [cm^-1]
  Rotational constants: A =    942.58413  B =    211.76527  C =    199.94316 [MHz]
  Nuclear repulsion = 1069.652071282532006

  Charge       = 0
  Multiplicity = 1
  Electrons    = 120
  Nalpha       = 60
  Nbeta        = 60

  ==> Algorithm <==

  SCF Algorithm Type is PK.
  DIIS enabled.
  MOM disabled.
  Fractional occupation disabled.
  Guess Type is SAD.
  Energy threshold   = 1.00e-06
  Density threshold  = 1.00e-10
  Integral threshold = 0.00e+00

  ==> Primary Basis <==

  Basis Set: CC-PVDZ
    Blend: CC-PVDZ
    Number of shells: 153
    Number of basis function: 323
    Number of Cartesian functions: 340
    Spherical Harmonics?: true
    Max angular momentum: 2

  ==> Pre-Iterations <==

   -------------------------------------------------------
    Irrep   Nso     Nmo     Nalpha   Nbeta   Ndocc  Nsocc
   -------------------------------------------------------
     A        323     323       0       0       0       0
   -------------------------------------------------------
    Total     323     323      60      60      60       0
   -------------------------------------------------------

  ==> Integral Setup <==

  Using integral reordering PK algorithm.
  Sizing the integral batches needed.
  Building batch lookup table.
   Calculation information:
      Number of atoms:                  34
      Number of AO shells:             153
      Number of primitives:            459
      Number of atomic orbitals:       340
      Number of basis functions:       323

      Integral cutoff                 1.00e-12
      Number of threads:                 1

	Batch   1 pq = [       0,    9405] index = [             0,44231715] size =     44231715
	Batch   2 pq = [    9405,   13301] index = [      44231715,88464951] size =     44233236
	Batch   3 pq = [   13301,   16290] index = [      88464951,132690195] size =     44225244
	Batch   4 pq = [   16290,   18810] index = [     132690195,176917455] size =     44227260
	Batch   5 pq = [   18810,   21030] index = [     176917455,221140965] size =     44223510
	Batch   6 pq = [   21030,   23037] index = [     221140965,265363203] size =     44222238
	Batch   7 pq = [   23037,   24883] index = [     265363203,309594286] size =     44231083
	Batch   8 pq = [   24883,   26601] index = [     309594286,353819901] size =     44225615
	Batch   9 pq = [   26601,   28214] index = [     353819901,398029005] size =     44209104
	Batch  10 pq = [   28214,   29740] index = [     398029005,442248670] size =     44219665
	Batch  11 pq = [   29740,   31191] index = [     442248670,486454836] size =     44206166
	Batch  12 pq = [   31191,   32578] index = [     486454836,530679331] size =     44224495
	Batch  13 pq = [   32578,   33908] index = [     530679331,574893186] size =     44213855
	Batch  14 pq = [   33908,   35188] index = [     574893186,619115266] size =     44222080
	Batch  15 pq = [   35188,   36423] index = [     619115266,663335676] size =     44220410
	Batch  16 pq = [   36423,   37617] index = [     663335676,707538153] size =     44202477
	Batch  17 pq = [   37617,   38775] index = [     707538153,751769700] size =     44231547
	Batch  18 pq = [   38775,   39899] index = [     751769700,795985050] size =     44215350
	Batch  19 pq = [   39899,   40992] index = [     795985050,840192528] size =     44207478
	Batch  20 pq = [   40992,   42057] index = [     840192528,884416653] size =     44224125
	Batch  21 pq = [   42057,   43095] index = [     884416653,928611060] size =     44194407
	Batch  22 pq = [   43095,   44109] index = [     928611060,972823995] size =     44212935
	Batch  23 pq = [   44109,   45100] index = [     972823995,1017027550] size =     44203555
	Batch  24 pq = [   45100,   46070] index = [    1017027550,1061245485] size =     44217935
	Batch  25 pq = [   46070,   47020] index = [    1061245485,1105463710] size =     44218225
	Batch  26 pq = [   47020,   47951] index = [    1105463710,1149673176] size =     44209466
	Batch  27 pq = [   47951,   48864] index = [    1149673176,1193869680] size =     44196504
	Batch  28 pq = [   48864,   49761] index = [    1193869680,1238103441] size =     44233761
	Batch  29 pq = [   49761,   50642] index = [    1238103441,1282331403] size =     44227962
	Batch  30 pq = [   50642,   51508] index = [    1282331403,1326562786] size =     44231383
	Batch  31 pq = [   51508,   52326] index = [    1326562786,1369031301] size =     42468515
  Task number: 124
  Buffer size: 11059200
  Buffer per thread: 2
  We computed 72862082 shell quartets total.
  Whereas there are 69401871 unique shell quartets.
     4.99 percent of shell quartets recomputed by reordering.

  ==> DiskJK: Disk-Based J/K Matrices <==

    J tasked:                  Yes
    K tasked:                  Yes
    wK tasked:                  No
    Memory [MiB]:              375
    Schwarz Cutoff:          1E-12

    OpenMP threads:              1

  Minimum eigenvalue in the overlap matrix is 2.4315145482E-04.
  Using Symmetric Orthogonalization.

  SCF Guess: Superposition of Atomic Densities via on-the-fly atomic UHF.

  ==> Iterations <==

                        Total Energy        Delta E     RMS |[F,P]|

   @RHF iter SAD:  -669.60033486791338   -6.69600e+02   0.00000e+00
   @RHF iter   1:  -669.94848966785139   -3.48155e-01   2.14442e-03 DIIS
   @RHF iter   2:  -670.23852987495650   -2.90040e-01   9.19548e-04 DIIS
   @RHF iter   3:  -670.28552766961036   -4.69978e-02   2.50336e-04 DIIS
   @RHF iter   4:  -670.29003897900611   -4.51131e-03   1.09625e-04 DIIS
   @RHF iter   5:  -670.29074020085568   -7.01222e-04   1.64133e-05 DIIS
   @RHF iter   6:  -670.29077256404003   -3.23632e-05   7.30421e-06 DIIS
   @RHF iter   7:  -670.29077942196011   -6.85792e-06   2.98747e-06 DIIS
   @RHF iter   8:  -670.29078133705968   -1.91510e-06   1.29376e-06 DIIS
   @RHF iter   9:  -670.29078176840187   -4.31342e-07   5.83994e-07 DIIS
   @RHF iter  10:  -670.29078185869707   -9.02952e-08   2.54984e-07 DIIS
   @RHF iter  11:  -670.29078187993548   -2.12384e-08   9.80652e-08 DIIS
   @RHF iter  12:  -670.29078188233689   -2.40141e-09   3.75621e-08 DIIS
   @RHF iter  13:  -670.29078188258507   -2.48178e-10   1.13908e-08 DIIS
   @RHF iter  14:  -670.29078188261622   -3.11502e-11   4.66474e-09 DIIS
   @RHF iter  15:  -670.29078188260723    8.98126e-12   1.94593e-09 DIIS
   @RHF iter  16:  -670.29078188262656   -1.93268e-11   9.31622e-10 DIIS
   @RHF iter  17:  -670.29078188261587    1.06866e-11   4.66140e-10 DIIS
   @RHF iter  18:  -670.29078188261235    3.52429e-12   1.54900e-10 DIIS
   @RHF iter  19:  -670.29078188262110   -8.75389e-12   6.48418e-11 DIIS
  Energy and wave function converged.

  ==> Post-Iterations <==

    Orbital Energies [Eh]
    ---------------------

    Doubly Occupied:

       1A    -15.601822     2A    -11.267449     3A    -11.262976
       4A    -11.237975     5A    -11.235054     6A    -11.233822
       7A    -11.230270     8A    -11.228558     9A    -11.227597
      10A    -11.226696    11A    -11.224795    12A    -11.223451
      13A    -11.222959    14A    -11.221042    15A    -11.218947
      16A    -11.216541    17A    -11.216169    18A     -1.301227
      19A     -1.143065    20A     -1.128071    21A     -1.080958
      22A     -1.036433    23A     -0.999093    24A     -0.997534
      25A     -0.991974    26A     -0.936011    27A     -0.920911
      28A     -0.845019    29A     -0.819535    30A     -0.805598
      31A     -0.783249    32A     -0.755056    33A     -0.721295
      34A     -0.683571    35A     -0.669033    36A     -0.645289
      37A     -0.623405    38A     -0.620223    39A     -0.604974
      40A     -0.598224    41A     -0.592516    42A     -0.573341
      43A     -0.570086    44A     -0.564119    45A     -0.556910
      46A     -0.553996    47A     -0.540045    48A     -0.530922
      49A     -0.523513    50A     -0.500567    51A     -0.482569
      52A     -0.477912    53A     -0.474610    54A     -0.469426
      55A     -0.456548    56A     -0.376394    57A     -0.320403
      58A     -0.316439    59A     -0.295288    60A     -0.280860

    Virtual:

      61A      0.120832    62A      0.140652    63A      0.151862
      64A      0.164747    65A      0.177522    66A      0.183019
      67A      0.190461    68A      0.203967    69A      0.209404
      70A      0.224885    71A      0.228285    72A      0.232371
      73A      0.242731    74A      0.252527    75A      0.266690
      76A      0.270261    77A      0.279849    78A      0.284423
      79A      0.287253    80A      0.293882    81A      0.297208
      82A      0.335880    83A      0.371583    84A      0.372194
      85A      0.379813    86A      0.391814    87A      0.406348
      88A      0.414985    89A      0.438455    90A      0.460942
      91A      0.466609    92A      0.473946    93A      0.477732
      94A      0.483485    95A      0.495341    96A      0.501409
      97A      0.521026    98A      0.569996    99A      0.593145
     100A      0.603340   101A      0.614150   102A      0.627400
     103A      0.636073   104A      0.638816   105A      0.658945
     106A      0.676116   107A      0.687091   108A      0.699434
     109A      0.700855   110A      0.708114   111A      0.719413
     112A      0.723844   113A      0.730663   114A      0.733766
     115A      0.737132   116A      0.740218   117A      0.746141
     118A      0.750569   119A      0.754303   120A      0.757787
     121A      0.762357   122A      0.769543   123A      0.774374
     124A      0.776242   125A      0.786847   126A      0.790611
     127A      0.797459   128A      0.815651   129A      0.823436
     130A      0.840191   131A      0.856554   132A      0.859151
     133A      0.864509   134A      0.870947   135A      0.876270
     136A      0.880353   137A      0.886062   138A      0.888439
     139A      0.896285   140A      0.901019   141A      0.907463
     142A      0.910600   143A      0.914938   144A      0.940067
     145A      0.945727   146A      0.949328   147A      0.954736
     148A      0.956600   149A      0.969081   150A      0.984494
     151A      0.998336   152A      1.007124   153A      1.021332
     154A      1.026747   155A      1.052095   156A      1.065557
     157A      1.071515   158A      1.092208   159A      1.106587
     160A      1.120968   161A      1.126157   162A      1.130461
     163A      1.139617   164A      1.157157   165A      1.160877
     166A      1.168287   167A      1.179528   168A      1.192760
     169A      1.203718   170A      1.221060   171A      1.234998
     172A      1.237629   173A      1.239485   174A      1.249604
     175A      1.255341   176A      1.256664   177A      1.267929
     178A      1.270973   179A      1.287825   180A      1.293158
     181A      1.301601   182A      1.310245   183A      1.321440
     184A      1.334126   185A      1.337622   186A      1.342455
     187A      1.359077   188A      1.368321   189A      1.386079
     190A      1.407292   191A      1.441928   192A      1.453227
     193A      1.520216   194A      1.529486   195A      1.542160
     196A      1.571775   197A      1.574127   198A      1.576710
     199A      1.595397   200A      1.610441   201A      1.627664
     202A      1.642693   203A      1.645317   204A      1.680999
     205A      1.691862   206A      1.694959   207A      1.713298
     208A      1.736109   209A      1.743051   210A      1.760014
     211A      1.764944   212A      1.770355   213A      1.780645
     214A      1.783547   215A      1.799838   216A      1.814054
     217A      1.826115   218A      1.834061   219A      1.845147
     220A      1.868896   221A      1.874412   222A      1.887545
     223A      1.891015   224A      1.895822   225A      1.902727
     226A      1.915031   227A      1.916272   228A      1.922926
     229A      1.926533   230A      1.931124   231A      1.944288
     232A      1.946222   233A      1.954879   234A      1.960477
     235A      1.968051   236A      1.975791   237A      1.979806
     238A      1.994077   239A      2.001462   240A      2.007280
     241A      2.012132   242A      2.024192   243A      2.043502
     244A      2.058102   245A      2.070127   246A      2.074006
     247A      2.078751   248A      2.083748   249A      2.093831
     250A      2.098102   251A      2.112194   252A      2.119406
     253A      2.122522   254A      2.144685   255A      2.153605
     256A      2.154810   257A      2.161205   258A      2.167622
     259A      2.177098   260A      2.183422   261A      2.202073
     262A      2.203399   263A      2.222981   264A      2.240689
     265A      2.275193   266A      2.292008   267A      2.299401
     268A      2.302403   269A      2.310001   270A      2.312271
     271A      2.319860   272A      2.326535   273A      2.330826
     274A      2.343802   275A      2.368331   276A      2.393306
     277A      2.430256   278A      2.445027   279A      2.460014
     280A      2.483709   281A      2.499884   282A      2.520353
     283A      2.537827   284A      2.561593   285A      2.593188
     286A      2.603806   287A      2.635073   288A      2.640049
     289A      2.660281   290A      2.678175   291A      2.705810
     292A      2.747635   293A      2.767076   294A      2.773530
     295A      2.778490   296A      2.786644   297A      2.788147
     298A      2.795575   299A      2.797983   300A      2.819009
     301A      2.852656   302A      2.870207   303A      2.877745
     304A      2.886650   305A      2.901191   306A      2.910861
     307A      2.964188   308A      2.993726   309A      3.019949
     310A      3.026721   311A      3.038168   312A      3.053297
     313A      3.081401   314A      3.118599   315A      3.164515
     316A      3.198442   317A      3.219932   318A      3.303443
     319A      3.322671   320A      3.392171   321A      3.745817
     322A      3.933141   323A      3.970851

    Final Occupation by Irrep:
              A
    DOCC [    60 ]

  @RHF Final Energy:  -670.29078188262110

   => Energetics <=

    Nuclear Repulsion Energy =           1069.6520712825320061
    One-Electron Energy =               -3030.9610339561218098
    Two-Electron Energy =                1291.0181807909686995
    Total Energy =                       -670.2907818826211042

Computation Completed

Properties will be evaluated at   0.000000,   0.000000,   0.000000 [a0]

Properties computed using the SCF density matrix

  Nuclear Dipole Moment: [e a0]
     X:     3.6844      Y:    -3.9868      Z:    -0.8863

  Electronic Dipole Moment: [e a0]
     X:    -3.3886      Y:     4.2556      Z:     1.8400

  Dipole Moment: [e a0]
     X:     0.2958      Y:     0.2688      Z:     0.9537     Total:     1.0340

  Dipole Moment: [D]
     X:     0.7518      Y:     0.6833      Z:     2.4240     Total:     2.6283

*** tstop() called on ds3 at Sun Apr 26 21:30:05 2020
Module time:
	user time   =     682.20 seconds =      11.37 minutes
	system time =     241.77 seconds =       4.03 minutes
	total time  =       2065 seconds =      34.42 minutes
Total time:
	user time   =     682.20 seconds =      11.37 minutes
	system time =     241.77 seconds =       4.03 minutes
	total time  =       2065 seconds =      34.42 minutes
                                     G D M A

                                 by Anthony Stone

                           version 2.2.06, 22 June 2011

               Distributed Multipoles from Gaussian wavefunctions

Starting at 21:30:6 on 26 Apr 2020

Using SCF density matrix from file ./SSI/SSI-184PHE-225TRP-1-dimer.test.10720.fchk

                         Distributed Multipole Analysis

Standard DMA

Positions and radii in angstrom
Multipole moments in atomic units, ea_0^k for rank k

C          x = -0.146871  y = -2.315469  z =  0.473627 angstrom
           Maximum rank =  0   Radius =  0.650 angstrom
                   Q00  =  -0.212949

C          x = -1.894871  y = -1.455469  z = -1.141373 angstrom
           Maximum rank =  0   Radius =  0.650 angstrom
                   Q00  =  -0.078991

C          x = -1.120871  y = -2.520469  z = -0.663373 angstrom
           Maximum rank =  0   Radius =  0.650 angstrom
                   Q00  =  -0.107034

C          x = -2.738871  y = -1.651469  z = -2.237373 angstrom
           Maximum rank =  0   Radius =  0.650 angstrom
                   Q00  =   0.027499

C          x = -2.794871  y = -2.865469  z = -2.884373 angstrom
           Maximum rank =  0   Radius =  0.650 angstrom
                   Q00  =  -0.086883

C          x = -1.222871  y = -3.754469  z = -1.280373 angstrom
           Maximum rank =  0   Radius =  0.650 angstrom
                   Q00  =  -0.070138

C          x = -2.092871  y = -3.946469  z = -2.384373 angstrom
           Maximum rank =  0   Radius =  0.650 angstrom
                   Q00  =  -0.084449

H          x = -1.848871  y = -0.497469  z = -0.660373 angstrom
           Maximum rank =  0   Radius =  0.325 angstrom
                   Q00  =   0.079514

H          x = -3.310871  y = -0.818469  z = -2.618373 angstrom
           Maximum rank =  0   Radius =  0.325 angstrom
                   Q00  =   0.052469

H          x =  0.195129  y = -1.279469  z =  0.445627 angstrom
           Maximum rank =  0   Radius =  0.325 angstrom
                   Q00  =   0.115091

H          x =  0.724129  y = -2.952469  z =  0.324627 angstrom
           Maximum rank =  0   Radius =  0.325 angstrom
                   Q00  =   0.094466

H          x = -3.428871  y = -2.985469  z = -3.752373 angstrom
           Maximum rank =  0   Radius =  0.325 angstrom
                   Q00  =   0.055556

H          x = -0.627871  y = -4.583469  z = -0.924373 angstrom
           Maximum rank =  0   Radius =  0.325 angstrom
                   Q00  =   0.055053

H          x = -2.153871  y = -4.896469  z = -2.884373 angstrom
           Maximum rank =  0   Radius =  0.325 angstrom
                   Q00  =   0.064154

H          x = -0.564101  y = -2.521149  z =  1.470427 angstrom
           Maximum rank =  0   Radius =  0.325 angstrom
                   Q00  =   0.100332

C          x =  4.139129  y =  1.707531  z =  0.903627 angstrom
           Maximum rank =  0   Radius =  0.650 angstrom
                   Q00  =  -0.204926

C          x =  0.480129  y =  1.947531  z =  1.630627 angstrom
           Maximum rank =  0   Radius =  0.650 angstrom
                   Q00  =   0.277876

C          x =  1.538129  y =  1.815531  z =  0.700627 angstrom
           Maximum rank =  0   Radius =  0.650 angstrom
                   Q00  =  -0.060107

C          x =  2.765129  y =  1.847531  z =  1.445627 angstrom
           Maximum rank =  0   Radius =  0.650 angstrom
                   Q00  =  -0.114767

C          x =  2.432129  y =  1.997531  z =  2.734627 angstrom
           Maximum rank =  0   Radius =  0.650 angstrom
                   Q00  =   0.075169

C          x = -1.150871  y =  1.821531  z = -0.094373 angstrom
           Maximum rank =  0   Radius =  0.650 angstrom
                   Q00  =  -0.058168

C          x = -0.862871  y =  1.969531  z =  1.254627 angstrom
           Maximum rank =  0   Radius =  0.650 angstrom
                   Q00  =  -0.121643

C          x = -0.131871  y =  1.680531  z = -1.055373 angstrom
           Maximum rank =  0   Radius =  0.650 angstrom
                   Q00  =  -0.103428

C          x =  1.232129  y =  1.690531  z = -0.658373 angstrom
           Maximum rank =  0   Radius =  0.650 angstrom
                   Q00  =  -0.100293

N          x =  1.063129  y =  2.046531  z =  2.857627 angstrom
           Maximum rank =  0   Radius =  0.650 angstrom
                   Q00  =  -0.499229

H          x = -2.175871  y =  1.837531  z = -0.428373 angstrom
           Maximum rank =  0   Radius =  0.325 angstrom
                   Q00  =   0.065243

H          x = -1.635871  y =  2.088531  z =  1.994627 angstrom
           Maximum rank =  0   Radius =  0.325 angstrom
                   Q00  =   0.076450

H          x = -0.395871  y =  1.560531  z = -2.097373 angstrom
           Maximum rank =  0   Radius =  0.325 angstrom
                   Q00  =   0.068933

H          x =  2.015129  y =  1.554531  z = -1.388373 angstrom
           Maximum rank =  0   Radius =  0.325 angstrom
                   Q00  =   0.076609

H          x =  0.564129  y =  2.140531  z =  3.738627 angstrom
           Maximum rank =  0   Radius =  0.325 angstrom
                   Q00  =   0.214863

H          x =  3.138129  y =  2.046531  z =  3.556627 angstrom
           Maximum rank =  0   Radius =  0.325 angstrom
                   Q00  =   0.101657

H          x =  4.876129  y =  2.015531  z =  1.647627 angstrom
           Maximum rank =  0   Radius =  0.325 angstrom
                   Q00  =   0.104107

H          x =  4.244129  y =  2.373531  z =  0.056627 angstrom
           Maximum rank =  0   Radius =  0.325 angstrom
                   Q00  =   0.100844

H          x =  4.318599  y =  0.670831  z =  0.582627 angstrom
           Maximum rank =  0   Radius =  0.325 angstrom
                   Q00  =   0.097120

Total multipoles referred to origin at
           x =   0.000000,  y =    0.000000,  z =    0.000000 angstrom
                   Q00  =  -0.000000

Finished at 21:30:6 on 26 Apr 2020

  DMA results are available in the Python driver through the
	  variable('DMA DISTRIBUTED MULTIPOLES')
  and
	  variable('DMA TOTAL MULTIPOLES')
  commands.

    Psi4 stopped on: Sunday, 26 April 2020 09:30PM
    Psi4 wall time for execution: 0:34:25.68

*** Psi4 exiting successfully. Buy a developer a beer!
