                               Psi4 1.3.2 release

  ==> Input File <==

--------------------------------------------------------------------------
import numpy as np
set {scf_type pk
basis cc-pvdz
d_convergence 10
gdma_switch   0
gdma_limit    0
gdma_origin   [ 0.0,  0.0,  0.0 ]
}
molecule test {
    units Angstrom
    0 1
    --
    0 1
    C               -0.703391853013967    -0.618811322378467     2.664196694963061
    C               -1.657391853013966    -0.862811322378467     1.471196694963061
    O               -1.163391853013967    -0.809811322378467     0.326196694963062
    O               -2.880391853013966    -1.116811322378466     1.623196694963062
    H               -0.056391853013967     0.218188677621533     2.398196694963061
    H               -0.070391853013967    -1.497811322378467     2.805196694963061
    H               -1.206661853013967    -0.392841322378467     3.615856694963062
    C                2.107608146986033     1.385188677621533     0.475196694963062
    C                1.066608146986033     0.502188677621533    -1.617803305036938
    N                1.181608146986033     0.526188677621533    -0.294803305036938
    N                1.877608146986034     1.204188677621533    -2.381803305036938
    N                0.135608146986033    -0.240811322378467    -2.186803305036938
    H                0.477608146986033    -0.014811322378467     0.207196694963062
    H                2.646608146986033     1.706188677621534    -1.973803305036938
    H                1.816608146986034     1.131188677621533    -3.385803305036938
    H               -0.510391853013967    -0.714811322378467    -1.554803305036938
    H                0.033608146986033    -0.305811322378467    -3.185803305036939
    H                1.509608146986033     1.904188677621533     1.227196694963061
    H                2.547608146986033     2.154188677621533    -0.160803305036938
    H                2.914558146986034     0.861238677621533     1.008406694963062

}
e, wfn = energy('scf', return_wfn=True)
gdma(wfn)
dmavals = variable('DMA DISTRIBUTED MULTIPOLES')
charges = np.array(dmavals)
print(charges)
np.save('SSI-134GLU-138ARG-1-dimer.npy', np.array(charges))--------------------------------------------------------------------------

*** tstart() called on ds3
*** at Mon Apr 27 14:03:59 2020

   => Loading Basis Set <=

    Name: CC-PVDZ
    Role: ORBITAL
    Keyword: BASIS
    atoms 1-2, 8-9   entry C          line   138 file /theoryfs2/ds/metcalf/miniconda2/envs/tf2gpu/share/psi4/basis/cc-pvdz.gbs
    atoms 3-4        entry O          line   198 file /theoryfs2/ds/metcalf/miniconda2/envs/tf2gpu/share/psi4/basis/cc-pvdz.gbs
    atoms 5-7, 13-20 entry H          line    22 file /theoryfs2/ds/metcalf/miniconda2/envs/tf2gpu/share/psi4/basis/cc-pvdz.gbs
    atoms 10-12      entry N          line   168 file /theoryfs2/ds/metcalf/miniconda2/envs/tf2gpu/share/psi4/basis/cc-pvdz.gbs

         ---------------------------------------------------------
                                   SCF
               by Justin Turney, Rob Parrish, Andy Simmonett
                          and Daniel G. A. Smith
                              RHF Reference
                        1 Threads,    500 MiB Core
         ---------------------------------------------------------

  ==> Geometry <==

    Molecular point group: c1
    Full point group: C1

    Geometry (in Angstrom), charge = 0, multiplicity = 1:

       Center              X                  Y                   Z               Mass
    ------------   -----------------  -----------------  -----------------  -----------------
         C           -0.703391853014    -0.618811322378     2.664196694963    12.000000000000
         C           -1.657391853014    -0.862811322378     1.471196694963    12.000000000000
         O           -1.163391853014    -0.809811322378     0.326196694963    15.994914619570
         O           -2.880391853014    -1.116811322378     1.623196694963    15.994914619570
         H           -0.056391853014     0.218188677622     2.398196694963     1.007825032230
         H           -0.070391853014    -1.497811322378     2.805196694963     1.007825032230
         H           -1.206661853014    -0.392841322378     3.615856694963     1.007825032230
         C            2.107608146986     1.385188677622     0.475196694963    12.000000000000
         C            1.066608146986     0.502188677622    -1.617803305037    12.000000000000
         N            1.181608146986     0.526188677622    -0.294803305037    14.003074004430
         N            1.877608146986     1.204188677622    -2.381803305037    14.003074004430
         N            0.135608146986    -0.240811322378    -2.186803305037    14.003074004430
         H            0.477608146986    -0.014811322378     0.207196694963     1.007825032230
         H            2.646608146986     1.706188677622    -1.973803305037     1.007825032230
         H            1.816608146986     1.131188677622    -3.385803305037     1.007825032230
         H           -0.510391853014    -0.714811322378    -1.554803305037     1.007825032230
         H            0.033608146986    -0.305811322378    -3.185803305037     1.007825032230
         H            1.509608146986     1.904188677622     1.227196694963     1.007825032230
         H            2.547608146986     2.154188677622    -0.160803305037     1.007825032230
         H            2.914558146986     0.861238677622     1.008406694963     1.007825032230

  Running in c1 symmetry.

  Rotational constants: A =      0.09138  B =      0.02444  C =      0.01970 [cm^-1]
  Rotational constants: A =   2739.52220  B =    732.76224  C =    590.62285 [MHz]
  Nuclear repulsion =  462.387428267210737

  Charge       = 0
  Multiplicity = 1
  Electrons    = 72
  Nalpha       = 36
  Nbeta        = 36

  ==> Algorithm <==

  SCF Algorithm Type is PK.
  DIIS enabled.
  MOM disabled.
  Fractional occupation disabled.
  Guess Type is SAD.
  Energy threshold   = 1.00e-06
  Density threshold  = 1.00e-10
  Integral threshold = 0.00e+00

  ==> Primary Basis <==

  Basis Set: CC-PVDZ
    Blend: CC-PVDZ
    Number of shells: 87
    Number of basis function: 181
    Number of Cartesian functions: 190
    Spherical Harmonics?: true
    Max angular momentum: 2

  ==> Pre-Iterations <==

   -------------------------------------------------------
    Irrep   Nso     Nmo     Nalpha   Nbeta   Ndocc  Nsocc
   -------------------------------------------------------
     A        181     181       0       0       0       0
   -------------------------------------------------------
    Total     181     181      36      36      36       0
   -------------------------------------------------------

  ==> Integral Setup <==

  Using integral reordering PK algorithm.
  Sizing the integral batches needed.
  Building batch lookup table.
   Calculation information:
      Number of atoms:                  20
      Number of AO shells:              87
      Number of primitives:            253
      Number of atomic orbitals:       190
      Number of basis functions:       181

      Integral cutoff                 1.00e-12
      Number of threads:                 1

	Batch   1 pq = [       0,    9405] index = [             0,44231715] size =     44231715
	Batch   2 pq = [    9405,   13301] index = [      44231715,88464951] size =     44233236
	Batch   3 pq = [   13301,   16471] index = [      88464951,135655156] size =     47190205
  Task number: 13
  Buffer size: 11059200
  Buffer per thread: 2
  We computed 6315557 shell quartets total.
  Whereas there are 7328706 unique shell quartets.

  ==> DiskJK: Disk-Based J/K Matrices <==

    J tasked:                  Yes
    K tasked:                  Yes
    wK tasked:                  No
    Memory [MiB]:              375
    Schwarz Cutoff:          1E-12

    OpenMP threads:              1

  Minimum eigenvalue in the overlap matrix is 3.8336361501E-03.
  Using Symmetric Orthogonalization.

  SCF Guess: Superposition of Atomic Densities via on-the-fly atomic UHF.

  ==> Iterations <==

                        Total Energy        Delta E     RMS |[F,P]|

   @RHF iter SAD:  -469.68228458121280   -4.69682e+02   0.00000e+00
   @RHF iter   1:  -470.68840733212602   -1.00612e+00   4.24157e-03 DIIS
   @RHF iter   2:  -470.91175971006965   -2.23352e-01   2.29286e-03 DIIS
   @RHF iter   3:  -470.97382115195251   -6.20614e-02   4.20044e-04 DIIS
   @RHF iter   4:  -470.97732996716144   -3.50882e-03   1.59583e-04 DIIS
   @RHF iter   5:  -470.97781345241231   -4.83485e-04   3.32255e-05 DIIS
   @RHF iter   6:  -470.97784147084349   -2.80184e-05   1.69243e-05 DIIS
   @RHF iter   7:  -470.97784768307599   -6.21223e-06   4.37050e-06 DIIS
   @RHF iter   8:  -470.97784859463519   -9.11559e-07   2.03706e-06 DIIS
   @RHF iter   9:  -470.97784876202138   -1.67386e-07   7.39384e-07 DIIS
   @RHF iter  10:  -470.97784879112953   -2.91082e-08   2.39173e-07 DIIS
   @RHF iter  11:  -470.97784879368930   -2.55977e-09   6.90970e-08 DIIS
   @RHF iter  12:  -470.97784879383738   -1.48077e-10   2.30088e-08 DIIS
   @RHF iter  13:  -470.97784879384955   -1.21645e-11   5.70645e-09 DIIS
   @RHF iter  14:  -470.97784879385392   -4.37694e-12   1.64076e-09 DIIS
   @RHF iter  15:  -470.97784879385256    1.36424e-12   6.77926e-10 DIIS
   @RHF iter  16:  -470.97784879385233    2.27374e-13   2.60001e-10 DIIS
   @RHF iter  17:  -470.97784879385250   -1.70530e-13   1.28856e-10 DIIS
   @RHF iter  18:  -470.97784879385478   -2.27374e-12   4.28686e-11 DIIS
  Energy and wave function converged.

  ==> Post-Iterations <==

    Orbital Energies [Eh]
    ---------------------

    Doubly Occupied:

       1A    -20.428966     2A    -20.397312     3A    -15.659340
       4A    -15.629299     5A    -15.624403     6A    -11.442910
       7A    -11.319410     8A    -11.267202     9A    -11.187598
      10A     -1.399848    11A     -1.305861    12A     -1.255645
      13A     -1.242549    14A     -1.180806    15A     -1.006363
      16A     -0.929951    17A     -0.897052    18A     -0.833568
      19A     -0.799516    20A     -0.719000    21A     -0.709696
      22A     -0.679771    23A     -0.658111    24A     -0.641293
      25A     -0.612359    26A     -0.601202    27A     -0.549360
      28A     -0.546910    29A     -0.541953    30A     -0.484436
      31A     -0.480208    32A     -0.454259    33A     -0.433208
      34A     -0.344065    35A     -0.311720    36A     -0.310304

    Virtual:

      37A      0.113406    38A      0.144496    39A      0.171011
      40A      0.186967    41A      0.195650    42A      0.222599
      43A      0.244817    44A      0.253148    45A      0.274457
      46A      0.289051    47A      0.313081    48A      0.327835
      49A      0.354515    50A      0.364690    51A      0.416480
      52A      0.453825    53A      0.477204    54A      0.490100
      55A      0.552961    56A      0.563837    57A      0.596498
      58A      0.617970    59A      0.653348    60A      0.656143
      61A      0.669640    62A      0.680132    63A      0.688268
      64A      0.697796    65A      0.705922    66A      0.765310
      67A      0.787642    68A      0.810347    69A      0.814133
      70A      0.818514    71A      0.828166    72A      0.860843
      73A      0.875369    74A      0.889841    75A      0.902521
      76A      0.916938    77A      0.923182    78A      0.938259
      79A      0.946118    80A      0.973198    81A      0.973766
      82A      1.003330    83A      1.026523    84A      1.051890
      85A      1.060223    86A      1.104153    87A      1.122240
      88A      1.166100    89A      1.197899    90A      1.227589
      91A      1.238039    92A      1.256512    93A      1.282602
      94A      1.305858    95A      1.312298    96A      1.332816
      97A      1.353676    98A      1.386547    99A      1.414792
     100A      1.441731   101A      1.453184   102A      1.488271
     103A      1.492512   104A      1.541859   105A      1.569089
     106A      1.586081   107A      1.590240   108A      1.613265
     109A      1.640248   110A      1.655293   111A      1.662435
     112A      1.702227   113A      1.705155   114A      1.734816
     115A      1.787824   116A      1.809856   117A      1.832604
     118A      1.865647   119A      1.874890   120A      1.885191
     121A      1.906865   122A      1.921322   123A      1.931960
     124A      1.945839   125A      1.949562   126A      1.970571
     127A      1.977063   128A      1.996655   129A      2.032020
     130A      2.044844   131A      2.079147   132A      2.095295
     133A      2.132537   134A      2.163884   135A      2.195836
     136A      2.202171   137A      2.270075   138A      2.283307
     139A      2.297008   140A      2.301642   141A      2.311063
     142A      2.384385   143A      2.400772   144A      2.421113
     145A      2.447393   146A      2.473824   147A      2.491726
     148A      2.541444   149A      2.549728   150A      2.578325
     151A      2.587918   152A      2.623037   153A      2.672439
     154A      2.699193   155A      2.717605   156A      2.727246
     157A      2.771913   158A      2.790304   159A      2.853823
     160A      2.861832   161A      2.865424   162A      2.892780
     163A      2.920987   164A      2.974426   165A      2.979640
     166A      3.032606   167A      3.094858   168A      3.142618
     169A      3.152580   170A      3.204411   171A      3.227030
     172A      3.271612   173A      3.331996   174A      3.491889
     175A      3.592347   176A      3.656030   177A      3.743347
     178A      3.798993   179A      3.917572   180A      3.977288
     181A      4.055226

    Final Occupation by Irrep:
              A
    DOCC [    36 ]

  @RHF Final Energy:  -470.97784879385478

   => Energetics <=

    Nuclear Repulsion Energy =            462.3874282672107370
    One-Electron Energy =               -1560.9596463951424994
    Two-Electron Energy =                 627.5943693340771006
    Total Energy =                       -470.9778487938547187

Computation Completed

Properties will be evaluated at   0.000000,   0.000000,   0.000000 [a0]

Properties computed using the SCF density matrix

  Nuclear Dipole Moment: [e a0]
     X:     9.4420      Y:     4.7198      Z:     0.9619

  Electronic Dipole Moment: [e a0]
     X:    -4.4678      Y:    -2.3858      Z:    -4.3159

  Dipole Moment: [e a0]
     X:     4.9742      Y:     2.3340      Z:    -3.3539     Total:     6.4373

  Dipole Moment: [D]
     X:    12.6431      Y:     5.9325      Z:    -8.5248     Total:    16.3620

*** tstop() called on ds3 at Mon Apr 27 14:05:27 2020
Module time:
	user time   =      48.12 seconds =       0.80 minutes
	system time =      20.81 seconds =       0.35 minutes
	total time  =         88 seconds =       1.47 minutes
Total time:
	user time   =      48.12 seconds =       0.80 minutes
	system time =      20.81 seconds =       0.35 minutes
	total time  =         88 seconds =       1.47 minutes
                                     G D M A

                                 by Anthony Stone

                           version 2.2.06, 22 June 2011

               Distributed Multipoles from Gaussian wavefunctions

Starting at 14:5:27 on 27 Apr 2020

Using SCF density matrix from file ./SSI/SSI-134GLU-138ARG-1-dimer.test.8684.fchk

                         Distributed Multipole Analysis

Standard DMA

Positions and radii in angstrom
Multipole moments in atomic units, ea_0^k for rank k

C          x = -0.703392  y = -0.618811  z =  2.664197 angstrom
           Maximum rank =  0   Radius =  0.650 angstrom
                   Q00  =  -0.285960

C          x = -1.657392  y = -0.862811  z =  1.471197 angstrom
           Maximum rank =  0   Radius =  0.650 angstrom
                   Q00  =   0.921883

O          x = -1.163392  y = -0.809811  z =  0.326197 angstrom
           Maximum rank =  0   Radius =  0.650 angstrom
                   Q00  =  -0.927601

O          x = -2.880392  y = -1.116811  z =  1.623197 angstrom
           Maximum rank =  0   Radius =  0.650 angstrom
                   Q00  =  -0.866112

H          x = -0.056392  y =  0.218189  z =  2.398197 angstrom
           Maximum rank =  0   Radius =  0.325 angstrom
                   Q00  =   0.039181

H          x = -0.070392  y = -1.497811  z =  2.805197 angstrom
           Maximum rank =  0   Radius =  0.325 angstrom
                   Q00  =   0.099678

H          x = -1.206662  y = -0.392841  z =  3.615857 angstrom
           Maximum rank =  0   Radius =  0.325 angstrom
                   Q00  =   0.104888

C          x =  2.107608  y =  1.385189  z =  0.475197 angstrom
           Maximum rank =  0   Radius =  0.650 angstrom
                   Q00  =  -0.098411

C          x =  1.066608  y =  0.502189  z = -1.617803 angstrom
           Maximum rank =  0   Radius =  0.650 angstrom
                   Q00  =   1.065112

N          x =  1.181608  y =  0.526189  z = -0.294803 angstrom
           Maximum rank =  0   Radius =  0.650 angstrom
                   Q00  =  -0.508008

N          x =  1.877608  y =  1.204189  z = -2.381803 angstrom
           Maximum rank =  0   Radius =  0.650 angstrom
                   Q00  =  -0.579438

N          x =  0.135608  y = -0.240811  z = -2.186803 angstrom
           Maximum rank =  0   Radius =  0.650 angstrom
                   Q00  =  -0.587055

H          x =  0.477608  y = -0.014811  z =  0.207197 angstrom
           Maximum rank =  0   Radius =  0.325 angstrom
                   Q00  =   0.262720

H          x =  2.646608  y =  1.706189  z = -1.973803 angstrom
           Maximum rank =  0   Radius =  0.325 angstrom
                   Q00  =   0.240822

H          x =  1.816608  y =  1.131189  z = -3.385803 angstrom
           Maximum rank =  0   Radius =  0.325 angstrom
                   Q00  =   0.239642

H          x = -0.510392  y = -0.714811  z = -1.554803 angstrom
           Maximum rank =  0   Radius =  0.325 angstrom
                   Q00  =   0.307582

H          x =  0.033608  y = -0.305811  z = -3.185803 angstrom
           Maximum rank =  0   Radius =  0.325 angstrom
                   Q00  =   0.236004

H          x =  1.509608  y =  1.904189  z =  1.227197 angstrom
           Maximum rank =  0   Radius =  0.325 angstrom
                   Q00  =   0.135693

H          x =  2.547608  y =  2.154189  z = -0.160803 angstrom
           Maximum rank =  0   Radius =  0.325 angstrom
                   Q00  =   0.079753

H          x =  2.914558  y =  0.861239  z =  1.008407 angstrom
           Maximum rank =  0   Radius =  0.325 angstrom
                   Q00  =   0.119629

Total multipoles referred to origin at
           x =   0.000000,  y =    0.000000,  z =    0.000000 angstrom
                   Q00  =  -0.000000

Finished at 14:5:27 on 27 Apr 2020

  DMA results are available in the Python driver through the
	  variable('DMA DISTRIBUTED MULTIPOLES')
  and
	  variable('DMA TOTAL MULTIPOLES')
  commands.

    Psi4 stopped on: Monday, 27 April 2020 02:05PM
    Psi4 wall time for execution: 0:01:27.47

*** Psi4 exiting successfully. Buy a developer a beer!
