                               Psi4 1.3.2 release

  ==> Input File <==

--------------------------------------------------------------------------
import numpy as np
set {scf_type pk
basis cc-pvdz
d_convergence 10
gdma_switch   0
gdma_limit    0
gdma_origin   [ 0.0,  0.0,  0.0 ]
}
molecule test {
    units Angstrom
    0 1
    --
    0 1
    C                0.728910276019900    -1.446712232074171     0.574124214416241
    C                1.122910276019900    -2.644712232074171     1.426124214416241
    H                0.121910276019900    -1.760712232074171    -0.275875785583759
    H                0.132910276019900    -0.767712232074171     1.174124214416241
    H                1.613910276019900    -0.930712232074171     0.223124214416241
    H                1.939910276019900    -2.357712232074171     2.085124214416241
    H                1.409900276019900    -3.480647232074171     0.771260614416241
    H                0.296160276019900    -2.950329232074171     2.084211214416241
    C               -0.991089723980100     1.347287767925829    -0.708875785583759
    C               -0.861089723980100     2.744287767925829    -1.296875785583759
    H               -2.025089723980100     1.154287767925829    -0.421875785583759
    H               -0.670089723980100     0.607287767925829    -1.438875785583760
    H               -0.353089723980100     1.269287767925829     0.167124214416241
    H                0.190910276019900     2.903287767925829    -1.525875785583759
    H               -1.205309723980100     3.478717767925829    -0.553822785583759
    H               -1.447759723980100     2.833157767925829    -2.223117785583760

}
e, wfn = energy('scf', return_wfn=True)
gdma(wfn)
dmavals = variable('DMA DISTRIBUTED MULTIPOLES')
charges = np.array(dmavals)
print(charges)
np.save('SSI-106LEU-126LEU-1-dimer.npy', np.array(charges))--------------------------------------------------------------------------

*** tstart() called on ds3
*** at Sun Apr 26 23:02:40 2020

   => Loading Basis Set <=

    Name: CC-PVDZ
    Role: ORBITAL
    Keyword: BASIS
    atoms 1-2, 9-10  entry C          line   138 file /theoryfs2/ds/metcalf/miniconda2/envs/tf2gpu/share/psi4/basis/cc-pvdz.gbs
    atoms 3-8, 11-16 entry H          line    22 file /theoryfs2/ds/metcalf/miniconda2/envs/tf2gpu/share/psi4/basis/cc-pvdz.gbs

         ---------------------------------------------------------
                                   SCF
               by Justin Turney, Rob Parrish, Andy Simmonett
                          and Daniel G. A. Smith
                              RHF Reference
                        1 Threads,    500 MiB Core
         ---------------------------------------------------------

  ==> Geometry <==

    Molecular point group: c1
    Full point group: C1

    Geometry (in Angstrom), charge = 0, multiplicity = 1:

       Center              X                  Y                   Z               Mass
    ------------   -----------------  -----------------  -----------------  -----------------
         C            0.728910276020    -1.446712232074     0.574124214416    12.000000000000
         C            1.122910276020    -2.644712232074     1.426124214416    12.000000000000
         H            0.121910276020    -1.760712232074    -0.275875785584     1.007825032230
         H            0.132910276020    -0.767712232074     1.174124214416     1.007825032230
         H            1.613910276020    -0.930712232074     0.223124214416     1.007825032230
         H            1.939910276020    -2.357712232074     2.085124214416     1.007825032230
         H            1.409900276020    -3.480647232074     0.771260614416     1.007825032230
         H            0.296160276020    -2.950329232074     2.084211214416     1.007825032230
         C           -0.991089723980     1.347287767926    -0.708875785584    12.000000000000
         C           -0.861089723980     2.744287767926    -1.296875785584    12.000000000000
         H           -2.025089723980     1.154287767926    -0.421875785584     1.007825032230
         H           -0.670089723980     0.607287767926    -1.438875785584     1.007825032230
         H           -0.353089723980     1.269287767926     0.167124214416     1.007825032230
         H            0.190910276020     2.903287767926    -1.525875785584     1.007825032230
         H           -1.205309723980     3.478717767926    -0.553822785584     1.007825032230
         H           -1.447759723980     2.833157767926    -2.223117785584     1.007825032230

  Running in c1 symmetry.

  Rotational constants: A =      0.98740  B =      0.04123  C =      0.04092 [cm^-1]
  Rotational constants: A =  29601.47637  B =   1236.17083  C =   1226.71066 [MHz]
  Nuclear repulsion =  121.259412674395151

  Charge       = 0
  Multiplicity = 1
  Electrons    = 36
  Nalpha       = 18
  Nbeta        = 18

  ==> Algorithm <==

  SCF Algorithm Type is PK.
  DIIS enabled.
  MOM disabled.
  Fractional occupation disabled.
  Guess Type is SAD.
  Energy threshold   = 1.00e-06
  Density threshold  = 1.00e-10
  Integral threshold = 0.00e+00

  ==> Primary Basis <==

  Basis Set: CC-PVDZ
    Blend: CC-PVDZ
    Number of shells: 60
    Number of basis function: 116
    Number of Cartesian functions: 120
    Spherical Harmonics?: true
    Max angular momentum: 2

  ==> Pre-Iterations <==

   -------------------------------------------------------
    Irrep   Nso     Nmo     Nalpha   Nbeta   Ndocc  Nsocc
   -------------------------------------------------------
     A        116     116       0       0       0       0
   -------------------------------------------------------
    Total     116     116      18      18      18       0
   -------------------------------------------------------

  ==> Integral Setup <==

  Using integral reordering PK algorithm.
  Sizing the integral batches needed.
  Building batch lookup table.
   Calculation information:
      Number of atoms:                  16
      Number of AO shells:              60
      Number of primitives:            148
      Number of atomic orbitals:       120
      Number of basis functions:       116

      Integral cutoff                 1.00e-12
      Number of threads:                 1

	Batch   1 pq = [       0,    6786] index = [             0,23028291] size =     23028291
  Task number: 3
  Buffer size: 11059200
  Buffer per thread: 2
  We computed 1367499 shell quartets total.
  Whereas there are 1675365 unique shell quartets.

  ==> DiskJK: Disk-Based J/K Matrices <==

    J tasked:                  Yes
    K tasked:                  Yes
    wK tasked:                  No
    Memory [MiB]:              375
    Schwarz Cutoff:          1E-12

    OpenMP threads:              1

  Minimum eigenvalue in the overlap matrix is 5.8892394563E-03.
  Using Symmetric Orthogonalization.

  SCF Guess: Superposition of Atomic Densities via on-the-fly atomic UHF.

  ==> Iterations <==

                        Total Energy        Delta E     RMS |[F,P]|

   @RHF iter SAD:  -157.39340352432509   -1.57393e+02   0.00000e+00
   @RHF iter   1:  -158.30294512031458   -9.09542e-01   4.24743e-03 DIIS
   @RHF iter   2:  -158.43821965534414   -1.35275e-01   1.80513e-03 DIIS
   @RHF iter   3:  -158.46185043537224   -2.36308e-02   3.52022e-04 DIIS
   @RHF iter   4:  -158.46369947846597   -1.84904e-03   3.94410e-05 DIIS
   @RHF iter   5:  -158.46372379168668   -2.43132e-05   7.14324e-06 DIIS
   @RHF iter   6:  -158.46372451259526   -7.20909e-07   1.38903e-06 DIIS
   @RHF iter   7:  -158.46372453034334   -1.77481e-08   3.22335e-07 DIIS
   @RHF iter   8:  -158.46372453137079   -1.02744e-09   3.92151e-08 DIIS
   @RHF iter   9:  -158.46372453139438   -2.35900e-11   7.11633e-09 DIIS
   @RHF iter  10:  -158.46372453139546   -1.08002e-12   1.70369e-09 DIIS
   @RHF iter  11:  -158.46372453139543    2.84217e-14   4.51820e-10 DIIS
   @RHF iter  12:  -158.46372453139540    2.84217e-14   1.37474e-10 DIIS
   @RHF iter  13:  -158.46372453139520    1.98952e-13   2.00925e-11 DIIS
  Energy and wave function converged.

  ==> Post-Iterations <==

    Orbital Energies [Eh]
    ---------------------

    Doubly Occupied:

       1A    -11.217276     2A    -11.217219     3A    -11.213501
       4A    -11.213324     5A     -1.021125     6A     -1.018406
       7A     -0.839500     8A     -0.830241     9A     -0.602927
      10A     -0.600600    11A     -0.597698    12A     -0.595982
      13A     -0.507150    14A     -0.494706    15A     -0.489288
      16A     -0.484557    17A     -0.481884    18A     -0.476989

    Virtual:

      19A      0.178079    20A      0.193734    21A      0.224090
      22A      0.235560    23A      0.241714    24A      0.258810
      25A      0.264785    26A      0.280909    27A      0.283866
      28A      0.291940    29A      0.309821    30A      0.332855
      31A      0.384023    32A      0.411896    33A      0.565377
      34A      0.590344    35A      0.595351    36A      0.607899
      37A      0.611493    38A      0.641313    39A      0.680357
      40A      0.706404    41A      0.709722    42A      0.753805
      43A      0.850219    44A      0.884413    45A      0.886782
      46A      0.892495    47A      0.895439    48A      0.899501
      49A      0.908295    50A      0.915127    51A      0.918534
      52A      0.922309    53A      0.930634    54A      0.937854
      55A      0.959974    56A      1.002418    57A      1.120710
      58A      1.124031    59A      1.132235    60A      1.148396
      61A      1.213524    62A      1.268417    63A      1.480832
      64A      1.483230    65A      1.487702    66A      1.492564
      67A      1.580374    68A      1.594044    69A      1.676477
      70A      1.682560    71A      1.693038    72A      1.697040
      73A      1.850613    74A      1.854532    75A      1.868039
      76A      1.871740    77A      1.906722    78A      1.920850
      79A      1.938128    80A      1.941727    81A      1.944421
      82A      1.949095    83A      1.950656    84A      1.960054
      85A      1.976131    86A      1.976560    87A      1.994743
      88A      2.067704    89A      2.106529    90A      2.121638
      91A      2.143877    92A      2.153824    93A      2.295894
      94A      2.308673    95A      2.317382    96A      2.327005
      97A      2.434805    98A      2.443429    99A      2.471379
     100A      2.479815   101A      2.567829   102A      2.582689
     103A      2.587150   104A      2.602417   105A      2.762790
     106A      2.766186   107A      2.794069   108A      2.797929
     109A      2.836789   110A      2.846462   111A      2.849753
     112A      2.857103   113A      2.944023   114A      2.958314
     115A      2.959858   116A      2.968795

    Final Occupation by Irrep:
              A
    DOCC [    18 ]

  @RHF Final Energy:  -158.46372453139520

   => Energetics <=

    Nuclear Repulsion Energy =            121.2594126743951506
    One-Electron Energy =                -451.6415276865461692
    Two-Electron Energy =                 171.9183904807558179
    Total Energy =                       -158.4637245313952008

Computation Completed

Properties will be evaluated at   0.000000,   0.000000,   0.000000 [a0]

Properties computed using the SCF density matrix

  Nuclear Dipole Moment: [e a0]
     X:     0.0040      Y:    -0.0017      Z:     0.0614

  Electronic Dipole Moment: [e a0]
     X:     0.0021      Y:     0.0028      Z:    -0.0501

  Dipole Moment: [e a0]
     X:     0.0061      Y:     0.0011      Z:     0.0113     Total:     0.0129

  Dipole Moment: [D]
     X:     0.0155      Y:     0.0027      Z:     0.0287     Total:     0.0328

*** tstop() called on ds3 at Sun Apr 26 23:02:50 2020
Module time:
	user time   =       7.36 seconds =       0.12 minutes
	system time =       2.80 seconds =       0.05 minutes
	total time  =         10 seconds =       0.17 minutes
Total time:
	user time   =       7.36 seconds =       0.12 minutes
	system time =       2.80 seconds =       0.05 minutes
	total time  =         10 seconds =       0.17 minutes
                                     G D M A

                                 by Anthony Stone

                           version 2.2.06, 22 June 2011

               Distributed Multipoles from Gaussian wavefunctions

Starting at 23:2:50 on 26 Apr 2020

Using SCF density matrix from file ./SSI/SSI-106LEU-126LEU-1-dimer.test.22790.fchk

                         Distributed Multipole Analysis

Standard DMA

Positions and radii in angstrom
Multipole moments in atomic units, ea_0^k for rank k

C          x =  0.728910  y = -1.446712  z =  0.574124 angstrom
           Maximum rank =  0   Radius =  0.650 angstrom
                   Q00  =  -0.225412

C          x =  1.122910  y = -2.644712  z =  1.426124 angstrom
           Maximum rank =  0   Radius =  0.650 angstrom
                   Q00  =  -0.240712

H          x =  0.121910  y = -1.760712  z = -0.275876 angstrom
           Maximum rank =  0   Radius =  0.325 angstrom
                   Q00  =   0.078135

H          x =  0.132910  y = -0.767712  z =  1.174124 angstrom
           Maximum rank =  0   Radius =  0.325 angstrom
                   Q00  =   0.076290

H          x =  1.613910  y = -0.930712  z =  0.223124 angstrom
           Maximum rank =  0   Radius =  0.325 angstrom
                   Q00  =   0.078344

H          x =  1.939910  y = -2.357712  z =  2.085124 angstrom
           Maximum rank =  0   Radius =  0.325 angstrom
                   Q00  =   0.078249

H          x =  1.409900  y = -3.480647  z =  0.771261 angstrom
           Maximum rank =  0   Radius =  0.325 angstrom
                   Q00  =   0.078060

H          x =  0.296160  y = -2.950329  z =  2.084211 angstrom
           Maximum rank =  0   Radius =  0.325 angstrom
                   Q00  =   0.076545

C          x = -0.991090  y =  1.347288  z = -0.708876 angstrom
           Maximum rank =  0   Radius =  0.650 angstrom
                   Q00  =  -0.239169

C          x = -0.861090  y =  2.744288  z = -1.296876 angstrom
           Maximum rank =  0   Radius =  0.650 angstrom
                   Q00  =  -0.225854

H          x = -2.025090  y =  1.154288  z = -0.421876 angstrom
           Maximum rank =  0   Radius =  0.325 angstrom
                   Q00  =   0.076788

H          x = -0.670090  y =  0.607288  z = -1.438876 angstrom
           Maximum rank =  0   Radius =  0.325 angstrom
                   Q00  =   0.078124

H          x = -0.353090  y =  1.269288  z =  0.167124 angstrom
           Maximum rank =  0   Radius =  0.325 angstrom
                   Q00  =   0.078204

H          x =  0.190910  y =  2.903288  z = -1.525876 angstrom
           Maximum rank =  0   Radius =  0.325 angstrom
                   Q00  =   0.076920

H          x = -1.205310  y =  3.478718  z = -0.553823 angstrom
           Maximum rank =  0   Radius =  0.325 angstrom
                   Q00  =   0.077399

H          x = -1.447760  y =  2.833158  z = -2.223118 angstrom
           Maximum rank =  0   Radius =  0.325 angstrom
                   Q00  =   0.078088

Total multipoles referred to origin at
           x =   0.000000,  y =    0.000000,  z =    0.000000 angstrom
                   Q00  =  -0.000000

Finished at 23:2:50 on 26 Apr 2020

  DMA results are available in the Python driver through the
	  variable('DMA DISTRIBUTED MULTIPOLES')
  and
	  variable('DMA TOTAL MULTIPOLES')
  commands.

    Psi4 stopped on: Sunday, 26 April 2020 11:02PM
    Psi4 wall time for execution: 0:00:10.00

*** Psi4 exiting successfully. Buy a developer a beer!
