                               Psi4 1.3.2 release

  ==> Input File <==

--------------------------------------------------------------------------
import numpy as np
set {scf_type pk
basis cc-pvdz
d_convergence 10
gdma_switch   0
gdma_limit    0
gdma_origin   [ 0.0,  0.0,  0.0 ]
}
molecule test {
    units Angstrom
    0 1
    --
    0 1
    C               -2.436591204960183    -0.707521672962348     1.612323843695060
    C               -3.697591204960182    -1.288521672962348     2.249323843695061
    H               -2.473591204960182    -0.789521672962348     0.525323843695061
    H               -2.340591204960182     0.347478327037652     1.879323843695060
    H               -1.556591204960182    -1.237521672962348     1.980323843695060
    H               -3.645591204960183    -1.124521672962348     3.327323843695061
    H               -3.767641204960182    -2.367141672962348     2.045203843695060
    H               -4.592511204960182    -0.765701672962348     1.880833843695061
    C               -1.348591204960182     1.541478327037652    -2.020676156304940
    C                0.276408795039818     1.466478327037652    -0.086676156304939
    C               -0.221591204960182     0.887478327037652    -1.256676156304940
    C                1.326408795039818     0.867478327037652     0.616323843695061
    C                1.887408795039818    -0.321521672962348     0.145323843695061
    C                0.346408795039818    -0.304521672962348    -1.713676156304939
    C                1.397408795039818    -0.908521672962348    -1.020676156304939
    O                2.916408795039818    -0.911521672962348     0.821323843695061
    H               -0.156591204960182     2.387478327037652     0.281323843695061
    H                1.699408795039818     1.321478327037652     1.523323843695060
    H               -2.042591204960182     1.981478327037652    -1.304676156304939
    H               -1.892591204960182     0.755478327037652    -2.521676156304939
    H               -0.036591204960182    -0.773521672962348    -2.610676156304939
    H                3.125408795039818    -0.432521672962348     1.630323843695061
    H                1.833408795039818    -1.829521672962348    -1.380676156304940
    H               -1.025181204960182     2.320248327037652    -2.727016156304940

}
e, wfn = energy('scf', return_wfn=True)
gdma(wfn)
dmavals = variable('DMA DISTRIBUTED MULTIPOLES')
charges = np.array(dmavals)
print(charges)
np.save('SSI-019ALA-058TYR-1-dimer.npy', np.array(charges))--------------------------------------------------------------------------

*** tstart() called on ds3
*** at Mon Apr 27 09:11:35 2020

   => Loading Basis Set <=

    Name: CC-PVDZ
    Role: ORBITAL
    Keyword: BASIS
    atoms 1-2, 9-15  entry C          line   138 file /theoryfs2/ds/metcalf/miniconda2/envs/tf2gpu/share/psi4/basis/cc-pvdz.gbs
    atoms 3-8, 17-24 entry H          line    22 file /theoryfs2/ds/metcalf/miniconda2/envs/tf2gpu/share/psi4/basis/cc-pvdz.gbs
    atoms 16         entry O          line   198 file /theoryfs2/ds/metcalf/miniconda2/envs/tf2gpu/share/psi4/basis/cc-pvdz.gbs

         ---------------------------------------------------------
                                   SCF
               by Justin Turney, Rob Parrish, Andy Simmonett
                          and Daniel G. A. Smith
                              RHF Reference
                        1 Threads,    500 MiB Core
         ---------------------------------------------------------

  ==> Geometry <==

    Molecular point group: c1
    Full point group: C1

    Geometry (in Angstrom), charge = 0, multiplicity = 1:

       Center              X                  Y                   Z               Mass
    ------------   -----------------  -----------------  -----------------  -----------------
         C           -2.436591204960    -0.707521672962     1.612323843695    12.000000000000
         C           -3.697591204960    -1.288521672962     2.249323843695    12.000000000000
         H           -2.473591204960    -0.789521672962     0.525323843695     1.007825032230
         H           -2.340591204960     0.347478327038     1.879323843695     1.007825032230
         H           -1.556591204960    -1.237521672962     1.980323843695     1.007825032230
         H           -3.645591204960    -1.124521672962     3.327323843695     1.007825032230
         H           -3.767641204960    -2.367141672962     2.045203843695     1.007825032230
         H           -4.592511204960    -0.765701672962     1.880833843695     1.007825032230
         C           -1.348591204960     1.541478327038    -2.020676156305    12.000000000000
         C            0.276408795040     1.466478327038    -0.086676156305    12.000000000000
         C           -0.221591204960     0.887478327038    -1.256676156305    12.000000000000
         C            1.326408795040     0.867478327038     0.616323843695    12.000000000000
         C            1.887408795040    -0.321521672962     0.145323843695    12.000000000000
         C            0.346408795040    -0.304521672962    -1.713676156305    12.000000000000
         C            1.397408795040    -0.908521672962    -1.020676156305    12.000000000000
         O            2.916408795040    -0.911521672962     0.821323843695    15.994914619570
         H           -0.156591204960     2.387478327038     0.281323843695     1.007825032230
         H            1.699408795040     1.321478327038     1.523323843695     1.007825032230
         H           -2.042591204960     1.981478327038    -1.304676156305     1.007825032230
         H           -1.892591204960     0.755478327038    -2.521676156305     1.007825032230
         H           -0.036591204960    -0.773521672962    -2.610676156305     1.007825032230
         H            3.125408795040    -0.432521672962     1.630323843695     1.007825032230
         H            1.833408795040    -1.829521672962    -1.380676156305     1.007825032230
         H           -1.025181204960     2.320248327038    -2.727016156305     1.007825032230

  Running in c1 symmetry.

  Rotational constants: A =      0.04254  B =      0.02404  C =      0.01840 [cm^-1]
  Rotational constants: A =   1275.32270  B =    720.75428  C =    551.65473 [MHz]
  Nuclear repulsion =  493.899470999894277

  Charge       = 0
  Multiplicity = 1
  Electrons    = 76
  Nalpha       = 38
  Nbeta        = 38

  ==> Algorithm <==

  SCF Algorithm Type is PK.
  DIIS enabled.
  MOM disabled.
  Fractional occupation disabled.
  Guess Type is SAD.
  Energy threshold   = 1.00e-06
  Density threshold  = 1.00e-10
  Integral threshold = 0.00e+00

  ==> Primary Basis <==

  Basis Set: CC-PVDZ
    Blend: CC-PVDZ
    Number of shells: 102
    Number of basis function: 210
    Number of Cartesian functions: 220
    Spherical Harmonics?: true
    Max angular momentum: 2

  ==> Pre-Iterations <==

   -------------------------------------------------------
    Irrep   Nso     Nmo     Nalpha   Nbeta   Ndocc  Nsocc
   -------------------------------------------------------
     A        210     210       0       0       0       0
   -------------------------------------------------------
    Total     210     210      38      38      38       0
   -------------------------------------------------------

  ==> Integral Setup <==

  Using integral reordering PK algorithm.
  Sizing the integral batches needed.
  Building batch lookup table.
   Calculation information:
      Number of atoms:                  24
      Number of AO shells:             102
      Number of primitives:            290
      Number of atomic orbitals:       220
      Number of basis functions:       210

      Integral cutoff                 1.00e-12
      Number of threads:                 1

	Batch   1 pq = [       0,    9405] index = [             0,44231715] size =     44231715
	Batch   2 pq = [    9405,   13301] index = [      44231715,88464951] size =     44233236
	Batch   3 pq = [   13301,   16290] index = [      88464951,132690195] size =     44225244
	Batch   4 pq = [   16290,   18810] index = [     132690195,176917455] size =     44227260
	Batch   5 pq = [   18810,   21030] index = [     176917455,221140965] size =     44223510
	Batch   6 pq = [   21030,   22155] index = [     221140965,245433090] size =     24292125
  Task number: 23
  Buffer size: 11059200
  Buffer per thread: 2
  We computed 11919456 shell quartets total.
  Whereas there are 13799631 unique shell quartets.

  ==> DiskJK: Disk-Based J/K Matrices <==

    J tasked:                  Yes
    K tasked:                  Yes
    wK tasked:                  No
    Memory [MiB]:              375
    Schwarz Cutoff:          1E-12

    OpenMP threads:              1

  Minimum eigenvalue in the overlap matrix is 3.3104787833E-04.
  Using Symmetric Orthogonalization.

  SCF Guess: Superposition of Atomic Densities via on-the-fly atomic UHF.

  ==> Iterations <==

                        Total Energy        Delta E     RMS |[F,P]|

   @RHF iter SAD:  -422.62042659808407   -4.22620e+02   0.00000e+00
   @RHF iter   1:  -423.60245068645514   -9.82024e-01   2.97911e-03 DIIS
   @RHF iter   2:  -423.81872304861548   -2.16272e-01   1.25967e-03 DIIS
   @RHF iter   3:  -423.85370456748632   -3.49815e-02   2.84846e-04 DIIS
   @RHF iter   4:  -423.85656884408758   -2.86428e-03   1.19694e-04 DIIS
   @RHF iter   5:  -423.85693742043861   -3.68576e-04   2.07000e-05 DIIS
   @RHF iter   6:  -423.85695494158034   -1.75211e-05   6.43609e-06 DIIS
   @RHF iter   7:  -423.85695658832259   -1.64674e-06   2.09852e-06 DIIS
   @RHF iter   8:  -423.85695681486266   -2.26540e-07   7.89563e-07 DIIS
   @RHF iter   9:  -423.85695685202120   -3.71585e-08   3.14930e-07 DIIS
   @RHF iter  10:  -423.85695685918813   -7.16693e-09   1.32361e-07 DIIS
   @RHF iter  11:  -423.85695686134693   -2.15880e-09   6.07936e-08 DIIS
   @RHF iter  12:  -423.85695686177633   -4.29395e-10   2.93633e-08 DIIS
   @RHF iter  13:  -423.85695686186409   -8.77662e-11   8.26384e-09 DIIS
   @RHF iter  14:  -423.85695686187091   -6.82121e-12   2.21424e-09 DIIS
   @RHF iter  15:  -423.85695686186710    3.80851e-12   7.13698e-10 DIIS
   @RHF iter  16:  -423.85695686187120   -4.09273e-12   2.46287e-10 DIIS
   @RHF iter  17:  -423.85695686186784    3.35376e-12   1.06407e-10 DIIS
   @RHF iter  18:  -423.85695686187000   -2.16005e-12   5.36996e-11 DIIS
  Energy and wave function converged.

  ==> Post-Iterations <==

    Orbital Energies [Eh]
    ---------------------

    Doubly Occupied:

       1A    -20.583264     2A    -11.300247     3A    -11.239730
       4A    -11.238757     5A    -11.234641     6A    -11.233509
       7A    -11.230829     8A    -11.226828     9A    -11.215170
      10A    -11.210333    11A     -1.398818    12A     -1.148211
      13A     -1.036316    14A     -1.016030    15A     -1.012508
      16A     -0.925993    17A     -0.843634    18A     -0.830401
      19A     -0.800851    20A     -0.730292    21A     -0.666642
      22A     -0.640774    23A     -0.606879    24A     -0.593208
      25A     -0.591262    26A     -0.586065    27A     -0.585350
      28A     -0.572212    29A     -0.566767    30A     -0.525957
      31A     -0.496389    32A     -0.495248    33A     -0.484695
      34A     -0.481064    35A     -0.478628    36A     -0.465235
      37A     -0.337341    38A     -0.301087

    Virtual:

      39A      0.128759    40A      0.154932    41A      0.173081
      42A      0.180183    43A      0.198589    44A      0.215341
      45A      0.215987    46A      0.249682    47A      0.256719
      48A      0.257972    49A      0.263717    50A      0.269106
      51A      0.286391    52A      0.287749    53A      0.295433
      54A      0.305465    55A      0.368858    56A      0.372915
      57A      0.396365    58A      0.426726    59A      0.454459
      60A      0.482060    61A      0.496599    62A      0.503828
      63A      0.572537    64A      0.600241    65A      0.603342
      66A      0.607471    67A      0.643365    68A      0.650780
      69A      0.661276    70A      0.675882    71A      0.678880
      72A      0.696974    73A      0.711772    74A      0.730299
      75A      0.733727    76A      0.738885    77A      0.756024
      78A      0.766226    79A      0.771180    80A      0.789327
      81A      0.793112    82A      0.833094    83A      0.850214
      84A      0.850981    85A      0.875355    86A      0.878746
      87A      0.890252    88A      0.896048    89A      0.896918
      90A      0.897786    91A      0.907837    92A      0.919856
      93A      0.923498    94A      0.931389    95A      0.938628
      96A      0.939974    97A      0.946709    98A      0.963721
      99A      0.997308   100A      1.010766   101A      1.020403
     102A      1.058409   103A      1.124361   104A      1.129997
     105A      1.133381   106A      1.143119   107A      1.145081
     108A      1.168585   109A      1.200804   110A      1.226763
     111A      1.244490   112A      1.259039   113A      1.270189
     114A      1.286278   115A      1.295984   116A      1.306520
     117A      1.312634   118A      1.353675   119A      1.361572
     120A      1.382819   121A      1.478401   122A      1.480364
     123A      1.483439   124A      1.500383   125A      1.527051
     126A      1.551638   127A      1.586309   128A      1.613228
     129A      1.619274   130A      1.683679   131A      1.685335
     132A      1.700155   133A      1.704835   134A      1.730952
     135A      1.747457   136A      1.778271   137A      1.799786
     138A      1.801281   139A      1.860748   140A      1.867882
     141A      1.876721   142A      1.888425   143A      1.891218
     144A      1.909700   145A      1.910985   146A      1.916156
     147A      1.922133   148A      1.942381   149A      1.949885
     150A      1.951845   151A      1.956684   152A      1.957716
     153A      1.970164   154A      1.972937   155A      1.984996
     156A      2.006982   157A      2.036182   158A      2.044812
     159A      2.059159   160A      2.068865   161A      2.075936
     162A      2.103087   163A      2.113801   164A      2.137128
     165A      2.142102   166A      2.161172   167A      2.199825
     168A      2.231225   169A      2.255425   170A      2.271027
     171A      2.294151   172A      2.307738   173A      2.315948
     174A      2.332622   175A      2.363979   176A      2.432452
     177A      2.452624   178A      2.457980   179A      2.465705
     180A      2.473873   181A      2.492184   182A      2.530353
     183A      2.534912   184A      2.564028   185A      2.571407
     186A      2.600889   187A      2.635830   188A      2.748458
     189A      2.761628   190A      2.777614   191A      2.793543
     192A      2.800885   193A      2.803249   194A      2.844203
     195A      2.855141   196A      2.861785   197A      2.908987
     198A      2.945678   199A      2.955037   200A      2.974339
     201A      2.997285   202A      3.079480   203A      3.096006
     204A      3.251570   205A      3.271338   206A      3.343731
     207A      3.570165   208A      3.670279   209A      3.956689
     210A      4.188062

    Final Occupation by Irrep:
              A
    DOCC [    38 ]

  @RHF Final Energy:  -423.85695686187000

   => Energetics <=

    Nuclear Repulsion Energy =            493.8994709998942767
    One-Electron Energy =               -1553.6505260648686999
    Two-Electron Energy =                 635.8940982031044769
    Total Energy =                       -423.8569568618700032

Computation Completed

Properties will be evaluated at   0.000000,   0.000000,   0.000000 [a0]

Properties computed using the SCF density matrix

  Nuclear Dipole Moment: [e a0]
     X:   -15.8028      Y:    -0.1978      Z:     4.2494

  Electronic Dipole Moment: [e a0]
     X:    15.6729      Y:     0.6691      Z:    -3.9823

  Dipole Moment: [e a0]
     X:    -0.1299      Y:     0.4713      Z:     0.2671     Total:     0.5571

  Dipole Moment: [D]
     X:    -0.3302      Y:     1.1979      Z:     0.6789     Total:     1.4159

*** tstop() called on ds3 at Mon Apr 27 09:17:09 2020
Module time:
	user time   =      85.90 seconds =       1.43 minutes
	system time =      36.04 seconds =       0.60 minutes
	total time  =        334 seconds =       5.57 minutes
Total time:
	user time   =      85.90 seconds =       1.43 minutes
	system time =      36.04 seconds =       0.60 minutes
	total time  =        334 seconds =       5.57 minutes
                                     G D M A

                                 by Anthony Stone

                           version 2.2.06, 22 June 2011

               Distributed Multipoles from Gaussian wavefunctions

Starting at 9:17:9 on 27 Apr 2020

Using SCF density matrix from file ./SSI/SSI-019ALA-058TYR-1-dimer.test.1523.fchk

                         Distributed Multipole Analysis

Standard DMA

Positions and radii in angstrom
Multipole moments in atomic units, ea_0^k for rank k

C          x = -2.436591  y = -0.707522  z =  1.612324 angstrom
           Maximum rank =  0   Radius =  0.650 angstrom
                   Q00  =  -0.214444

C          x = -3.697591  y = -1.288522  z =  2.249324 angstrom
           Maximum rank =  0   Radius =  0.650 angstrom
                   Q00  =  -0.250667

H          x = -2.473591  y = -0.789522  z =  0.525324 angstrom
           Maximum rank =  0   Radius =  0.325 angstrom
                   Q00  =   0.080820

H          x = -2.340591  y =  0.347478  z =  1.879324 angstrom
           Maximum rank =  0   Radius =  0.325 angstrom
                   Q00  =   0.072012

H          x = -1.556591  y = -1.237522  z =  1.980324 angstrom
           Maximum rank =  0   Radius =  0.325 angstrom
                   Q00  =   0.081035

H          x = -3.645591  y = -1.124522  z =  3.327324 angstrom
           Maximum rank =  0   Radius =  0.325 angstrom
                   Q00  =   0.075172

H          x = -3.767641  y = -2.367142  z =  2.045204 angstrom
           Maximum rank =  0   Radius =  0.325 angstrom
                   Q00  =   0.079371

H          x = -4.592511  y = -0.765702  z =  1.880834 angstrom
           Maximum rank =  0   Radius =  0.325 angstrom
                   Q00  =   0.075873

C          x = -1.348591  y =  1.541478  z = -2.020676 angstrom
           Maximum rank =  0   Radius =  0.650 angstrom
                   Q00  =  -0.189212

C          x =  0.276409  y =  1.466478  z = -0.086676 angstrom
           Maximum rank =  0   Radius =  0.650 angstrom
                   Q00  =  -0.023171

C          x = -0.221591  y =  0.887478  z = -1.256676 angstrom
           Maximum rank =  0   Radius =  0.650 angstrom
                   Q00  =  -0.139349

C          x =  1.326409  y =  0.867478  z =  0.616324 angstrom
           Maximum rank =  0   Radius =  0.650 angstrom
                   Q00  =  -0.199001

C          x =  1.887409  y = -0.321522  z =  0.145324 angstrom
           Maximum rank =  0   Radius =  0.650 angstrom
                   Q00  =   0.324540

C          x =  0.346409  y = -0.304522  z = -1.713676 angstrom
           Maximum rank =  0   Radius =  0.650 angstrom
                   Q00  =   0.028986

C          x =  1.397409  y = -0.908522  z = -1.020676 angstrom
           Maximum rank =  0   Radius =  0.650 angstrom
                   Q00  =  -0.112855

O          x =  2.916409  y = -0.911522  z =  0.821324 angstrom
           Maximum rank =  0   Radius =  0.650 angstrom
                   Q00  =  -0.673745

H          x = -0.156591  y =  2.387478  z =  0.281324 angstrom
           Maximum rank =  0   Radius =  0.325 angstrom
                   Q00  =   0.068601

H          x =  1.699409  y =  1.321478  z =  1.523324 angstrom
           Maximum rank =  0   Radius =  0.325 angstrom
                   Q00  =   0.072228

H          x = -2.042591  y =  1.981478  z = -1.304676 angstrom
           Maximum rank =  0   Radius =  0.325 angstrom
                   Q00  =   0.093812

H          x = -1.892591  y =  0.755478  z = -2.521676 angstrom
           Maximum rank =  0   Radius =  0.325 angstrom
                   Q00  =   0.097032

H          x = -0.036591  y = -0.773522  z = -2.610676 angstrom
           Maximum rank =  0   Radius =  0.325 angstrom
                   Q00  =   0.064222

H          x =  3.125409  y = -0.432522  z =  1.630324 angstrom
           Maximum rank =  0   Radius =  0.325 angstrom
                   Q00  =   0.405666

H          x =  1.833409  y = -1.829522  z = -1.380676 angstrom
           Maximum rank =  0   Radius =  0.325 angstrom
                   Q00  =   0.081288

H          x = -1.025181  y =  2.320248  z = -2.727016 angstrom
           Maximum rank =  0   Radius =  0.325 angstrom
                   Q00  =   0.101785

Total multipoles referred to origin at
           x =   0.000000,  y =    0.000000,  z =    0.000000 angstrom
                   Q00  =  -0.000000

Finished at 9:17:9 on 27 Apr 2020

  DMA results are available in the Python driver through the
	  variable('DMA DISTRIBUTED MULTIPOLES')
  and
	  variable('DMA TOTAL MULTIPOLES')
  commands.

    Psi4 stopped on: Monday, 27 April 2020 09:17AM
    Psi4 wall time for execution: 0:05:33.79

*** Psi4 exiting successfully. Buy a developer a beer!
