                               Psi4 1.3.2 release

  ==> Input File <==

--------------------------------------------------------------------------
import numpy as np
set {scf_type pk
basis cc-pvdz
d_convergence 10
gdma_switch   0
gdma_limit    0
gdma_origin   [ 0.0,  0.0,  0.0 ]
}
molecule test {
    units Angstrom
    0 1
    --
    0 1
    C                0.288746661881384     0.549239858982519    -1.146065550765760
    C                1.796746661881384     0.612239858982519    -1.364065550765760
    C               -0.394253338118616     1.877239858982520    -1.424065550765760
    H               -0.148253338118616    -0.227760141017480    -1.773065550765760
    H                0.121746661881384     0.284239858982520    -0.104065550765760
    H                2.210746661881384    -0.369760141017480    -1.124065550765760
    H                2.212746661881383     1.325239858982520    -0.649065550765760
    H                0.141746661881384     2.676239858982519    -0.906065550765760
    H               -0.387253338118616     2.077239858982519    -2.497065550765760
    H                2.119019661881383     0.890729858982519    -2.378256550765760
    H               -1.431827338118616     1.845469858982520    -1.060156550765760
    C               -0.639253338118616    -1.991760141017480     1.369934449234240
    C               -1.039253338118616    -1.011760141017480     2.480934449234240
    H               -0.848253338118616    -3.020760141017480     1.664934449234240
    H               -1.194253338118616    -1.759760141017480     0.464934449234240
    H                0.424746661881384    -1.894760141017480     1.146934449234240
    H               -1.008253338118616    -0.004760141017480     2.060934449234240
    H               -0.304219938118616    -1.045950141017481     3.298587849234240
    H               -2.060052338118616    -1.194760141017480     2.847650049234240

}
e, wfn = energy('scf', return_wfn=True)
gdma(wfn)
dmavals = variable('DMA DISTRIBUTED MULTIPOLES')
charges = np.array(dmavals)
print(charges)
np.save('SSI-048LYS-082ILE-1-dimer.npy', np.array(charges))--------------------------------------------------------------------------

*** tstart() called on ds3
*** at Sun Apr 26 22:32:26 2020

   => Loading Basis Set <=

    Name: CC-PVDZ
    Role: ORBITAL
    Keyword: BASIS
    atoms 1-3, 12-13  entry C          line   138 file /theoryfs2/ds/metcalf/miniconda2/envs/tf2gpu/share/psi4/basis/cc-pvdz.gbs
    atoms 4-11, 14-19 entry H          line    22 file /theoryfs2/ds/metcalf/miniconda2/envs/tf2gpu/share/psi4/basis/cc-pvdz.gbs

         ---------------------------------------------------------
                                   SCF
               by Justin Turney, Rob Parrish, Andy Simmonett
                          and Daniel G. A. Smith
                              RHF Reference
                        1 Threads,    500 MiB Core
         ---------------------------------------------------------

  ==> Geometry <==

    Molecular point group: c1
    Full point group: C1

    Geometry (in Angstrom), charge = 0, multiplicity = 1:

       Center              X                  Y                   Z               Mass
    ------------   -----------------  -----------------  -----------------  -----------------
         C            0.288746661881     0.549239858983    -1.146065550766    12.000000000000
         C            1.796746661881     0.612239858983    -1.364065550766    12.000000000000
         C           -0.394253338119     1.877239858983    -1.424065550766    12.000000000000
         H           -0.148253338119    -0.227760141017    -1.773065550766     1.007825032230
         H            0.121746661881     0.284239858983    -0.104065550766     1.007825032230
         H            2.210746661881    -0.369760141017    -1.124065550766     1.007825032230
         H            2.212746661881     1.325239858983    -0.649065550766     1.007825032230
         H            0.141746661881     2.676239858983    -0.906065550766     1.007825032230
         H           -0.387253338119     2.077239858983    -2.497065550766     1.007825032230
         H            2.119019661881     0.890729858983    -2.378256550766     1.007825032230
         H           -1.431827338119     1.845469858983    -1.060156550766     1.007825032230
         C           -0.639253338119    -1.991760141017     1.369934449234    12.000000000000
         C           -1.039253338119    -1.011760141017     2.480934449234    12.000000000000
         H           -0.848253338119    -3.020760141017     1.664934449234     1.007825032230
         H           -1.194253338119    -1.759760141017     0.464934449234     1.007825032230
         H            0.424746661881    -1.894760141017     1.146934449234     1.007825032230
         H           -1.008253338119    -0.004760141017     2.060934449234     1.007825032230
         H           -0.304219938119    -1.045950141017     3.298587849234     1.007825032230
         H           -2.060052338119    -1.194760141017     2.847650049234     1.007825032230

  Running in c1 symmetry.

  Rotational constants: A =      0.19768  B =      0.04540  C =      0.04060 [cm^-1]
  Rotational constants: A =   5926.14912  B =   1361.13571  C =   1217.30726 [MHz]
  Nuclear repulsion =  180.290536969243988

  Charge       = 0
  Multiplicity = 1
  Electrons    = 44
  Nalpha       = 22
  Nbeta        = 22

  ==> Algorithm <==

  SCF Algorithm Type is PK.
  DIIS enabled.
  MOM disabled.
  Fractional occupation disabled.
  Guess Type is SAD.
  Energy threshold   = 1.00e-06
  Density threshold  = 1.00e-10
  Integral threshold = 0.00e+00

  ==> Primary Basis <==

  Basis Set: CC-PVDZ
    Blend: CC-PVDZ
    Number of shells: 72
    Number of basis function: 140
    Number of Cartesian functions: 145
    Spherical Harmonics?: true
    Max angular momentum: 2

  ==> Pre-Iterations <==

   -------------------------------------------------------
    Irrep   Nso     Nmo     Nalpha   Nbeta   Ndocc  Nsocc
   -------------------------------------------------------
     A        140     140       0       0       0       0
   -------------------------------------------------------
    Total     140     140      22      22      22       0
   -------------------------------------------------------

  ==> Integral Setup <==

  Using integral reordering PK algorithm.
  Sizing the integral batches needed.
  Building batch lookup table.
   Calculation information:
      Number of atoms:                  19
      Number of AO shells:              72
      Number of primitives:            180
      Number of atomic orbitals:       145
      Number of basis functions:       140

      Integral cutoff                 1.00e-12
      Number of threads:                 1

	Batch   1 pq = [       0,    9405] index = [             0,44231715] size =     44231715
	Batch   2 pq = [    9405,    9870] index = [      44231715,48713385] size =      4481670
  Task number: 5
  Buffer size: 11059200
  Buffer per thread: 2
  We computed 2986565 shell quartets total.
  Whereas there are 3454506 unique shell quartets.

  ==> DiskJK: Disk-Based J/K Matrices <==

    J tasked:                  Yes
    K tasked:                  Yes
    wK tasked:                  No
    Memory [MiB]:              375
    Schwarz Cutoff:          1E-12

    OpenMP threads:              1

  Minimum eigenvalue in the overlap matrix is 5.2048231280E-03.
  Using Symmetric Orthogonalization.

  SCF Guess: Superposition of Atomic Densities via on-the-fly atomic UHF.

  ==> Iterations <==

                        Total Energy        Delta E     RMS |[F,P]|

   @RHF iter SAD:  -196.38460448429242   -1.96385e+02   0.00000e+00
   @RHF iter   1:  -197.31024042416885   -9.25636e-01   3.80924e-03 DIIS
   @RHF iter   2:  -197.47074154817730   -1.60501e-01   1.64563e-03 DIIS
   @RHF iter   3:  -197.49932090233750   -2.85794e-02   3.26581e-04 DIIS
   @RHF iter   4:  -197.50155649957031   -2.23560e-03   4.83582e-05 DIIS
   @RHF iter   5:  -197.50159499502092   -3.84955e-05   1.48603e-05 DIIS
   @RHF iter   6:  -197.50159832222141   -3.32720e-06   2.38983e-06 DIIS
   @RHF iter   7:  -197.50159842448454   -1.02263e-07   4.30531e-07 DIIS
   @RHF iter   8:  -197.50159842811405   -3.62951e-09   1.07111e-07 DIIS
   @RHF iter   9:  -197.50159842832269   -2.08644e-10   3.23365e-08 DIIS
   @RHF iter  10:  -197.50159842834495   -2.22542e-11   7.35971e-09 DIIS
   @RHF iter  11:  -197.50159842834736   -2.41585e-12   1.46766e-09 DIIS
   @RHF iter  12:  -197.50159842834708    2.84217e-13   2.75249e-10 DIIS
   @RHF iter  13:  -197.50159842834643    6.53699e-13   4.20971e-11 DIIS
  Energy and wave function converged.

  ==> Post-Iterations <==

    Orbital Energies [Eh]
    ---------------------

    Doubly Occupied:

       1A    -11.220812     2A    -11.217926     3A    -11.217430
       4A    -11.216012     5A    -11.215276     6A     -1.056057
       7A     -1.017465     8A     -0.924497     9A     -0.838418
      10A     -0.795960    11A     -0.628971    12A     -0.601006
      13A     -0.598524    14A     -0.590115    15A     -0.551202
      16A     -0.531382    17A     -0.501073    18A     -0.488433
      19A     -0.485152    20A     -0.471096    21A     -0.469004
      22A     -0.465966

    Virtual:

      23A      0.166349    24A      0.200515    25A      0.206240
      26A      0.217472    27A      0.240937    28A      0.249194
      29A      0.258209    30A      0.267408    31A      0.276421
      32A      0.280496    33A      0.297468    34A      0.306707
      35A      0.322491    36A      0.364083    37A      0.375116
      38A      0.396213    39A      0.428363    40A      0.579465
      41A      0.588395    42A      0.593117    43A      0.607765
      44A      0.610920    45A      0.619683    46A      0.628245
      47A      0.655432    48A      0.694695    49A      0.786027
      50A      0.789287    51A      0.813727    52A      0.841228
      53A      0.861236    54A      0.875400    55A      0.887342
      56A      0.889183    57A      0.891218    58A      0.893564
      59A      0.902079    60A      0.906639    61A      0.910063
      62A      0.915088    63A      0.937244    64A      0.947745
      65A      0.967163    66A      0.970627    67A      0.991138
      68A      1.053484    69A      1.118808    70A      1.123766
      71A      1.132788    72A      1.146116    73A      1.235258
      74A      1.251821    75A      1.390183    76A      1.454822
      77A      1.468218    78A      1.477639    79A      1.488092
      80A      1.527851    81A      1.587292    82A      1.643286
      83A      1.677456    84A      1.686687    85A      1.693710
      86A      1.699443    87A      1.714807    88A      1.853543
      89A      1.862434    90A      1.870111    91A      1.876609
      92A      1.889208    93A      1.899885    94A      1.903101
      95A      1.920640    96A      1.930194    97A      1.934620
      98A      1.940536    99A      1.954994   100A      1.962322
     101A      1.975803   102A      1.981651   103A      1.991962
     104A      1.996233   105A      2.024394   106A      2.025990
     107A      2.070199   108A      2.127519   109A      2.133323
     110A      2.144285   111A      2.158163   112A      2.292721
     113A      2.298760   114A      2.303290   115A      2.321686
     116A      2.329545   117A      2.355603   118A      2.436716
     119A      2.452586   120A      2.499200   121A      2.541786
     122A      2.564865   123A      2.578109   124A      2.587384
     125A      2.608841   126A      2.631183   127A      2.749385
     128A      2.763234   129A      2.769862   130A      2.789309
     131A      2.792834   132A      2.823806   133A      2.840692
     134A      2.862055   135A      2.910220   136A      2.946749
     137A      2.949559   138A      2.987458   139A      3.002598
     140A      3.087290

    Final Occupation by Irrep:
              A
    DOCC [    22 ]

  @RHF Final Energy:  -197.50159842834643

   => Energetics <=

    Nuclear Repulsion Energy =            180.2905369692439876
    One-Electron Energy =                -621.3807214337862206
    Two-Electron Energy =                 243.5885860361958066
    Total Energy =                       -197.5015984283464263

Computation Completed

Properties will be evaluated at   0.000000,   0.000000,   0.000000 [a0]

Properties computed using the SCF density matrix

  Nuclear Dipole Moment: [e a0]
     X:    -0.1421      Y:    -0.3929      Z:     0.9301

  Electronic Dipole Moment: [e a0]
     X:     0.1313      Y:     0.3590      Z:    -0.9189

  Dipole Moment: [e a0]
     X:    -0.0108      Y:    -0.0339      Z:     0.0112     Total:     0.0373

  Dipole Moment: [D]
     X:    -0.0276      Y:    -0.0861      Z:     0.0284     Total:     0.0948

*** tstop() called on ds3 at Sun Apr 26 22:33:01 2020
Module time:
	user time   =      16.05 seconds =       0.27 minutes
	system time =       6.07 seconds =       0.10 minutes
	total time  =         35 seconds =       0.58 minutes
Total time:
	user time   =      16.05 seconds =       0.27 minutes
	system time =       6.07 seconds =       0.10 minutes
	total time  =         35 seconds =       0.58 minutes
                                     G D M A

                                 by Anthony Stone

                           version 2.2.06, 22 June 2011

               Distributed Multipoles from Gaussian wavefunctions

Starting at 22:33:1 on 26 Apr 2020

Using SCF density matrix from file ./SSI/SSI-048LYS-082ILE-1-dimer.test.12590.fchk

                         Distributed Multipole Analysis

Standard DMA

Positions and radii in angstrom
Multipole moments in atomic units, ea_0^k for rank k

C          x =  0.288747  y =  0.549240  z = -1.146066 angstrom
           Maximum rank =  0   Radius =  0.650 angstrom
                   Q00  =  -0.086630

C          x =  1.796747  y =  0.612240  z = -1.364066 angstrom
           Maximum rank =  0   Radius =  0.650 angstrom
                   Q00  =  -0.242896

C          x = -0.394253  y =  1.877240  z = -1.424066 angstrom
           Maximum rank =  0   Radius =  0.650 angstrom
                   Q00  =  -0.232808

H          x = -0.148253  y = -0.227760  z = -1.773066 angstrom
           Maximum rank =  0   Radius =  0.325 angstrom
                   Q00  =   0.047579

H          x =  0.121747  y =  0.284240  z = -0.104066 angstrom
           Maximum rank =  0   Radius =  0.325 angstrom
                   Q00  =   0.045086

H          x =  2.210747  y = -0.369760  z = -1.124066 angstrom
           Maximum rank =  0   Radius =  0.325 angstrom
                   Q00  =   0.079978

H          x =  2.212747  y =  1.325240  z = -0.649066 angstrom
           Maximum rank =  0   Radius =  0.325 angstrom
                   Q00  =   0.073969

H          x =  0.141747  y =  2.676240  z = -0.906066 angstrom
           Maximum rank =  0   Radius =  0.325 angstrom
                   Q00  =   0.073770

H          x = -0.387253  y =  2.077240  z = -2.497066 angstrom
           Maximum rank =  0   Radius =  0.325 angstrom
                   Q00  =   0.078814

H          x =  2.119020  y =  0.890730  z = -2.378257 angstrom
           Maximum rank =  0   Radius =  0.325 angstrom
                   Q00  =   0.080616

H          x = -1.431827  y =  1.845470  z = -1.060157 angstrom
           Maximum rank =  0   Radius =  0.325 angstrom
                   Q00  =   0.079771

C          x = -0.639253  y = -1.991760  z =  1.369934 angstrom
           Maximum rank =  0   Radius =  0.650 angstrom
                   Q00  =  -0.234513

C          x = -1.039253  y = -1.011760  z =  2.480934 angstrom
           Maximum rank =  0   Radius =  0.650 angstrom
                   Q00  =  -0.240519

H          x = -0.848253  y = -3.020760  z =  1.664934 angstrom
           Maximum rank =  0   Radius =  0.325 angstrom
                   Q00  =   0.080865

H          x = -1.194253  y = -1.759760  z =  0.464934 angstrom
           Maximum rank =  0   Radius =  0.325 angstrom
                   Q00  =   0.079942

H          x =  0.424747  y = -1.894760  z =  1.146934 angstrom
           Maximum rank =  0   Radius =  0.325 angstrom
                   Q00  =   0.079606

H          x = -1.008253  y = -0.004760  z =  2.060934 angstrom
           Maximum rank =  0   Radius =  0.325 angstrom
                   Q00  =   0.074248

H          x = -0.304220  y = -1.045950  z =  3.298588 angstrom
           Maximum rank =  0   Radius =  0.325 angstrom
                   Q00  =   0.079869

H          x = -2.060052  y = -1.194760  z =  2.847650 angstrom
           Maximum rank =  0   Radius =  0.325 angstrom
                   Q00  =   0.083254

Total multipoles referred to origin at
           x =   0.000000,  y =    0.000000,  z =    0.000000 angstrom
                   Q00  =  -0.000000

Finished at 22:33:1 on 26 Apr 2020

  DMA results are available in the Python driver through the
	  variable('DMA DISTRIBUTED MULTIPOLES')
  and
	  variable('DMA TOTAL MULTIPOLES')
  commands.

    Psi4 stopped on: Sunday, 26 April 2020 10:33PM
    Psi4 wall time for execution: 0:00:35.32

*** Psi4 exiting successfully. Buy a developer a beer!
