                               Psi4 1.3.2 release

  ==> Input File <==

--------------------------------------------------------------------------
import numpy as np
set {scf_type pk
basis cc-pvdz
d_convergence 10
gdma_switch   0
gdma_limit    0
gdma_origin   [ 0.0,  0.0,  0.0 ]
}
molecule test {
    units Angstrom
    0 1
    --
    0 1
    C               -0.075115860672314    -1.300796688127631    -2.844369495347546
    C                0.221884139327686    -2.761796688127631    -2.499369495347547
    H               -0.611115860672314    -1.231796688127631    -3.792369495347546
    H               -0.687115860672314    -0.850796688127631    -2.064369495347546
    H                0.837884139327686    -0.709796688127631    -2.894369495347546
    H                0.805884139327686    -2.776796688127631    -1.577369495347546
    H                0.819660139327686    -3.235722688127631    -3.291869495347547
    H               -0.706842860672314    -3.328198688127632    -2.336109495347547
    C               -1.585115860672314     2.515203311872368     1.156630504652454
    C                1.159884139327686    -0.727796688127631     0.652630504652454
    C                1.362884139327686     0.450203311872369    -0.020369495347546
    C                0.086884139327686    -0.872796688127631     1.493630504652454
    C                0.462884139327686     1.501203311872369     0.150630504652454
    C               -0.827115860672314     0.170203311872369     1.652630504652454
    C               -0.632115860672314     1.364203311872369     0.986630504652454
    H                1.861884139327686    -1.533796688127631     0.513630504652454
    H                2.208884139327686     0.551203311872369    -0.683369495347546
    H               -0.061115860672314    -1.804796688127631     2.022630504652454
    H                0.630884139327686     2.432203311872369    -0.373369495347546
    H               -1.677115860672314     0.055203311872369     2.308630504652454
    H               -2.599115860672314     2.132203311872368     1.155630504652454
    H               -1.492115860672314     3.156203311872368     0.278630504652454
    H               -1.413728860672314     3.122203311872368     2.057840504652454

}
e, wfn = energy('scf', return_wfn=True)
gdma(wfn)
dmavals = variable('DMA DISTRIBUTED MULTIPOLES')
charges = np.array(dmavals)
print(charges)
np.save('SSI-072ILE-116PHE-2-dimer.npy', np.array(charges))--------------------------------------------------------------------------

*** tstart() called on ds3
*** at Mon Apr 27 23:07:38 2020

   => Loading Basis Set <=

    Name: CC-PVDZ
    Role: ORBITAL
    Keyword: BASIS
    atoms 1-2, 9-15  entry C          line   138 file /theoryfs2/ds/metcalf/miniconda2/envs/tf2gpu/share/psi4/basis/cc-pvdz.gbs
    atoms 3-8, 16-23 entry H          line    22 file /theoryfs2/ds/metcalf/miniconda2/envs/tf2gpu/share/psi4/basis/cc-pvdz.gbs

         ---------------------------------------------------------
                                   SCF
               by Justin Turney, Rob Parrish, Andy Simmonett
                          and Daniel G. A. Smith
                              RHF Reference
                        1 Threads,    500 MiB Core
         ---------------------------------------------------------

  ==> Geometry <==

    Molecular point group: c1
    Full point group: C1

    Geometry (in Angstrom), charge = 0, multiplicity = 1:

       Center              X                  Y                   Z               Mass
    ------------   -----------------  -----------------  -----------------  -----------------
         C           -0.075115860672    -1.300796688128    -2.844369495348    12.000000000000
         C            0.221884139328    -2.761796688128    -2.499369495348    12.000000000000
         H           -0.611115860672    -1.231796688128    -3.792369495348     1.007825032230
         H           -0.687115860672    -0.850796688128    -2.064369495348     1.007825032230
         H            0.837884139328    -0.709796688128    -2.894369495348     1.007825032230
         H            0.805884139328    -2.776796688128    -1.577369495348     1.007825032230
         H            0.819660139328    -3.235722688128    -3.291869495348     1.007825032230
         H           -0.706842860672    -3.328198688128    -2.336109495348     1.007825032230
         C           -1.585115860672     2.515203311872     1.156630504652    12.000000000000
         C            1.159884139328    -0.727796688128     0.652630504652    12.000000000000
         C            1.362884139328     0.450203311872    -0.020369495348    12.000000000000
         C            0.086884139328    -0.872796688128     1.493630504652    12.000000000000
         C            0.462884139328     1.501203311872     0.150630504652    12.000000000000
         C           -0.827115860672     0.170203311872     1.652630504652    12.000000000000
         C           -0.632115860672     1.364203311872     0.986630504652    12.000000000000
         H            1.861884139328    -1.533796688128     0.513630504652     1.007825032230
         H            2.208884139328     0.551203311872    -0.683369495348     1.007825032230
         H           -0.061115860672    -1.804796688128     2.022630504652     1.007825032230
         H            0.630884139328     2.432203311872    -0.373369495348     1.007825032230
         H           -1.677115860672     0.055203311872     2.308630504652     1.007825032230
         H           -2.599115860672     2.132203311872     1.155630504652     1.007825032230
         H           -1.492115860672     3.156203311872     0.278630504652     1.007825032230
         H           -1.413728860672     3.122203311872     2.057840504652     1.007825032230

  Running in c1 symmetry.

  Rotational constants: A =      0.07714  B =      0.02689  C =      0.02484 [cm^-1]
  Rotational constants: A =   2312.50236  B =    806.19686  C =    744.77286 [MHz]
  Nuclear repulsion =  415.709500857303738

  Charge       = 0
  Multiplicity = 1
  Electrons    = 68
  Nalpha       = 34
  Nbeta        = 34

  ==> Algorithm <==

  SCF Algorithm Type is PK.
  DIIS enabled.
  MOM disabled.
  Fractional occupation disabled.
  Guess Type is SAD.
  Energy threshold   = 1.00e-06
  Density threshold  = 1.00e-10
  Integral threshold = 0.00e+00

  ==> Primary Basis <==

  Basis Set: CC-PVDZ
    Blend: CC-PVDZ
    Number of shells: 96
    Number of basis function: 196
    Number of Cartesian functions: 205
    Spherical Harmonics?: true
    Max angular momentum: 2

  ==> Pre-Iterations <==

   -------------------------------------------------------
    Irrep   Nso     Nmo     Nalpha   Nbeta   Ndocc  Nsocc
   -------------------------------------------------------
     A        196     196       0       0       0       0
   -------------------------------------------------------
    Total     196     196      34      34      34       0
   -------------------------------------------------------

  ==> Integral Setup <==

  Using integral reordering PK algorithm.
  Sizing the integral batches needed.
  Building batch lookup table.
   Calculation information:
      Number of atoms:                  23
      Number of AO shells:              96
      Number of primitives:            268
      Number of atomic orbitals:       205
      Number of basis functions:       196

      Integral cutoff                 1.00e-12
      Number of threads:                 1

	Batch   1 pq = [       0,    9405] index = [             0,44231715] size =     44231715
	Batch   2 pq = [    9405,   13301] index = [      44231715,88464951] size =     44233236
	Batch   3 pq = [   13301,   16290] index = [      88464951,132690195] size =     44225244
	Batch   4 pq = [   16290,   18810] index = [     132690195,176917455] size =     44227260
	Batch   5 pq = [   18810,   19306] index = [     176917455,186370471] size =      9453016
  Task number: 17
  Buffer size: 11059200
  Buffer per thread: 2
  We computed 10024267 shell quartets total.
  Whereas there are 10841496 unique shell quartets.

  ==> DiskJK: Disk-Based J/K Matrices <==

    J tasked:                  Yes
    K tasked:                  Yes
    wK tasked:                  No
    Memory [MiB]:              375
    Schwarz Cutoff:          1E-12

    OpenMP threads:              1

  Minimum eigenvalue in the overlap matrix is 2.9413148388E-04.
  Using Symmetric Orthogonalization.

  SCF Guess: Superposition of Atomic Densities via on-the-fly atomic UHF.

  ==> Iterations <==

                        Total Energy        Delta E     RMS |[F,P]|

   @RHF iter SAD:  -347.97965320270441   -3.47980e+02   0.00000e+00
   @RHF iter   1:  -348.76300621388532   -7.83353e-01   2.92736e-03 DIIS
   @RHF iter   2:  -348.95774657016977   -1.94740e-01   1.23182e-03 DIIS
   @RHF iter   3:  -348.98928072321354   -3.15342e-02   2.60463e-04 DIIS
   @RHF iter   4:  -348.99177726693705   -2.49654e-03   5.08299e-05 DIIS
   @RHF iter   5:  -348.99184753823732   -7.02713e-05   1.52589e-05 DIIS
   @RHF iter   6:  -348.99185354679940   -6.00856e-06   3.97978e-06 DIIS
   @RHF iter   7:  -348.99185398228167   -4.35482e-07   1.31232e-06 DIIS
   @RHF iter   8:  -348.99185402754665   -4.52650e-08   2.54156e-07 DIIS
   @RHF iter   9:  -348.99185403047943   -2.93278e-09   9.73105e-08 DIIS
   @RHF iter  10:  -348.99185403085954   -3.80112e-10   3.51729e-08 DIIS
   @RHF iter  11:  -348.99185403095055   -9.10063e-11   1.30212e-08 DIIS
   @RHF iter  12:  -348.99185403096601   -1.54614e-11   7.02557e-09 DIIS
   @RHF iter  13:  -348.99185403097124   -5.22959e-12   3.05686e-09 DIIS
   @RHF iter  14:  -348.99185403097323   -1.98952e-12   8.67091e-10 DIIS
   @RHF iter  15:  -348.99185403097295    2.84217e-13   3.37380e-10 DIIS
   @RHF iter  16:  -348.99185403097300   -5.68434e-14   7.20206e-11 DIIS
  Energy and wave function converged.

  ==> Post-Iterations <==

    Orbital Energies [Eh]
    ---------------------

    Doubly Occupied:

       1A    -11.237797     2A    -11.233983     3A    -11.232750
       4A    -11.229867     5A    -11.229089     6A    -11.228258
       7A    -11.226201     8A    -11.213695     9A    -11.208245
      10A     -1.159246    11A     -1.050092    12A     -1.012569
      13A     -1.009655    14A     -0.933740    15A     -0.831311
      16A     -0.829508    17A     -0.794980    18A     -0.694634
      19A     -0.634883    20A     -0.629551    21A     -0.592123
      22A     -0.587860    23A     -0.582552    24A     -0.579210
      25A     -0.564569    26A     -0.534154    27A     -0.497637
      28A     -0.489720    29A     -0.487390    30A     -0.481871
      31A     -0.477119    32A     -0.475724    33A     -0.331662
      34A     -0.327355

    Virtual:

      35A      0.134255    36A      0.143774    37A      0.173615
      38A      0.194966    39A      0.211003    40A      0.213161
      41A      0.235429    42A      0.244443    43A      0.257054
      44A      0.260700    45A      0.268241    46A      0.278706
      47A      0.285845    48A      0.290782    49A      0.311007
      50A      0.331169    51A      0.372658    52A      0.377594
      53A      0.409018    54A      0.454148    55A      0.465247
      56A      0.478605    57A      0.494400    58A      0.563933
      59A      0.576385    60A      0.598276    61A      0.604552
      62A      0.610181    63A      0.638505    64A      0.653145
      65A      0.679929    66A      0.688753    67A      0.696461
      68A      0.706889    69A      0.735864    70A      0.741932
      71A      0.744514    72A      0.757135    73A      0.761396
      74A      0.775633    75A      0.798479    76A      0.827689
      77A      0.852793    78A      0.857818    79A      0.858729
      80A      0.865119    81A      0.870682    82A      0.879808
      83A      0.895941    84A      0.899845    85A      0.902119
      86A      0.910307    87A      0.919538    88A      0.926777
      89A      0.939428    90A      0.941331    91A      0.961044
      92A      0.980274    93A      0.998585    94A      1.004617
      95A      1.027392    96A      1.062862    97A      1.121431
      98A      1.133017    99A      1.139783   100A      1.141198
     101A      1.159057   102A      1.163610   103A      1.192270
     104A      1.242809   105A      1.245326   106A      1.248273
     107A      1.255070   108A      1.272185   109A      1.307068
     110A      1.317847   111A      1.332555   112A      1.332757
     113A      1.411984   114A      1.474179   115A      1.489600
     116A      1.506479   117A      1.522661   118A      1.553578
     119A      1.585227   120A      1.606625   121A      1.676260
     122A      1.688539   123A      1.701390   124A      1.707151
     125A      1.734872   126A      1.760658   127A      1.776084
     128A      1.801413   129A      1.822893   130A      1.860279
     131A      1.874846   132A      1.885865   133A      1.888640
     134A      1.904924   135A      1.906480   136A      1.919316
     137A      1.921854   138A      1.931126   139A      1.944682
     140A      1.951331   141A      1.955757   142A      1.958747
     143A      1.964666   144A      1.965860   145A      1.981233
     146A      1.993128   147A      2.005191   148A      2.009606
     149A      2.046288   150A      2.069615   151A      2.076244
     152A      2.109681   153A      2.117352   154A      2.126078
     155A      2.143019   156A      2.166966   157A      2.177987
     158A      2.191309   159A      2.195987   160A      2.255513
     161A      2.281255   162A      2.301399   163A      2.304692
     164A      2.310277   165A      2.321099   166A      2.336298
     167A      2.345120   168A      2.460225   169A      2.469344
     170A      2.473676   171A      2.479060   172A      2.513810
     173A      2.550326   174A      2.563062   175A      2.580922
     176A      2.628405   177A      2.742833   178A      2.769323
     179A      2.773710   180A      2.774091   181A      2.798841
     182A      2.803794   183A      2.814265   184A      2.856994
     185A      2.866321   186A      2.875707   187A      2.889544
     188A      2.959839   189A      2.969749   190A      2.996727
     191A      3.028041   192A      3.045343   193A      3.168200
     194A      3.219882   195A      3.317827   196A      4.003914

    Final Occupation by Irrep:
              A
    DOCC [    34 ]

  @RHF Final Energy:  -348.99185403097300

   => Energetics <=

    Nuclear Repulsion Energy =            415.7095008573037376
    One-Electron Energy =               -1294.1447092475950740
    Two-Electron Energy =                 529.4433543593183913
    Total Energy =                       -348.9918540309729451

Computation Completed

Properties will be evaluated at   0.000000,   0.000000,   0.000000 [a0]

Properties computed using the SCF density matrix

  Nuclear Dipole Moment: [e a0]
     X:    -1.9529      Y:    -3.7710      Z:    -8.1337

  Electronic Dipole Moment: [e a0]
     X:     1.8690      Y:     3.9169      Z:     8.2199

  Dipole Moment: [e a0]
     X:    -0.0839      Y:     0.1459      Z:     0.0862     Total:     0.1891

  Dipole Moment: [D]
     X:    -0.2133      Y:     0.3710      Z:     0.2190     Total:     0.4807

*** tstop() called on ds3 at Mon Apr 27 23:09:32 2020
Module time:
	user time   =      84.50 seconds =       1.41 minutes
	system time =      34.09 seconds =       0.57 minutes
	total time  =        114 seconds =       1.90 minutes
Total time:
	user time   =      84.50 seconds =       1.41 minutes
	system time =      34.09 seconds =       0.57 minutes
	total time  =        114 seconds =       1.90 minutes
                                     G D M A

                                 by Anthony Stone

                           version 2.2.06, 22 June 2011

               Distributed Multipoles from Gaussian wavefunctions

Starting at 23:9:32 on 27 Apr 2020

Using SCF density matrix from file ./SSI/SSI-072ILE-116PHE-2-dimer.test.1213.fchk

                         Distributed Multipole Analysis

Standard DMA

Positions and radii in angstrom
Multipole moments in atomic units, ea_0^k for rank k

C          x = -0.075116  y = -1.300797  z = -2.844369 angstrom
           Maximum rank =  0   Radius =  0.650 angstrom
                   Q00  =  -0.240006

C          x =  0.221884  y = -2.761797  z = -2.499369 angstrom
           Maximum rank =  0   Radius =  0.650 angstrom
                   Q00  =  -0.228846

H          x = -0.611116  y = -1.231797  z = -3.792369 angstrom
           Maximum rank =  0   Radius =  0.325 angstrom
                   Q00  =   0.073270

H          x = -0.687116  y = -0.850797  z = -2.064369 angstrom
           Maximum rank =  0   Radius =  0.325 angstrom
                   Q00  =   0.088387

H          x =  0.837884  y = -0.709797  z = -2.894369 angstrom
           Maximum rank =  0   Radius =  0.325 angstrom
                   Q00  =   0.075761

H          x =  0.805884  y = -2.776797  z = -1.577369 angstrom
           Maximum rank =  0   Radius =  0.325 angstrom
                   Q00  =   0.077288

H          x =  0.819660  y = -3.235723  z = -3.291869 angstrom
           Maximum rank =  0   Radius =  0.325 angstrom
                   Q00  =   0.073934

H          x = -0.706843  y = -3.328199  z = -2.336109 angstrom
           Maximum rank =  0   Radius =  0.325 angstrom
                   Q00  =   0.079971

C          x = -1.585116  y =  2.515203  z =  1.156631 angstrom
           Maximum rank =  0   Radius =  0.650 angstrom
                   Q00  =  -0.204298

C          x =  1.159884  y = -0.727797  z =  0.652631 angstrom
           Maximum rank =  0   Radius =  0.650 angstrom
                   Q00  =  -0.084752

C          x =  1.362884  y =  0.450203  z = -0.020369 angstrom
           Maximum rank =  0   Radius =  0.650 angstrom
                   Q00  =  -0.067289

C          x =  0.086884  y = -0.872797  z =  1.493631 angstrom
           Maximum rank =  0   Radius =  0.650 angstrom
                   Q00  =  -0.029830

C          x =  0.462884  y =  1.501203  z =  0.150631 angstrom
           Maximum rank =  0   Radius =  0.650 angstrom
                   Q00  =  -0.031942

C          x = -0.827116  y =  0.170203  z =  1.652631 angstrom
           Maximum rank =  0   Radius =  0.650 angstrom
                   Q00  =  -0.084599

C          x = -0.632116  y =  1.364203  z =  0.986631 angstrom
           Maximum rank =  0   Radius =  0.650 angstrom
                   Q00  =  -0.094530

H          x =  1.861884  y = -1.533797  z =  0.513631 angstrom
           Maximum rank =  0   Radius =  0.325 angstrom
                   Q00  =   0.057281

H          x =  2.208884  y =  0.551203  z = -0.683369 angstrom
           Maximum rank =  0   Radius =  0.325 angstrom
                   Q00  =   0.064061

H          x = -0.061116  y = -1.804797  z =  2.022631 angstrom
           Maximum rank =  0   Radius =  0.325 angstrom
                   Q00  =   0.062882

H          x =  0.630884  y =  2.432203  z = -0.373369 angstrom
           Maximum rank =  0   Radius =  0.325 angstrom
                   Q00  =   0.056171

H          x = -1.677116  y =  0.055203  z =  2.308631 angstrom
           Maximum rank =  0   Radius =  0.325 angstrom
                   Q00  =   0.056400

H          x = -2.599116  y =  2.132203  z =  1.155631 angstrom
           Maximum rank =  0   Radius =  0.325 angstrom
                   Q00  =   0.099863

H          x = -1.492116  y =  3.156203  z =  0.278631 angstrom
           Maximum rank =  0   Radius =  0.325 angstrom
                   Q00  =   0.094877

H          x = -1.413729  y =  3.122203  z =  2.057841 angstrom
           Maximum rank =  0   Radius =  0.325 angstrom
                   Q00  =   0.105945

Total multipoles referred to origin at
           x =   0.000000,  y =    0.000000,  z =    0.000000 angstrom
                   Q00  =  -0.000000

Finished at 23:9:32 on 27 Apr 2020

  DMA results are available in the Python driver through the
	  variable('DMA DISTRIBUTED MULTIPOLES')
  and
	  variable('DMA TOTAL MULTIPOLES')
  commands.

    Psi4 stopped on: Monday, 27 April 2020 11:09PM
    Psi4 wall time for execution: 0:01:54.06

*** Psi4 exiting successfully. Buy a developer a beer!
