                               Psi4 1.3.2 release

  ==> Input File <==

--------------------------------------------------------------------------
import numpy as np
set {scf_type pk
basis cc-pvdz
d_convergence 10
gdma_switch   0
gdma_limit    0
gdma_origin   [ 0.0,  0.0,  0.0 ]
}
molecule test {
    units Angstrom
    0 1
    --
    0 1
    C               -1.824875345706801    -0.404467435843945    -0.351553621645413
    C               -2.710875345706801    -1.583467435843945     0.103446378354587
    H               -1.789875345706801     0.378532564156055     0.407446378354587
    H               -0.809875345706801    -0.770467435843945    -0.480553621645413
    H               -2.184875345706801     0.011532564156055    -1.295553621645413
    H               -2.332875345706801    -1.958467435843945     1.051446378354587
    H               -3.759582345706801    -1.273697435843945     0.222856378354587
    H               -2.680053345706801    -2.393657435843945    -0.639953621645413
    C                1.615124654293199     0.840532564156055    -0.238553621645413
    C                2.914124654293198     1.157532564156055     0.490446378354587
    H                0.812124654293199     1.504532564156055     0.084446378354587
    H                1.793124654293199     0.950532564156055    -1.303553621645413
    H                1.340124654293199    -0.195467435843945    -0.042553621645413
    H                3.713124654293198     0.626532564156055    -0.021553621645413
    H                2.841114654293199     0.764852564156055     1.515376378354587
    H                3.134934654293199     2.234622564156055     0.457076378354587

}
e, wfn = energy('scf', return_wfn=True)
gdma(wfn)
dmavals = variable('DMA DISTRIBUTED MULTIPOLES')
charges = np.array(dmavals)
print(charges)
np.save('SSI-038VAL-041VAL-1-dimer.npy', np.array(charges))--------------------------------------------------------------------------

*** tstart() called on ds3
*** at Mon Apr 27 07:33:54 2020

   => Loading Basis Set <=

    Name: CC-PVDZ
    Role: ORBITAL
    Keyword: BASIS
    atoms 1-2, 9-10  entry C          line   138 file /theoryfs2/ds/metcalf/miniconda2/envs/tf2gpu/share/psi4/basis/cc-pvdz.gbs
    atoms 3-8, 11-16 entry H          line    22 file /theoryfs2/ds/metcalf/miniconda2/envs/tf2gpu/share/psi4/basis/cc-pvdz.gbs

         ---------------------------------------------------------
                                   SCF
               by Justin Turney, Rob Parrish, Andy Simmonett
                          and Daniel G. A. Smith
                              RHF Reference
                        1 Threads,    500 MiB Core
         ---------------------------------------------------------

  ==> Geometry <==

    Molecular point group: c1
    Full point group: C1

    Geometry (in Angstrom), charge = 0, multiplicity = 1:

       Center              X                  Y                   Z               Mass
    ------------   -----------------  -----------------  -----------------  -----------------
         C           -1.824875345707    -0.404467435844    -0.351553621645    12.000000000000
         C           -2.710875345707    -1.583467435844     0.103446378355    12.000000000000
         H           -1.789875345707     0.378532564156     0.407446378355     1.007825032230
         H           -0.809875345707    -0.770467435844    -0.480553621645     1.007825032230
         H           -2.184875345707     0.011532564156    -1.295553621645     1.007825032230
         H           -2.332875345707    -1.958467435844     1.051446378355     1.007825032230
         H           -3.759582345707    -1.273697435844     0.222856378355     1.007825032230
         H           -2.680053345707    -2.393657435844    -0.639953621645     1.007825032230
         C            1.615124654293     0.840532564156    -0.238553621645    12.000000000000
         C            2.914124654293     1.157532564156     0.490446378355    12.000000000000
         H            0.812124654293     1.504532564156     0.084446378355     1.007825032230
         H            1.793124654293     0.950532564156    -1.303553621645     1.007825032230
         H            1.340124654293    -0.195467435844    -0.042553621645     1.007825032230
         H            3.713124654293     0.626532564156    -0.021553621645     1.007825032230
         H            2.841114654293     0.764852564156     1.515376378355     1.007825032230
         H            3.134934654293     2.234622564156     0.457076378355     1.007825032230

  Running in c1 symmetry.

  Rotational constants: A =      0.73769  B =      0.04112  C =      0.04028 [cm^-1]
  Rotational constants: A =  22115.45594  B =   1232.87314  C =   1207.52859 [MHz]
  Nuclear repulsion =  120.263067015670728

  Charge       = 0
  Multiplicity = 1
  Electrons    = 36
  Nalpha       = 18
  Nbeta        = 18

  ==> Algorithm <==

  SCF Algorithm Type is PK.
  DIIS enabled.
  MOM disabled.
  Fractional occupation disabled.
  Guess Type is SAD.
  Energy threshold   = 1.00e-06
  Density threshold  = 1.00e-10
  Integral threshold = 0.00e+00

  ==> Primary Basis <==

  Basis Set: CC-PVDZ
    Blend: CC-PVDZ
    Number of shells: 60
    Number of basis function: 116
    Number of Cartesian functions: 120
    Spherical Harmonics?: true
    Max angular momentum: 2

  ==> Pre-Iterations <==

   -------------------------------------------------------
    Irrep   Nso     Nmo     Nalpha   Nbeta   Ndocc  Nsocc
   -------------------------------------------------------
     A        116     116       0       0       0       0
   -------------------------------------------------------
    Total     116     116      18      18      18       0
   -------------------------------------------------------

  ==> Integral Setup <==

  Using integral reordering PK algorithm.
  Sizing the integral batches needed.
  Building batch lookup table.
   Calculation information:
      Number of atoms:                  16
      Number of AO shells:              60
      Number of primitives:            148
      Number of atomic orbitals:       120
      Number of basis functions:       116

      Integral cutoff                 1.00e-12
      Number of threads:                 1

	Batch   1 pq = [       0,    6786] index = [             0,23028291] size =     23028291
  Task number: 3
  Buffer size: 11059200
  Buffer per thread: 2
  We computed 1348493 shell quartets total.
  Whereas there are 1675365 unique shell quartets.

  ==> DiskJK: Disk-Based J/K Matrices <==

    J tasked:                  Yes
    K tasked:                  Yes
    wK tasked:                  No
    Memory [MiB]:              375
    Schwarz Cutoff:          1E-12

    OpenMP threads:              1

  Minimum eigenvalue in the overlap matrix is 6.1542997883E-03.
  Using Symmetric Orthogonalization.

  SCF Guess: Superposition of Atomic Densities via on-the-fly atomic UHF.

  ==> Iterations <==

                        Total Energy        Delta E     RMS |[F,P]|

   @RHF iter SAD:  -157.34573340686276   -1.57346e+02   0.00000e+00
   @RHF iter   1:  -158.30617062513159   -9.60437e-01   4.20344e-03 DIIS
   @RHF iter   2:  -158.43929665937998   -1.33126e-01   1.78228e-03 DIIS
   @RHF iter   3:  -158.46238408188520   -2.30874e-02   3.49635e-04 DIIS
   @RHF iter   4:  -158.46420802622404   -1.82394e-03   3.91632e-05 DIIS
   @RHF iter   5:  -158.46423200766822   -2.39814e-05   7.09300e-06 DIIS
   @RHF iter   6:  -158.46423272117090   -7.13503e-07   1.39846e-06 DIIS
   @RHF iter   7:  -158.46423273935511   -1.81842e-08   3.32192e-07 DIIS
   @RHF iter   8:  -158.46423274049883   -1.14372e-09   4.36650e-08 DIIS
   @RHF iter   9:  -158.46423274053237   -3.35376e-11   8.55185e-09 DIIS
   @RHF iter  10:  -158.46423274053416   -1.79057e-12   2.82919e-09 DIIS
   @RHF iter  11:  -158.46423274053384    3.12639e-13   7.04391e-10 DIIS
   @RHF iter  12:  -158.46423274053399   -1.42109e-13   1.20376e-10 DIIS
   @RHF iter  13:  -158.46423274053450   -5.11591e-13   2.80962e-11 DIIS
  Energy and wave function converged.

  ==> Post-Iterations <==

    Orbital Energies [Eh]
    ---------------------

    Doubly Occupied:

       1A    -11.219402     2A    -11.217741     3A    -11.216488
       4A    -11.214821     5A     -1.020914     6A     -1.013221
       7A     -0.839945     8A     -0.831959     9A     -0.603786
      10A     -0.600007    11A     -0.596713    12A     -0.591073
      13A     -0.505422    14A     -0.493701    15A     -0.488536
      16A     -0.487863    17A     -0.482313    18A     -0.478452

    Virtual:

      19A      0.176525    20A      0.194798    21A      0.222230
      22A      0.235279    23A      0.246811    24A      0.256156
      25A      0.265403    26A      0.276754    27A      0.281562
      28A      0.289240    29A      0.308603    30A      0.343320
      31A      0.388031    32A      0.416450    33A      0.572622
      34A      0.588432    35A      0.595813    36A      0.602358
      37A      0.607290    38A      0.649387    39A      0.660352
      40A      0.686480    41A      0.701208    42A      0.779014
      43A      0.826731    44A      0.883972    45A      0.889764
      46A      0.891490    47A      0.894453    48A      0.897670
      49A      0.904862    50A      0.908936    51A      0.916245
      52A      0.920100    53A      0.931631    54A      0.958637
      55A      0.965915    56A      0.991889    57A      1.118860
      58A      1.124358    59A      1.128338    60A      1.152828
      61A      1.216295    62A      1.263957    63A      1.467310
      64A      1.469326    65A      1.485000    66A      1.494768
      67A      1.570370    68A      1.599251    69A      1.674112
      70A      1.684168    71A      1.689648    72A      1.701195
      73A      1.838873    74A      1.854869    75A      1.869705
      76A      1.875482    77A      1.890877    78A      1.923597
      79A      1.929066    80A      1.939524    81A      1.943955
      82A      1.944769    83A      1.950484    84A      1.955190
      85A      1.959861    86A      1.968291    87A      1.988002
      88A      2.039217    89A      2.096748    90A      2.108861
      91A      2.118367    92A      2.157642    93A      2.292574
      94A      2.298282    95A      2.309262    96A      2.329530
      97A      2.441997    98A      2.454255    99A      2.456291
     100A      2.480881   101A      2.554184   102A      2.572259
     103A      2.581620   104A      2.587723   105A      2.759224
     106A      2.767110   107A      2.786710   108A      2.796041
     109A      2.828418   110A      2.847000   111A      2.852606
     112A      2.864315   113A      2.935348   114A      2.944443
     115A      2.958914   116A      2.980548

    Final Occupation by Irrep:
              A
    DOCC [    18 ]

  @RHF Final Energy:  -158.46423274053450

   => Energetics <=

    Nuclear Repulsion Energy =            120.2630670156707282
    One-Electron Energy =                -449.6498902245804743
    Two-Electron Energy =                 170.9225904683752333
    Total Energy =                       -158.4642327405344986

Computation Completed

Properties will be evaluated at   0.000000,   0.000000,   0.000000 [a0]

Properties computed using the SCF density matrix

  Nuclear Dipole Moment: [e a0]
     X:     0.0726      Y:    -0.1131      Z:    -0.0423

  Electronic Dipole Moment: [e a0]
     X:    -0.0487      Y:     0.1060      Z:     0.0286

  Dipole Moment: [e a0]
     X:     0.0238      Y:    -0.0071      Z:    -0.0137     Total:     0.0284

  Dipole Moment: [D]
     X:     0.0606      Y:    -0.0180      Z:    -0.0347     Total:     0.0721

*** tstop() called on ds3 at Mon Apr 27 07:34:05 2020
Module time:
	user time   =       7.49 seconds =       0.12 minutes
	system time =       3.49 seconds =       0.06 minutes
	total time  =         11 seconds =       0.18 minutes
Total time:
	user time   =       7.49 seconds =       0.12 minutes
	system time =       3.49 seconds =       0.06 minutes
	total time  =         11 seconds =       0.18 minutes
                                     G D M A

                                 by Anthony Stone

                           version 2.2.06, 22 June 2011

               Distributed Multipoles from Gaussian wavefunctions

Starting at 7:34:5 on 27 Apr 2020

Using SCF density matrix from file ./SSI/SSI-038VAL-041VAL-1-dimer.test.24562.fchk

                         Distributed Multipole Analysis

Standard DMA

Positions and radii in angstrom
Multipole moments in atomic units, ea_0^k for rank k

C          x = -1.824875  y = -0.404467  z = -0.351554 angstrom
           Maximum rank =  0   Radius =  0.650 angstrom
                   Q00  =  -0.251706

C          x = -2.710875  y = -1.583467  z =  0.103446 angstrom
           Maximum rank =  0   Radius =  0.650 angstrom
                   Q00  =  -0.233413

H          x = -1.789875  y =  0.378533  z =  0.407446 angstrom
           Maximum rank =  0   Radius =  0.325 angstrom
                   Q00  =   0.079592

H          x = -0.809875  y = -0.770467  z = -0.480554 angstrom
           Maximum rank =  0   Radius =  0.325 angstrom
                   Q00  =   0.082889

H          x = -2.184875  y =  0.011533  z = -1.295554 angstrom
           Maximum rank =  0   Radius =  0.325 angstrom
                   Q00  =   0.081533

H          x = -2.332875  y = -1.958467  z =  1.051446 angstrom
           Maximum rank =  0   Radius =  0.325 angstrom
                   Q00  =   0.080468

H          x = -3.759582  y = -1.273697  z =  0.222856 angstrom
           Maximum rank =  0   Radius =  0.325 angstrom
                   Q00  =   0.079708

H          x = -2.680053  y = -2.393657  z = -0.639954 angstrom
           Maximum rank =  0   Radius =  0.325 angstrom
                   Q00  =   0.079184

C          x =  1.615125  y =  0.840533  z = -0.238554 angstrom
           Maximum rank =  0   Radius =  0.650 angstrom
                   Q00  =  -0.220019

C          x =  2.914125  y =  1.157533  z =  0.490446 angstrom
           Maximum rank =  0   Radius =  0.650 angstrom
                   Q00  =  -0.242182

H          x =  0.812125  y =  1.504533  z =  0.084446 angstrom
           Maximum rank =  0   Radius =  0.325 angstrom
                   Q00  =   0.080474

H          x =  1.793125  y =  0.950533  z = -1.303554 angstrom
           Maximum rank =  0   Radius =  0.325 angstrom
                   Q00  =   0.076187

H          x =  1.340125  y = -0.195467  z = -0.042554 angstrom
           Maximum rank =  0   Radius =  0.325 angstrom
                   Q00  =   0.074470

H          x =  3.713125  y =  0.626533  z = -0.021554 angstrom
           Maximum rank =  0   Radius =  0.325 angstrom
                   Q00  =   0.076258

H          x =  2.841115  y =  0.764853  z =  1.515376 angstrom
           Maximum rank =  0   Radius =  0.325 angstrom
                   Q00  =   0.075864

H          x =  3.134935  y =  2.234623  z =  0.457076 angstrom
           Maximum rank =  0   Radius =  0.325 angstrom
                   Q00  =   0.080692

Total multipoles referred to origin at
           x =   0.000000,  y =    0.000000,  z =    0.000000 angstrom
                   Q00  =  -0.000000

Finished at 7:34:5 on 27 Apr 2020

  DMA results are available in the Python driver through the
	  variable('DMA DISTRIBUTED MULTIPOLES')
  and
	  variable('DMA TOTAL MULTIPOLES')
  commands.

    Psi4 stopped on: Monday, 27 April 2020 07:34AM
    Psi4 wall time for execution: 0:00:10.98

*** Psi4 exiting successfully. Buy a developer a beer!
