                               Psi4 1.3.2 release

  ==> Input File <==

--------------------------------------------------------------------------
import numpy as np
set {scf_type pk
basis cc-pvdz
d_convergence 10
gdma_switch   0
gdma_limit    0
gdma_origin   [ 0.0,  0.0,  0.0 ]
}
molecule test {
    units Angstrom
    0 1
    --
    0 1
    C                0.199559668234386    -1.899306738616080    -0.542555412497943
    C                1.515559668234386    -1.375306738616080    -1.125555412497943
    H                0.272559668234386    -1.848306738616080     0.544444587502056
    H               -0.626440331765614    -1.255306738616080    -0.800555412497943
    H               -0.035440331765614    -2.951306738616080    -0.660555412497943
    H                1.289559668234386    -0.679306738616080    -1.925555412497943
    H                2.054539668234386    -2.223096738616080    -1.573619412497944
    H                2.099369668234386    -0.854376738616080    -0.352381012497944
    C               -0.544440331765614     1.111693261383920     1.279444587502056
    C               -1.165440331765614     2.161693261383920     0.374444587502057
    H               -1.242440331765614     0.845693261383920     2.075444587502057
    H               -0.318440331765614     0.232693261383920     0.709444587502057
    H                0.371559668234386     1.503693261383920     1.723444587502057
    H               -0.429440331765614     2.435693261383920    -0.381555412497943
    H               -1.451309331765614     3.049553261383920     0.957527287502057
    H               -2.046453331765614     1.758983261383920    -0.146748812497943

}
e, wfn = energy('scf', return_wfn=True)
gdma(wfn)
dmavals = variable('DMA DISTRIBUTED MULTIPOLES')
charges = np.array(dmavals)
print(charges)
np.save('SSI-119LEU-137ALA-1-dimer.npy', np.array(charges))--------------------------------------------------------------------------

*** tstart() called on ds3
*** at Mon Apr 27 20:09:54 2020

   => Loading Basis Set <=

    Name: CC-PVDZ
    Role: ORBITAL
    Keyword: BASIS
    atoms 1-2, 9-10  entry C          line   138 file /theoryfs2/ds/metcalf/miniconda2/envs/tf2gpu/share/psi4/basis/cc-pvdz.gbs
    atoms 3-8, 11-16 entry H          line    22 file /theoryfs2/ds/metcalf/miniconda2/envs/tf2gpu/share/psi4/basis/cc-pvdz.gbs

         ---------------------------------------------------------
                                   SCF
               by Justin Turney, Rob Parrish, Andy Simmonett
                          and Daniel G. A. Smith
                              RHF Reference
                        1 Threads,    500 MiB Core
         ---------------------------------------------------------

  ==> Geometry <==

    Molecular point group: c1
    Full point group: C1

    Geometry (in Angstrom), charge = 0, multiplicity = 1:

       Center              X                  Y                   Z               Mass
    ------------   -----------------  -----------------  -----------------  -----------------
         C            0.199559668234    -1.899306738616    -0.542555412498    12.000000000000
         C            1.515559668234    -1.375306738616    -1.125555412498    12.000000000000
         H            0.272559668234    -1.848306738616     0.544444587502     1.007825032230
         H           -0.626440331766    -1.255306738616    -0.800555412498     1.007825032230
         H           -0.035440331766    -2.951306738616    -0.660555412498     1.007825032230
         H            1.289559668234    -0.679306738616    -1.925555412498     1.007825032230
         H            2.054539668234    -2.223096738616    -1.573619412498     1.007825032230
         H            2.099369668234    -0.854376738616    -0.352381012498     1.007825032230
         C           -0.544440331766     1.111693261384     1.279444587502    12.000000000000
         C           -1.165440331766     2.161693261384     0.374444587502    12.000000000000
         H           -1.242440331766     0.845693261384     2.075444587502     1.007825032230
         H           -0.318440331766     0.232693261384     0.709444587502     1.007825032230
         H            0.371559668234     1.503693261384     1.723444587502     1.007825032230
         H           -0.429440331766     2.435693261384    -0.381555412498     1.007825032230
         H           -1.451309331766     3.049553261384     0.957527287502     1.007825032230
         H           -2.046453331766     1.758983261384    -0.146748812498     1.007825032230

  Running in c1 symmetry.

  Rotational constants: A =      0.38130  B =      0.06129  C =      0.05912 [cm^-1]
  Rotational constants: A =  11431.11789  B =   1837.34852  C =   1772.31404 [MHz]
  Nuclear repulsion =  126.200060392730776

  Charge       = 0
  Multiplicity = 1
  Electrons    = 36
  Nalpha       = 18
  Nbeta        = 18

  ==> Algorithm <==

  SCF Algorithm Type is PK.
  DIIS enabled.
  MOM disabled.
  Fractional occupation disabled.
  Guess Type is SAD.
  Energy threshold   = 1.00e-06
  Density threshold  = 1.00e-10
  Integral threshold = 0.00e+00

  ==> Primary Basis <==

  Basis Set: CC-PVDZ
    Blend: CC-PVDZ
    Number of shells: 60
    Number of basis function: 116
    Number of Cartesian functions: 120
    Spherical Harmonics?: true
    Max angular momentum: 2

  ==> Pre-Iterations <==

   -------------------------------------------------------
    Irrep   Nso     Nmo     Nalpha   Nbeta   Ndocc  Nsocc
   -------------------------------------------------------
     A        116     116       0       0       0       0
   -------------------------------------------------------
    Total     116     116      18      18      18       0
   -------------------------------------------------------

  ==> Integral Setup <==

  Using integral reordering PK algorithm.
  Sizing the integral batches needed.
  Building batch lookup table.
   Calculation information:
      Number of atoms:                  16
      Number of AO shells:              60
      Number of primitives:            148
      Number of atomic orbitals:       120
      Number of basis functions:       116

      Integral cutoff                 1.00e-12
      Number of threads:                 1

	Batch   1 pq = [       0,    6786] index = [             0,23028291] size =     23028291
  Task number: 3
  Buffer size: 11059200
  Buffer per thread: 2
  We computed 1584026 shell quartets total.
  Whereas there are 1675365 unique shell quartets.

  ==> DiskJK: Disk-Based J/K Matrices <==

    J tasked:                  Yes
    K tasked:                  Yes
    wK tasked:                  No
    Memory [MiB]:              375
    Schwarz Cutoff:          1E-12

    OpenMP threads:              1

  Minimum eigenvalue in the overlap matrix is 7.0654614968E-03.
  Using Symmetric Orthogonalization.

  SCF Guess: Superposition of Atomic Densities via on-the-fly atomic UHF.

  ==> Iterations <==

                        Total Energy        Delta E     RMS |[F,P]|

   @RHF iter SAD:  -157.41907713917962   -1.57419e+02   0.00000e+00
   @RHF iter   1:  -158.29474931319137   -8.75672e-01   4.22836e-03 DIIS
   @RHF iter   2:  -158.42887482144874   -1.34126e-01   1.79618e-03 DIIS
   @RHF iter   3:  -158.45229034052559   -2.34155e-02   3.51406e-04 DIIS
   @RHF iter   4:  -158.45414409518705   -1.85375e-03   4.03973e-05 DIIS
   @RHF iter   5:  -158.45416970885034   -2.56137e-05   7.37315e-06 DIIS
   @RHF iter   6:  -158.45417046797087   -7.59121e-07   1.60493e-06 DIIS
   @RHF iter   7:  -158.45417049339369   -2.54228e-08   3.58581e-07 DIIS
   @RHF iter   8:  -158.45417049492337   -1.52968e-09   6.02073e-08 DIIS
   @RHF iter   9:  -158.45417049498923   -6.58531e-11   1.46578e-08 DIIS
   @RHF iter  10:  -158.45417049499301   -3.78009e-12   3.90306e-09 DIIS
   @RHF iter  11:  -158.45417049499289    1.13687e-13   1.05376e-09 DIIS
   @RHF iter  12:  -158.45417049499284    5.68434e-14   2.39409e-10 DIIS
   @RHF iter  13:  -158.45417049499312   -2.84217e-13   3.83556e-11 DIIS
  Energy and wave function converged.

  ==> Post-Iterations <==

    Orbital Energies [Eh]
    ---------------------

    Doubly Occupied:

       1A    -11.220859     2A    -11.217602     3A    -11.214034
       4A    -11.211252     5A     -1.022739     6A     -1.017392
       7A     -0.844566     8A     -0.834450     9A     -0.613649
      10A     -0.598533    11A     -0.596630    12A     -0.589771
      13A     -0.510789    14A     -0.501441    15A     -0.493695
      16A     -0.482718    17A     -0.481728    18A     -0.468528

    Virtual:

      19A      0.168406    20A      0.203638    21A      0.219517
      22A      0.225187    23A      0.238643    24A      0.260929
      25A      0.267070    26A      0.272913    27A      0.280837
      28A      0.319961    29A      0.325478    30A      0.352918
      31A      0.395196    32A      0.408721    33A      0.576345
      34A      0.583240    35A      0.598243    36A      0.612106
      37A      0.621840    38A      0.655564    39A      0.683743
      40A      0.710649    41A      0.717718    42A      0.800226
      43A      0.846028    44A      0.847889    45A      0.875548
      46A      0.884292    47A      0.888871    48A      0.894474
      49A      0.901115    50A      0.903193    51A      0.931634
      52A      0.941019    53A      0.952323    54A      0.959468
      55A      0.969832    56A      1.028669    57A      1.077847
      58A      1.127595    59A      1.132639    60A      1.150996
      61A      1.212678    62A      1.393211    63A      1.476372
      64A      1.478919    65A      1.488233    66A      1.511005
      67A      1.589363    68A      1.621709    69A      1.677603
      70A      1.682495    71A      1.695408    72A      1.710283
      73A      1.805314    74A      1.837021    75A      1.862389
      76A      1.872399    77A      1.882636    78A      1.907973
      79A      1.920671    80A      1.937332    81A      1.947299
      82A      1.956503    83A      1.961322    84A      1.966018
      85A      1.974150    86A      1.993500    87A      1.996990
      88A      2.078926    89A      2.101518    90A      2.144931
      91A      2.190999    92A      2.267382    93A      2.281795
      94A      2.300246    95A      2.307185    96A      2.321589
      97A      2.384580    98A      2.409605    99A      2.462725
     100A      2.479051   101A      2.570875   102A      2.587848
     103A      2.632887   104A      2.653642   105A      2.762519
     106A      2.767902   107A      2.779279   108A      2.806846
     109A      2.816313   110A      2.843051   111A      2.849354
     112A      2.881213   113A      2.940142   114A      2.961171
     115A      2.991091   116A      3.037746

    Final Occupation by Irrep:
              A
    DOCC [    18 ]

  @RHF Final Energy:  -158.45417049499312

   => Energetics <=

    Nuclear Repulsion Energy =            126.2000603927307765
    One-Electron Energy =                -461.4677103283748920
    Two-Electron Energy =                 176.8134794406509798
    Total Energy =                       -158.4541704949931216

Computation Completed

Properties will be evaluated at   0.000000,   0.000000,   0.000000 [a0]

Properties computed using the SCF density matrix

  Nuclear Dipole Moment: [e a0]
     X:    -0.0585      Y:     0.0137      Z:     0.1587

  Electronic Dipole Moment: [e a0]
     X:     0.0744      Y:    -0.0613      Z:    -0.1580

  Dipole Moment: [e a0]
     X:     0.0159      Y:    -0.0476      Z:     0.0007     Total:     0.0502

  Dipole Moment: [D]
     X:     0.0405      Y:    -0.1211      Z:     0.0018     Total:     0.1277

*** tstop() called on ds3 at Mon Apr 27 20:10:04 2020
Module time:
	user time   =       7.84 seconds =       0.13 minutes
	system time =       2.76 seconds =       0.05 minutes
	total time  =         10 seconds =       0.17 minutes
Total time:
	user time   =       7.84 seconds =       0.13 minutes
	system time =       2.76 seconds =       0.05 minutes
	total time  =         10 seconds =       0.17 minutes
                                     G D M A

                                 by Anthony Stone

                           version 2.2.06, 22 June 2011

               Distributed Multipoles from Gaussian wavefunctions

Starting at 20:10:4 on 27 Apr 2020

Using SCF density matrix from file ./SSI/SSI-119LEU-137ALA-1-dimer.test.13643.fchk

                         Distributed Multipole Analysis

Standard DMA

Positions and radii in angstrom
Multipole moments in atomic units, ea_0^k for rank k

C          x =  0.199560  y = -1.899307  z = -0.542555 angstrom
           Maximum rank =  0   Radius =  0.650 angstrom
                   Q00  =  -0.263880

C          x =  1.515560  y = -1.375307  z = -1.125555 angstrom
           Maximum rank =  0   Radius =  0.650 angstrom
                   Q00  =  -0.243031

H          x =  0.272560  y = -1.848307  z =  0.544445 angstrom
           Maximum rank =  0   Radius =  0.325 angstrom
                   Q00  =   0.072882

H          x = -0.626440  y = -1.255307  z = -0.800555 angstrom
           Maximum rank =  0   Radius =  0.325 angstrom
                   Q00  =   0.084538

H          x = -0.035440  y = -2.951307  z = -0.660555 angstrom
           Maximum rank =  0   Radius =  0.325 angstrom
                   Q00  =   0.086550

H          x =  1.289560  y = -0.679307  z = -1.925555 angstrom
           Maximum rank =  0   Radius =  0.325 angstrom
                   Q00  =   0.085835

H          x =  2.054540  y = -2.223097  z = -1.573619 angstrom
           Maximum rank =  0   Radius =  0.325 angstrom
                   Q00  =   0.087157

H          x =  2.099370  y = -0.854377  z = -0.352381 angstrom
           Maximum rank =  0   Radius =  0.325 angstrom
                   Q00  =   0.089320

C          x = -0.544440  y =  1.111693  z =  1.279445 angstrom
           Maximum rank =  0   Radius =  0.650 angstrom
                   Q00  =  -0.239992

C          x = -1.165440  y =  2.161693  z =  0.374445 angstrom
           Maximum rank =  0   Radius =  0.650 angstrom
                   Q00  =  -0.237139

H          x = -1.242440  y =  0.845693  z =  2.075445 angstrom
           Maximum rank =  0   Radius =  0.325 angstrom
                   Q00  =   0.074946

H          x = -0.318440  y =  0.232693  z =  0.709445 angstrom
           Maximum rank =  0   Radius =  0.325 angstrom
                   Q00  =   0.096925

H          x =  0.371560  y =  1.503693  z =  1.723445 angstrom
           Maximum rank =  0   Radius =  0.325 angstrom
                   Q00  =   0.075544

H          x = -0.429440  y =  2.435693  z = -0.381555 angstrom
           Maximum rank =  0   Radius =  0.325 angstrom
                   Q00  =   0.075094

H          x = -1.451309  y =  3.049553  z =  0.957527 angstrom
           Maximum rank =  0   Radius =  0.325 angstrom
                   Q00  =   0.079685

H          x = -2.046453  y =  1.758983  z = -0.146749 angstrom
           Maximum rank =  0   Radius =  0.325 angstrom
                   Q00  =   0.075567

Total multipoles referred to origin at
           x =   0.000000,  y =    0.000000,  z =    0.000000 angstrom
                   Q00  =  -0.000000

Finished at 20:10:4 on 27 Apr 2020

  DMA results are available in the Python driver through the
	  variable('DMA DISTRIBUTED MULTIPOLES')
  and
	  variable('DMA TOTAL MULTIPOLES')
  commands.

    Psi4 stopped on: Monday, 27 April 2020 08:10PM
    Psi4 wall time for execution: 0:00:10.47

*** Psi4 exiting successfully. Buy a developer a beer!
