                               Psi4 1.3.2 release

  ==> Input File <==

--------------------------------------------------------------------------
import numpy as np
set {scf_type pk
basis cc-pvdz
d_convergence 10
gdma_switch   0
gdma_limit    0
gdma_origin   [ 0.0,  0.0,  0.0 ]
}
molecule test {
    units Angstrom
    0 1
    --
    0 1
    C                0.414074845842235     0.061846416012283    -1.646902530766170
    C                0.759074845842235     0.388846416012283    -3.100902530766170
    H                0.028074845842235     0.949846416012283    -1.143902530766170
    H               -0.347925154157765    -0.717153583987717    -1.621902530766170
    H                1.291074845842235    -0.309153583987717    -1.116902530766170
    H                1.230074845842235    -0.488153583987717    -3.547902530766170
    H                1.461537845842235     1.234966416012283    -3.126041530766170
    H               -0.142028154157765     0.631996416012283    -3.683043530766170
    C               -0.668925154157765    -0.325153583987717     1.616097469233830
    C               -0.498925154157765    -0.119153583987717     3.131097469233830
    H                0.312074845842235    -0.332153583987717     1.142097469233830
    H               -1.159925154157765    -1.280153583987717     1.429097469233830
    H               -1.284925154157765     0.461846416012283     1.181097469233830
    H               -1.495925154157765    -0.062153583987717     3.569097469233830
    H                0.035736845842235     0.818466416012283     3.343253469233830
    H                0.009055845842235    -0.984233583987717     3.582316469233830

}
e, wfn = energy('scf', return_wfn=True)
gdma(wfn)
dmavals = variable('DMA DISTRIBUTED MULTIPOLES')
charges = np.array(dmavals)
print(charges)
np.save('SSI-033VAL-055VAL-1-dimer.npy', np.array(charges))--------------------------------------------------------------------------

*** tstart() called on ds3
*** at Mon Apr 27 23:09:34 2020

   => Loading Basis Set <=

    Name: CC-PVDZ
    Role: ORBITAL
    Keyword: BASIS
    atoms 1-2, 9-10  entry C          line   138 file /theoryfs2/ds/metcalf/miniconda2/envs/tf2gpu/share/psi4/basis/cc-pvdz.gbs
    atoms 3-8, 11-16 entry H          line    22 file /theoryfs2/ds/metcalf/miniconda2/envs/tf2gpu/share/psi4/basis/cc-pvdz.gbs

         ---------------------------------------------------------
                                   SCF
               by Justin Turney, Rob Parrish, Andy Simmonett
                          and Daniel G. A. Smith
                              RHF Reference
                        1 Threads,    500 MiB Core
         ---------------------------------------------------------

  ==> Geometry <==

    Molecular point group: c1
    Full point group: C1

    Geometry (in Angstrom), charge = 0, multiplicity = 1:

       Center              X                  Y                   Z               Mass
    ------------   -----------------  -----------------  -----------------  -----------------
         C            0.414074845842     0.061846416012    -1.646902530766    12.000000000000
         C            0.759074845842     0.388846416012    -3.100902530766    12.000000000000
         H            0.028074845842     0.949846416012    -1.143902530766     1.007825032230
         H           -0.347925154158    -0.717153583988    -1.621902530766     1.007825032230
         H            1.291074845842    -0.309153583988    -1.116902530766     1.007825032230
         H            1.230074845842    -0.488153583988    -3.547902530766     1.007825032230
         H            1.461537845842     1.234966416012    -3.126041530766     1.007825032230
         H           -0.142028154158     0.631996416012    -3.683043530766     1.007825032230
         C           -0.668925154158    -0.325153583988     1.616097469234    12.000000000000
         C           -0.498925154158    -0.119153583988     3.131097469234    12.000000000000
         H            0.312074845842    -0.332153583988     1.142097469234     1.007825032230
         H           -1.159925154158    -1.280153583988     1.429097469234     1.007825032230
         H           -1.284925154158     0.461846416012     1.181097469234     1.007825032230
         H           -1.495925154158    -0.062153583988     3.569097469234     1.007825032230
         H            0.035736845842     0.818466416012     3.343253469234     1.007825032230
         H            0.009055845842    -0.984233583988     3.582316469234     1.007825032230

  Running in c1 symmetry.

  Rotational constants: A =      1.04701  B =      0.04117  C =      0.04088 [cm^-1]
  Rotational constants: A =  31388.69483  B =   1234.11117  C =   1225.43056 [MHz]
  Nuclear repulsion =  121.027359297678544

  Charge       = 0
  Multiplicity = 1
  Electrons    = 36
  Nalpha       = 18
  Nbeta        = 18

  ==> Algorithm <==

  SCF Algorithm Type is PK.
  DIIS enabled.
  MOM disabled.
  Fractional occupation disabled.
  Guess Type is SAD.
  Energy threshold   = 1.00e-06
  Density threshold  = 1.00e-10
  Integral threshold = 0.00e+00

  ==> Primary Basis <==

  Basis Set: CC-PVDZ
    Blend: CC-PVDZ
    Number of shells: 60
    Number of basis function: 116
    Number of Cartesian functions: 120
    Spherical Harmonics?: true
    Max angular momentum: 2

  ==> Pre-Iterations <==

   -------------------------------------------------------
    Irrep   Nso     Nmo     Nalpha   Nbeta   Ndocc  Nsocc
   -------------------------------------------------------
     A        116     116       0       0       0       0
   -------------------------------------------------------
    Total     116     116      18      18      18       0
   -------------------------------------------------------

  ==> Integral Setup <==

  Using integral reordering PK algorithm.
  Sizing the integral batches needed.
  Building batch lookup table.
   Calculation information:
      Number of atoms:                  16
      Number of AO shells:              60
      Number of primitives:            148
      Number of atomic orbitals:       120
      Number of basis functions:       116

      Integral cutoff                 1.00e-12
      Number of threads:                 1

	Batch   1 pq = [       0,    6786] index = [             0,23028291] size =     23028291
  Task number: 3
  Buffer size: 11059200
  Buffer per thread: 2
  We computed 1370448 shell quartets total.
  Whereas there are 1675365 unique shell quartets.

  ==> DiskJK: Disk-Based J/K Matrices <==

    J tasked:                  Yes
    K tasked:                  Yes
    wK tasked:                  No
    Memory [MiB]:              375
    Schwarz Cutoff:          1E-12

    OpenMP threads:              1

  Minimum eigenvalue in the overlap matrix is 5.5562003862E-03.
  Using Symmetric Orthogonalization.

  SCF Guess: Superposition of Atomic Densities via on-the-fly atomic UHF.

  ==> Iterations <==

                        Total Energy        Delta E     RMS |[F,P]|

   @RHF iter SAD:  -157.34034474929581   -1.57340e+02   0.00000e+00
   @RHF iter   1:  -158.30757601434354   -9.67231e-01   4.19424e-03 DIIS
   @RHF iter   2:  -158.44070371269117   -1.33128e-01   1.77579e-03 DIIS
   @RHF iter   3:  -158.46365630928656   -2.29526e-02   3.50345e-04 DIIS
   @RHF iter   4:  -158.46549330292780   -1.83699e-03   3.93748e-05 DIIS
   @RHF iter   5:  -158.46551743460765   -2.41317e-05   7.20662e-06 DIIS
   @RHF iter   6:  -158.46551816497043   -7.30363e-07   1.42608e-06 DIIS
   @RHF iter   7:  -158.46551818416100   -1.91906e-08   3.47073e-07 DIIS
   @RHF iter   8:  -158.46551818549372   -1.33272e-09   5.28471e-08 DIIS
   @RHF iter   9:  -158.46551818554892   -5.51950e-11   1.03594e-08 DIIS
   @RHF iter  10:  -158.46551818555085   -1.93268e-12   2.83056e-09 DIIS
   @RHF iter  11:  -158.46551818555133   -4.83169e-13   7.47881e-10 DIIS
   @RHF iter  12:  -158.46551818555156   -2.27374e-13   1.46415e-10 DIIS
   @RHF iter  13:  -158.46551818555125    3.12639e-13   2.74346e-11 DIIS
  Energy and wave function converged.

  ==> Post-Iterations <==

    Orbital Energies [Eh]
    ---------------------

    Doubly Occupied:

       1A    -11.218866     2A    -11.218659     3A    -11.215920
       4A    -11.215430     5A     -1.017843     6A     -1.013900
       7A     -0.840847     8A     -0.830957     9A     -0.599320
      10A     -0.598023    11A     -0.595015    12A     -0.593477
      13A     -0.506186    14A     -0.495216    15A     -0.489473
      16A     -0.483712    17A     -0.481984    18A     -0.478621

    Virtual:

      19A      0.177359    20A      0.194075    21A      0.223005
      22A      0.235932    23A      0.240170    24A      0.264090
      25A      0.266029    26A      0.277985    27A      0.280209
      28A      0.292073    29A      0.307933    30A      0.330589
      31A      0.376318    32A      0.422600    33A      0.566728
      34A      0.592011    35A      0.599678    36A      0.601443
      37A      0.602848    38A      0.658825    39A      0.665325
      40A      0.703422    41A      0.716145    42A      0.759746
      43A      0.841750    44A      0.885791    45A      0.891119
      46A      0.892870    47A      0.893865    48A      0.895203
      49A      0.900802    50A      0.914225    51A      0.915476
      52A      0.921269    53A      0.941975    54A      0.952543
      55A      0.971309    56A      1.007049    57A      1.119944
      58A      1.126136    59A      1.137318    60A      1.148034
      61A      1.213870    62A      1.284429    63A      1.461477
      64A      1.476222    65A      1.482457    66A      1.494263
      67A      1.577600    68A      1.589791    69A      1.680080
      70A      1.680450    71A      1.694016    72A      1.694963
      73A      1.843584    74A      1.859616    75A      1.880232
      76A      1.885612    77A      1.899200    78A      1.921756
      79A      1.929638    80A      1.936137    81A      1.939366
      82A      1.942351    83A      1.949626    84A      1.953293
      85A      1.954218    86A      1.972685    87A      2.017742
      88A      2.066962    89A      2.094188    90A      2.114663
      91A      2.119986    92A      2.130573    93A      2.298929
      94A      2.303700    95A      2.313845    96A      2.371189
      97A      2.448094    98A      2.449141    99A      2.467303
     100A      2.483800   101A      2.550974   102A      2.558770
     103A      2.578017   104A      2.587428   105A      2.756609
     106A      2.765549   107A      2.784136   108A      2.803840
     109A      2.844104   110A      2.845849   111A      2.853981
     112A      2.858077   113A      2.934502   114A      2.948822
     115A      2.954484   116A      2.972520

    Final Occupation by Irrep:
              A
    DOCC [    18 ]

  @RHF Final Energy:  -158.46551818555125

   => Energetics <=

    Nuclear Repulsion Energy =            121.0273592976785437
    One-Electron Energy =                -451.1988572563364528
    Two-Electron Energy =                 171.7059797731066908
    Total Energy =                       -158.4655181855512467

Computation Completed

Properties will be evaluated at   0.000000,   0.000000,   0.000000 [a0]

Properties computed using the SCF density matrix

  Nuclear Dipole Moment: [e a0]
     X:    -0.0592      Y:    -0.0713      Z:     0.0068

  Electronic Dipole Moment: [e a0]
     X:     0.0501      Y:     0.0566      Z:    -0.0140

  Dipole Moment: [e a0]
     X:    -0.0091      Y:    -0.0146      Z:    -0.0072     Total:     0.0187

  Dipole Moment: [D]
     X:    -0.0231      Y:    -0.0372      Z:    -0.0182     Total:     0.0475

*** tstop() called on ds3 at Mon Apr 27 23:09:48 2020
Module time:
	user time   =       9.54 seconds =       0.16 minutes
	system time =       4.11 seconds =       0.07 minutes
	total time  =         14 seconds =       0.23 minutes
Total time:
	user time   =       9.54 seconds =       0.16 minutes
	system time =       4.11 seconds =       0.07 minutes
	total time  =         14 seconds =       0.23 minutes
                                     G D M A

                                 by Anthony Stone

                           version 2.2.06, 22 June 2011

               Distributed Multipoles from Gaussian wavefunctions

Starting at 23:9:48 on 27 Apr 2020

Using SCF density matrix from file ./SSI/SSI-033VAL-055VAL-1-dimer.test.1332.fchk

                         Distributed Multipole Analysis

Standard DMA

Positions and radii in angstrom
Multipole moments in atomic units, ea_0^k for rank k

C          x =  0.414075  y =  0.061846  z = -1.646903 angstrom
           Maximum rank =  0   Radius =  0.650 angstrom
                   Q00  =  -0.229439

C          x =  0.759075  y =  0.388846  z = -3.100903 angstrom
           Maximum rank =  0   Radius =  0.650 angstrom
                   Q00  =  -0.241896

H          x =  0.028075  y =  0.949846  z = -1.143903 angstrom
           Maximum rank =  0   Radius =  0.325 angstrom
                   Q00  =   0.078470

H          x = -0.347925  y = -0.717154  z = -1.621903 angstrom
           Maximum rank =  0   Radius =  0.325 angstrom
                   Q00  =   0.078281

H          x =  1.291075  y = -0.309154  z = -1.116903 angstrom
           Maximum rank =  0   Radius =  0.325 angstrom
                   Q00  =   0.078314

H          x =  1.230075  y = -0.488154  z = -3.547903 angstrom
           Maximum rank =  0   Radius =  0.325 angstrom
                   Q00  =   0.078861

H          x =  1.461538  y =  1.234966  z = -3.126042 angstrom
           Maximum rank =  0   Radius =  0.325 angstrom
                   Q00  =   0.078395

H          x = -0.142028  y =  0.631996  z = -3.683044 angstrom
           Maximum rank =  0   Radius =  0.325 angstrom
                   Q00  =   0.080911

C          x = -0.668925  y = -0.325154  z =  1.616097 angstrom
           Maximum rank =  0   Radius =  0.650 angstrom
                   Q00  =  -0.251838

C          x = -0.498925  y = -0.119154  z =  3.131097 angstrom
           Maximum rank =  0   Radius =  0.650 angstrom
                   Q00  =  -0.228273

H          x =  0.312075  y = -0.332154  z =  1.142097 angstrom
           Maximum rank =  0   Radius =  0.325 angstrom
                   Q00  =   0.080490

H          x = -1.159925  y = -1.280154  z =  1.429097 angstrom
           Maximum rank =  0   Radius =  0.325 angstrom
                   Q00  =   0.079408

H          x = -1.284925  y =  0.461846  z =  1.181097 angstrom
           Maximum rank =  0   Radius =  0.325 angstrom
                   Q00  =   0.079816

H          x = -1.495925  y = -0.062154  z =  3.569097 angstrom
           Maximum rank =  0   Radius =  0.325 angstrom
                   Q00  =   0.076709

H          x =  0.035737  y =  0.818466  z =  3.343253 angstrom
           Maximum rank =  0   Radius =  0.325 angstrom
                   Q00  =   0.081041

H          x =  0.009056  y = -0.984234  z =  3.582316 angstrom
           Maximum rank =  0   Radius =  0.325 angstrom
                   Q00  =   0.080750

Total multipoles referred to origin at
           x =   0.000000,  y =    0.000000,  z =    0.000000 angstrom
                   Q00  =  -0.000000

Finished at 23:9:48 on 27 Apr 2020

  DMA results are available in the Python driver through the
	  variable('DMA DISTRIBUTED MULTIPOLES')
  and
	  variable('DMA TOTAL MULTIPOLES')
  commands.

    Psi4 stopped on: Monday, 27 April 2020 11:09PM
    Psi4 wall time for execution: 0:00:13.39

*** Psi4 exiting successfully. Buy a developer a beer!
