                               Psi4 1.3.2 release

  ==> Input File <==

--------------------------------------------------------------------------
import numpy as np
set {scf_type pk
basis cc-pvdz
d_convergence 10
gdma_switch   0
gdma_limit    0
gdma_origin   [ 0.0,  0.0,  0.0 ]
}
molecule test {
    units Angstrom
    0 1
    --
    0 1
    C               -2.647923560973738    -0.423543196438179    -1.461615126749910
    C               -1.200923560973737    -0.728543196438179    -1.141615126749910
    O               -0.309923560973737     0.079456803561821    -1.388615126749910
    N               -0.958923560973737    -1.901543196438179    -0.579615126749910
    H               -2.948923560973737     0.418456803561821    -0.845615126749910
    H               -3.274923560973738    -1.273543196438179    -1.194615126749910
    H               -0.026923560973737    -2.093543196438179    -0.229615126749910
    H               -1.708923560973737    -2.546543196438179    -0.390615126749910
    H               -2.801739560973738    -0.161913196438179    -2.518918426749911
    C                1.270076439026262     0.541456803561821     1.498384873250090
    C                2.416076439026262     0.582456803561821     0.487384873250090
    O                1.206076439026263     1.728456803561821     2.270384873250090
    H                0.322076439026263     0.431456803561821     0.975384873250090
    H                1.393076439026263    -0.316543196438179     2.158384873250090
    H                2.198076439026262    -0.160543196438179    -0.281615126749910
    H                2.053076439026262     1.843456803561821     2.745384873250089
    H                3.370119439026262     0.350366803561821     0.983305873250090
    H                2.463204439026263     1.572146803561821     0.009579873250090

}
e, wfn = energy('scf', return_wfn=True)
gdma(wfn)
dmavals = variable('DMA DISTRIBUTED MULTIPOLES')
charges = np.array(dmavals)
print(charges)
np.save('SSI-039ASN-081SER-1-dimer.npy', np.array(charges))--------------------------------------------------------------------------

*** tstart() called on ds3
*** at Mon Apr 27 07:14:58 2020

   => Loading Basis Set <=

    Name: CC-PVDZ
    Role: ORBITAL
    Keyword: BASIS
    atoms 1-2, 10-11 entry C          line   138 file /theoryfs2/ds/metcalf/miniconda2/envs/tf2gpu/share/psi4/basis/cc-pvdz.gbs
    atoms 3, 12      entry O          line   198 file /theoryfs2/ds/metcalf/miniconda2/envs/tf2gpu/share/psi4/basis/cc-pvdz.gbs
    atoms 4          entry N          line   168 file /theoryfs2/ds/metcalf/miniconda2/envs/tf2gpu/share/psi4/basis/cc-pvdz.gbs
    atoms 5-9, 13-18 entry H          line    22 file /theoryfs2/ds/metcalf/miniconda2/envs/tf2gpu/share/psi4/basis/cc-pvdz.gbs

         ---------------------------------------------------------
                                   SCF
               by Justin Turney, Rob Parrish, Andy Simmonett
                          and Daniel G. A. Smith
                              RHF Reference
                        1 Threads,    500 MiB Core
         ---------------------------------------------------------

  ==> Geometry <==

    Molecular point group: c1
    Full point group: C1

    Geometry (in Angstrom), charge = 0, multiplicity = 1:

       Center              X                  Y                   Z               Mass
    ------------   -----------------  -----------------  -----------------  -----------------
         C           -2.647923560974    -0.423543196438    -1.461615126750    12.000000000000
         C           -1.200923560974    -0.728543196438    -1.141615126750    12.000000000000
         O           -0.309923560974     0.079456803562    -1.388615126750    15.994914619570
         N           -0.958923560974    -1.901543196438    -0.579615126750    14.003074004430
         H           -2.948923560974     0.418456803562    -0.845615126750     1.007825032230
         H           -3.274923560974    -1.273543196438    -1.194615126750     1.007825032230
         H           -0.026923560974    -2.093543196438    -0.229615126750     1.007825032230
         H           -1.708923560974    -2.546543196438    -0.390615126750     1.007825032230
         H           -2.801739560974    -0.161913196438    -2.518918426750     1.007825032230
         C            1.270076439026     0.541456803562     1.498384873250    12.000000000000
         C            2.416076439026     0.582456803562     0.487384873250    12.000000000000
         O            1.206076439026     1.728456803562     2.270384873250    15.994914619570
         H            0.322076439026     0.431456803562     0.975384873250     1.007825032230
         H            1.393076439026    -0.316543196438     2.158384873250     1.007825032230
         H            2.198076439026    -0.160543196438    -0.281615126750     1.007825032230
         H            2.053076439026     1.843456803562     2.745384873250     1.007825032230
         H            3.370119439026     0.350366803562     0.983305873250     1.007825032230
         H            2.463204439026     1.572146803562     0.009579873250     1.007825032230

  Running in c1 symmetry.

  Rotational constants: A =      0.13999  B =      0.02994  C =      0.02888 [cm^-1]
  Rotational constants: A =   4196.77257  B =    897.51367  C =    865.83027 [MHz]
  Nuclear repulsion =  304.497594892830364

  Charge       = 0
  Multiplicity = 1
  Electrons    = 58
  Nalpha       = 29
  Nbeta        = 29

  ==> Algorithm <==

  SCF Algorithm Type is PK.
  DIIS enabled.
  MOM disabled.
  Fractional occupation disabled.
  Guess Type is SAD.
  Energy threshold   = 1.00e-06
  Density threshold  = 1.00e-10
  Integral threshold = 0.00e+00

  ==> Primary Basis <==

  Basis Set: CC-PVDZ
    Blend: CC-PVDZ
    Number of shells: 75
    Number of basis function: 153
    Number of Cartesian functions: 160
    Spherical Harmonics?: true
    Max angular momentum: 2

  ==> Pre-Iterations <==

   -------------------------------------------------------
    Irrep   Nso     Nmo     Nalpha   Nbeta   Ndocc  Nsocc
   -------------------------------------------------------
     A        153     153       0       0       0       0
   -------------------------------------------------------
    Total     153     153      29      29      29       0
   -------------------------------------------------------

  ==> Integral Setup <==

  Using integral reordering PK algorithm.
  Sizing the integral batches needed.
  Building batch lookup table.
   Calculation information:
      Number of atoms:                  18
      Number of AO shells:              75
      Number of primitives:            209
      Number of atomic orbitals:       160
      Number of basis functions:       153

      Integral cutoff                 1.00e-12
      Number of threads:                 1

	Batch   1 pq = [       0,    9405] index = [             0,44231715] size =     44231715
	Batch   2 pq = [    9405,   11781] index = [      44231715,69401871] size =     25170156
  Task number: 7
  Buffer size: 11059200
  Buffer per thread: 2
  We computed 3448098 shell quartets total.
  Whereas there are 4062675 unique shell quartets.

  ==> DiskJK: Disk-Based J/K Matrices <==

    J tasked:                  Yes
    K tasked:                  Yes
    wK tasked:                  No
    Memory [MiB]:              375
    Schwarz Cutoff:          1E-12

    OpenMP threads:              1

  Minimum eigenvalue in the overlap matrix is 4.3312890355E-03.
  Using Symmetric Orthogonalization.

  SCF Guess: Superposition of Atomic Densities via on-the-fly atomic UHF.

  ==> Iterations <==

                        Total Energy        Delta E     RMS |[F,P]|

   @RHF iter SAD:  -360.68074337414106   -3.60681e+02   0.00000e+00
   @RHF iter   1:  -361.83171812668502   -1.15097e+00   4.49485e-03 DIIS
   @RHF iter   2:  -362.02285630980748   -1.91138e-01   2.52801e-03 DIIS
   @RHF iter   3:  -362.07794350403253   -5.50872e-02   5.06779e-04 DIIS
   @RHF iter   4:  -362.08147731588161   -3.53381e-03   2.04149e-04 DIIS
   @RHF iter   5:  -362.08207931193738   -6.01996e-04   3.86533e-05 DIIS
   @RHF iter   6:  -362.08211365097554   -3.43390e-05   1.72643e-05 DIIS
   @RHF iter   7:  -362.08212038755352   -6.73658e-06   6.16767e-06 DIIS
   @RHF iter   8:  -362.08212164941790   -1.26186e-06   2.27032e-06 DIIS
   @RHF iter   9:  -362.08212182601551   -1.76598e-07   7.15839e-07 DIIS
   @RHF iter  10:  -362.08212184126910   -1.52536e-08   2.36538e-07 DIIS
   @RHF iter  11:  -362.08212184272571   -1.45661e-09   5.43171e-08 DIIS
   @RHF iter  12:  -362.08212184281194   -8.62315e-11   1.80419e-08 DIIS
   @RHF iter  13:  -362.08212184281933   -7.38964e-12   5.61122e-09 DIIS
   @RHF iter  14:  -362.08212184282024   -9.09495e-13   2.17267e-09 DIIS
   @RHF iter  15:  -362.08212184282240   -2.16005e-12   9.31314e-10 DIIS
   @RHF iter  16:  -362.08212184281990    2.50111e-12   4.27086e-10 DIIS
   @RHF iter  17:  -362.08212184282121   -1.30740e-12   1.63188e-10 DIIS
   @RHF iter  18:  -362.08212184282149   -2.84217e-13   4.56120e-11 DIIS
  Energy and wave function converged.

  ==> Post-Iterations <==

    Orbital Energies [Eh]
    ---------------------

    Doubly Occupied:

       1A    -20.534049     2A    -20.508315     3A    -15.596327
       4A    -11.353100     5A    -11.256557     6A    -11.245384
       7A    -11.204294     8A     -1.374351     9A     -1.333694
      10A     -1.224667    11A     -1.004910    12A     -0.989265
      13A     -0.825043    14A     -0.806977    15A     -0.733929
      16A     -0.664336    17A     -0.660054    18A     -0.619259
      19A     -0.601501    20A     -0.583579    21A     -0.574624
      22A     -0.563125    23A     -0.527616    24A     -0.520081
      25A     -0.503548    26A     -0.457663    27A     -0.418308
      28A     -0.414066    29A     -0.409124

    Virtual:

      30A      0.156881    31A      0.187857    32A      0.195530
      33A      0.206209    34A      0.216168    35A      0.247431
      36A      0.256394    37A      0.270609    38A      0.272665
      39A      0.290531    40A      0.309961    41A      0.334982
      42A      0.378072    43A      0.415327    44A      0.417716
      45A      0.493348    46A      0.572565    47A      0.623843
      48A      0.630859    49A      0.636594    50A      0.670704
      51A      0.675643    52A      0.695063    53A      0.709290
      54A      0.738749    55A      0.748065    56A      0.765602
      57A      0.803613    58A      0.821854    59A      0.850025
      60A      0.855137    61A      0.870430    62A      0.882296
      63A      0.895424    64A      0.903450    65A      0.913932
      66A      0.928870    67A      0.941677    68A      0.957419
      69A      0.972522    70A      1.001111    71A      1.023147
      72A      1.057632    73A      1.117702    74A      1.133573
      75A      1.146682    76A      1.159655    77A      1.250624
      78A      1.284131    79A      1.317750    80A      1.349454
      81A      1.373498    82A      1.384745    83A      1.401006
      84A      1.431232    85A      1.437949    86A      1.445091
      87A      1.492399    88A      1.507655    89A      1.545994
      90A      1.599313    91A      1.625333    92A      1.661314
      93A      1.680416    94A      1.689067    95A      1.716928
      96A      1.771710    97A      1.827094    98A      1.849942
      99A      1.878268   100A      1.884378   101A      1.894531
     102A      1.910509   103A      1.918356   104A      1.920086
     105A      1.923279   106A      1.950191   107A      1.969042
     108A      1.971814   109A      2.005261   110A      2.019970
     111A      2.049107   112A      2.068996   113A      2.076333
     114A      2.117025   115A      2.146810   116A      2.201837
     117A      2.225551   118A      2.260386   119A      2.305188
     120A      2.318834   121A      2.380536   122A      2.417645
     123A      2.428132   124A      2.434109   125A      2.461963
     126A      2.485633   127A      2.535088   128A      2.558462
     129A      2.573324   130A      2.588594   131A      2.636922
     132A      2.738032   133A      2.770733   134A      2.777963
     135A      2.790241   136A      2.808278   137A      2.831194
     138A      2.866852   139A      2.909476   140A      2.947907
     141A      2.984685   142A      3.091273   143A      3.130520
     144A      3.269148   145A      3.317752   146A      3.411404
     147A      3.469361   148A      3.502117   149A      3.525583
     150A      3.656612   151A      3.869096   152A      3.926415
     153A      4.098849

    Final Occupation by Irrep:
              A
    DOCC [    29 ]

  @RHF Final Energy:  -362.08212184282149

   => Energetics <=

    Nuclear Repulsion Energy =            304.4975948928303637
    One-Electron Energy =               -1098.1439414325434427
    Two-Electron Energy =                 431.5642246968915288
    Total Energy =                       -362.0821218428214934

Computation Completed

Properties will be evaluated at   0.000000,   0.000000,   0.000000 [a0]

Properties computed using the SCF density matrix

  Nuclear Dipole Moment: [e a0]
     X:     0.9804      Y:    -1.8014      Z:     1.3287

  Electronic Dipole Moment: [e a0]
     X:    -1.6217      Y:     0.1247      Z:    -1.0181

  Dipole Moment: [e a0]
     X:    -0.6414      Y:    -1.6768      Z:     0.3106     Total:     1.8219

  Dipole Moment: [D]
     X:    -1.6302      Y:    -4.2619      Z:     0.7896     Total:     4.6309

*** tstop() called on ds3 at Mon Apr 27 07:15:51 2020
Module time:
	user time   =      23.44 seconds =       0.39 minutes
	system time =      10.05 seconds =       0.17 minutes
	total time  =         53 seconds =       0.88 minutes
Total time:
	user time   =      23.44 seconds =       0.39 minutes
	system time =      10.05 seconds =       0.17 minutes
	total time  =         53 seconds =       0.88 minutes
                                     G D M A

                                 by Anthony Stone

                           version 2.2.06, 22 June 2011

               Distributed Multipoles from Gaussian wavefunctions

Starting at 7:15:51 on 27 Apr 2020

Using SCF density matrix from file ./SSI/SSI-039ASN-081SER-1-dimer.test.26720.fchk

                         Distributed Multipole Analysis

Standard DMA

Positions and radii in angstrom
Multipole moments in atomic units, ea_0^k for rank k

C          x = -2.647924  y = -0.423543  z = -1.461615 angstrom
           Maximum rank =  0   Radius =  0.650 angstrom
                   Q00  =  -0.258943

C          x = -1.200924  y = -0.728543  z = -1.141615 angstrom
           Maximum rank =  0   Radius =  0.650 angstrom
                   Q00  =   0.807294

O          x = -0.309924  y =  0.079457  z = -1.388615 angstrom
           Maximum rank =  0   Radius =  0.650 angstrom
                   Q00  =  -0.791165

N          x = -0.958924  y = -1.901543  z = -0.579615 angstrom
           Maximum rank =  0   Radius =  0.650 angstrom
                   Q00  =  -0.520123

H          x = -2.948924  y =  0.418457  z = -0.845615 angstrom
           Maximum rank =  0   Radius =  0.325 angstrom
                   Q00  =   0.135768

H          x = -3.274924  y = -1.273543  z = -1.194615 angstrom
           Maximum rank =  0   Radius =  0.325 angstrom
                   Q00  =   0.070529

H          x = -0.026924  y = -2.093543  z = -0.229615 angstrom
           Maximum rank =  0   Radius =  0.325 angstrom
                   Q00  =   0.224487

H          x = -1.708924  y = -2.546543  z = -0.390615 angstrom
           Maximum rank =  0   Radius =  0.325 angstrom
                   Q00  =   0.207283

H          x = -2.801740  y = -0.161913  z = -2.518918 angstrom
           Maximum rank =  0   Radius =  0.325 angstrom
                   Q00  =   0.136210

C          x =  1.270076  y =  0.541457  z =  1.498385 angstrom
           Maximum rank =  0   Radius =  0.650 angstrom
                   Q00  =   0.102841

C          x =  2.416076  y =  0.582457  z =  0.487385 angstrom
           Maximum rank =  0   Radius =  0.650 angstrom
                   Q00  =  -0.259453

O          x =  1.206076  y =  1.728457  z =  2.270385 angstrom
           Maximum rank =  0   Radius =  0.650 angstrom
                   Q00  =  -0.592788

H          x =  0.322076  y =  0.431457  z =  0.975385 angstrom
           Maximum rank =  0   Radius =  0.325 angstrom
                   Q00  =   0.101276

H          x =  1.393076  y = -0.316543  z =  2.158385 angstrom
           Maximum rank =  0   Radius =  0.325 angstrom
                   Q00  =   0.010946

H          x =  2.198076  y = -0.160543  z = -0.281615 angstrom
           Maximum rank =  0   Radius =  0.325 angstrom
                   Q00  =   0.098500

H          x =  2.053076  y =  1.843457  z =  2.745385 angstrom
           Maximum rank =  0   Radius =  0.325 angstrom
                   Q00  =   0.373766

H          x =  3.370119  y =  0.350367  z =  0.983306 angstrom
           Maximum rank =  0   Radius =  0.325 angstrom
                   Q00  =   0.056014

H          x =  2.463204  y =  1.572147  z =  0.009580 angstrom
           Maximum rank =  0   Radius =  0.325 angstrom
                   Q00  =   0.097556

Total multipoles referred to origin at
           x =   0.000000,  y =    0.000000,  z =    0.000000 angstrom
                   Q00  =  -0.000000

Finished at 7:15:51 on 27 Apr 2020

  DMA results are available in the Python driver through the
	  variable('DMA DISTRIBUTED MULTIPOLES')
  and
	  variable('DMA TOTAL MULTIPOLES')
  commands.

    Psi4 stopped on: Monday, 27 April 2020 07:15AM
    Psi4 wall time for execution: 0:00:53.09

*** Psi4 exiting successfully. Buy a developer a beer!
