                               Psi4 1.3.2 release

  ==> Input File <==

--------------------------------------------------------------------------
import numpy as np
set {scf_type pk
basis cc-pvdz
d_convergence 10
gdma_switch   0
gdma_limit    0
gdma_origin   [ 0.0,  0.0,  0.0 ]
}
molecule test {
    units Angstrom
    -1 1
    --
    -1 1
    C                1.427010453613522     0.327556153831675    -2.202574030344406
    C                1.071010453613521     1.431556153831675    -3.191574030344406
    H                0.908010453613521    -0.596443846168325    -2.460574030344406
    H                2.503010453613522     0.151556153831675    -2.209574030344406
    H                1.134010453613521     0.674556153831675    -1.225574030344406
    H                1.622010453613521     2.334556153831675    -2.922574030344407
    H               -0.005879546386479     1.649666153831675    -3.139324030344406
    H                1.383050453613522     1.133966153831675    -4.203534030344406
    C               -0.735989546386479    -1.112443846168325     0.354425969655594
    C               -2.201989546386478    -0.742443846168325     0.149425969655594
    C               -0.053989546386479    -0.226443846168325     1.394425969655594
    O               -0.554989546386479    -0.151443846168325     2.537425969655594
    O                0.988010453613521     0.384556153831675     1.074425969655594
    H               -0.682989546386479    -2.149443846168325     0.690425969655594
    H               -0.217989546386479    -1.057443846168325    -0.596574030344406
    H               -2.706989546386478    -0.992443846168325     1.065425969655594
    H               -2.635589546386479    -1.349483846168325    -0.658964030344406
    H               -2.291659546386479     0.337906153831675    -0.037144030344406

}
e, wfn = energy('scf', return_wfn=True)
gdma(wfn)
dmavals = variable('DMA DISTRIBUTED MULTIPOLES')
charges = np.array(dmavals)
print(charges)
np.save('SSI-127ALA-177ASP-1-dimer.npy', np.array(charges))--------------------------------------------------------------------------

*** tstart() called on ds3
*** at Tue Apr 28 10:35:30 2020

   => Loading Basis Set <=

    Name: CC-PVDZ
    Role: ORBITAL
    Keyword: BASIS
    atoms 1-2, 9-11  entry C          line   138 file /theoryfs2/ds/metcalf/miniconda2/envs/tf2gpu/share/psi4/basis/cc-pvdz.gbs
    atoms 3-8, 14-18 entry H          line    22 file /theoryfs2/ds/metcalf/miniconda2/envs/tf2gpu/share/psi4/basis/cc-pvdz.gbs
    atoms 12-13      entry O          line   198 file /theoryfs2/ds/metcalf/miniconda2/envs/tf2gpu/share/psi4/basis/cc-pvdz.gbs

         ---------------------------------------------------------
                                   SCF
               by Justin Turney, Rob Parrish, Andy Simmonett
                          and Daniel G. A. Smith
                              RHF Reference
                        1 Threads,    500 MiB Core
         ---------------------------------------------------------

  ==> Geometry <==

    Molecular point group: c1
    Full point group: C1

    Geometry (in Angstrom), charge = -1, multiplicity = 1:

       Center              X                  Y                   Z               Mass
    ------------   -----------------  -----------------  -----------------  -----------------
         C            1.427010453614     0.327556153832    -2.202574030344    12.000000000000
         C            1.071010453614     1.431556153832    -3.191574030344    12.000000000000
         H            0.908010453614    -0.596443846168    -2.460574030344     1.007825032230
         H            2.503010453614     0.151556153832    -2.209574030344     1.007825032230
         H            1.134010453614     0.674556153832    -1.225574030344     1.007825032230
         H            1.622010453614     2.334556153832    -2.922574030344     1.007825032230
         H           -0.005879546386     1.649666153832    -3.139324030344     1.007825032230
         H            1.383050453614     1.133966153832    -4.203534030344     1.007825032230
         C           -0.735989546386    -1.112443846168     0.354425969656    12.000000000000
         C           -2.201989546386    -0.742443846168     0.149425969656    12.000000000000
         C           -0.053989546386    -0.226443846168     1.394425969656    12.000000000000
         O           -0.554989546386    -0.151443846168     2.537425969656    15.994914619570
         O            0.988010453614     0.384556153832     1.074425969656    15.994914619570
         H           -0.682989546386    -2.149443846168     0.690425969656     1.007825032230
         H           -0.217989546386    -1.057443846168    -0.596574030344     1.007825032230
         H           -2.706989546386    -0.992443846168     1.065425969656     1.007825032230
         H           -2.635589546386    -1.349483846168    -0.658964030344     1.007825032230
         H           -2.291659546386     0.337906153832    -0.037144030344     1.007825032230

  Running in c1 symmetry.

  Rotational constants: A =      0.11547  B =      0.03483  C =      0.02908 [cm^-1]
  Rotational constants: A =   3461.56054  B =   1044.30997  C =    871.89778 [MHz]
  Nuclear repulsion =  294.999443398988547

  Charge       = -1
  Multiplicity = 1
  Electrons    = 58
  Nalpha       = 29
  Nbeta        = 29

  ==> Algorithm <==

  SCF Algorithm Type is PK.
  DIIS enabled.
  MOM disabled.
  Fractional occupation disabled.
  Guess Type is SAD.
  Energy threshold   = 1.00e-06
  Density threshold  = 1.00e-10
  Integral threshold = 0.00e+00

  ==> Primary Basis <==

  Basis Set: CC-PVDZ
    Blend: CC-PVDZ
    Number of shells: 75
    Number of basis function: 153
    Number of Cartesian functions: 160
    Spherical Harmonics?: true
    Max angular momentum: 2

  ==> Pre-Iterations <==

   -------------------------------------------------------
    Irrep   Nso     Nmo     Nalpha   Nbeta   Ndocc  Nsocc
   -------------------------------------------------------
     A        153     153       0       0       0       0
   -------------------------------------------------------
    Total     153     153      29      29      29       0
   -------------------------------------------------------

  ==> Integral Setup <==

  Using integral reordering PK algorithm.
  Sizing the integral batches needed.
  Building batch lookup table.
   Calculation information:
      Number of atoms:                  18
      Number of AO shells:              75
      Number of primitives:            209
      Number of atomic orbitals:       160
      Number of basis functions:       153

      Integral cutoff                 1.00e-12
      Number of threads:                 1

	Batch   1 pq = [       0,    9405] index = [             0,44231715] size =     44231715
	Batch   2 pq = [    9405,   11781] index = [      44231715,69401871] size =     25170156
  Task number: 7
  Buffer size: 11059200
  Buffer per thread: 2
  We computed 3638317 shell quartets total.
  Whereas there are 4062675 unique shell quartets.

  ==> DiskJK: Disk-Based J/K Matrices <==

    J tasked:                  Yes
    K tasked:                  Yes
    wK tasked:                  No
    Memory [MiB]:              375
    Schwarz Cutoff:          1E-12

    OpenMP threads:              1

  Minimum eigenvalue in the overlap matrix is 4.3844849597E-03.
  Using Symmetric Orthogonalization.

  SCF Guess: Superposition of Atomic Densities via on-the-fly atomic UHF.

  ==> Iterations <==

                        Total Energy        Delta E     RMS |[F,P]|

   @RHF iter SAD:  -343.92049179326551   -3.43920e+02   0.00000e+00
   @RHF iter   1:  -345.22197440866955   -1.30148e+00   4.89214e-03 DIIS
   @RHF iter   2:  -345.44381629653111   -2.21842e-01   2.68567e-03 DIIS
   @RHF iter   3:  -345.50729247389950   -6.34762e-02   4.24702e-04 DIIS
   @RHF iter   4:  -345.51026648797011   -2.97401e-03   1.66661e-04 DIIS
   @RHF iter   5:  -345.51070117989013   -4.34692e-04   2.45013e-05 DIIS
   @RHF iter   6:  -345.51071488671028   -1.37068e-05   5.15651e-06 DIIS
   @RHF iter   7:  -345.51071548874427   -6.02034e-07   1.56986e-06 DIIS
   @RHF iter   8:  -345.51071553867797   -4.99337e-08   5.29323e-07 DIIS
   @RHF iter   9:  -345.51071554401818   -5.34021e-09   2.24317e-07 DIIS
   @RHF iter  10:  -345.51071554513572   -1.11754e-09   8.54557e-08 DIIS
   @RHF iter  11:  -345.51071554536412   -2.28397e-10   2.41710e-08 DIIS
   @RHF iter  12:  -345.51071554539112   -2.70006e-11   8.82377e-09 DIIS
   @RHF iter  13:  -345.51071554539556   -4.43379e-12   2.92126e-09 DIIS
   @RHF iter  14:  -345.51071554539573   -1.70530e-13   8.82999e-10 DIIS
   @RHF iter  15:  -345.51071554539573    0.00000e+00   3.24735e-10 DIIS
   @RHF iter  16:  -345.51071554539539    3.41061e-13   1.28937e-10 DIIS
   @RHF iter  17:  -345.51071554539749   -2.10321e-12   5.17319e-11 DIIS
  Energy and wave function converged.

  ==> Post-Iterations <==

    Orbital Energies [Eh]
    ---------------------

    Doubly Occupied:

       1A    -20.263829     2A    -20.259604     3A    -11.115230
       4A    -11.109414     5A    -11.081352     6A    -11.075965
       7A    -11.050459     8A     -1.152556     9A     -1.037852
      10A     -0.901106    11A     -0.875143    12A     -0.715613
      13A     -0.701629    14A     -0.511865    15A     -0.484627
      16A     -0.481222    17A     -0.458388    18A     -0.434631
      19A     -0.389420    20A     -0.379738    21A     -0.373452
      22A     -0.368557    23A     -0.365738    24A     -0.356314
      25A     -0.318247    26A     -0.302296    27A     -0.182213
      28A     -0.173030    29A     -0.162896

    Virtual:

      30A      0.291372    31A      0.327246    32A      0.347518
      33A      0.363177    34A      0.369110    35A      0.379116
      36A      0.386810    37A      0.407551    38A      0.418865
      39A      0.457022    40A      0.474144    41A      0.498839
      42A      0.527385    43A      0.552163    44A      0.608939
      45A      0.685293    46A      0.708038    47A      0.711739
      48A      0.729884    49A      0.740302    50A      0.772627
      51A      0.788351    52A      0.804057    53A      0.835166
      54A      0.920697    55A      0.959883    56A      0.975209
      57A      0.984047    58A      0.994643    59A      1.000214
      60A      1.007824    61A      1.012101    62A      1.022825
      63A      1.029920    64A      1.042129    65A      1.045661
      66A      1.054083    67A      1.066716    68A      1.077104
      69A      1.088670    70A      1.114820    71A      1.148808
      72A      1.167710    73A      1.236653    74A      1.243408
      75A      1.300143    76A      1.306679    77A      1.357613
      78A      1.370505    79A      1.416112    80A      1.477334
      81A      1.547332    82A      1.590766    83A      1.594097
      84A      1.600066    85A      1.619519    86A      1.634022
      87A      1.658013    88A      1.668665    89A      1.683747
      90A      1.725312    91A      1.779779    92A      1.786480
      93A      1.818127    94A      1.827558    95A      1.867704
      96A      1.959282    97A      1.979647    98A      1.999793
      99A      2.019064   100A      2.028516   101A      2.043655
     102A      2.059351   103A      2.067559   104A      2.075809
     105A      2.079679   106A      2.100285   107A      2.106451
     108A      2.126237   109A      2.130359   110A      2.148577
     111A      2.167232   112A      2.195694   113A      2.224239
     114A      2.242002   115A      2.251347   116A      2.299210
     117A      2.358611   118A      2.370086   119A      2.415012
     120A      2.432501   121A      2.448728   122A      2.491314
     123A      2.520641   124A      2.578680   125A      2.610011
     126A      2.635752   127A      2.669940   128A      2.693903
     129A      2.713780   130A      2.724928   131A      2.761784
     132A      2.838685   133A      2.869644   134A      2.917771
     135A      2.942414   136A      2.961690   137A      2.972893
     138A      2.998813   139A      3.006152   140A      3.043649
     141A      3.092693   142A      3.119345   143A      3.157539
     144A      3.248979   145A      3.287126   146A      3.299882
     147A      3.364720   148A      3.638207   149A      3.791516
     150A      3.822078   151A      4.059477   152A      4.100399
     153A      4.205291

    Final Occupation by Irrep:
              A
    DOCC [    29 ]

  @RHF Final Energy:  -345.51071554539749

   => Energetics <=

    Nuclear Repulsion Energy =            294.9994433989885465
    One-Electron Energy =               -1066.8555408422082564
    Two-Electron Energy =                 426.3453818978222216
    Total Energy =                       -345.5107155453974883

Computation Completed

Properties will be evaluated at   0.000000,   0.000000,   0.000000 [a0]

Properties computed using the SCF density matrix

  Nuclear Dipole Moment: [e a0]
     X:    -0.9270      Y:     0.1295      Z:   -14.6990

  Electronic Dipole Moment: [e a0]
     X:     0.4930      Y:    -0.5385      Z:    11.7545

  Dipole Moment: [e a0]
     X:    -0.4340      Y:    -0.4090      Z:    -2.9445     Total:     3.0043

  Dipole Moment: [D]
     X:    -1.1031      Y:    -1.0395      Z:    -7.4842     Total:     7.6361

*** tstop() called on ds3 at Tue Apr 28 10:36:06 2020
Module time:
	user time   =      25.76 seconds =       0.43 minutes
	system time =      11.16 seconds =       0.19 minutes
	total time  =         36 seconds =       0.60 minutes
Total time:
	user time   =      25.76 seconds =       0.43 minutes
	system time =      11.16 seconds =       0.19 minutes
	total time  =         36 seconds =       0.60 minutes
                                     G D M A

                                 by Anthony Stone

                           version 2.2.06, 22 June 2011

               Distributed Multipoles from Gaussian wavefunctions

Starting at 10:36:6 on 28 Apr 2020

Using SCF density matrix from file ./SSI/SSI-127ALA-177ASP-1-dimer.test.30715.fchk

                         Distributed Multipole Analysis

Standard DMA

Positions and radii in angstrom
Multipole moments in atomic units, ea_0^k for rank k

C          x =  1.427010  y =  0.327556  z = -2.202574 angstrom
           Maximum rank =  0   Radius =  0.650 angstrom
                   Q00  =  -0.151846

C          x =  1.071010  y =  1.431556  z = -3.191574 angstrom
           Maximum rank =  0   Radius =  0.650 angstrom
                   Q00  =  -0.255976

H          x =  0.908010  y = -0.596444  z = -2.460574 angstrom
           Maximum rank =  0   Radius =  0.325 angstrom
                   Q00  =   0.050409

H          x =  2.503010  y =  0.151556  z = -2.209574 angstrom
           Maximum rank =  0   Radius =  0.325 angstrom
                   Q00  =   0.053485

H          x =  1.134010  y =  0.674556  z = -1.225574 angstrom
           Maximum rank =  0   Radius =  0.325 angstrom
                   Q00  =   0.109420

H          x =  1.622010  y =  2.334556  z = -2.922574 angstrom
           Maximum rank =  0   Radius =  0.325 angstrom
                   Q00  =   0.067731

H          x = -0.005880  y =  1.649666  z = -3.139324 angstrom
           Maximum rank =  0   Radius =  0.325 angstrom
                   Q00  =   0.071773

H          x =  1.383050  y =  1.133966  z = -4.203534 angstrom
           Maximum rank =  0   Radius =  0.325 angstrom
                   Q00  =   0.038899

C          x = -0.735990  y = -1.112444  z =  0.354426 angstrom
           Maximum rank =  0   Radius =  0.650 angstrom
                   Q00  =  -0.131917

C          x = -2.201990  y = -0.742444  z =  0.149426 angstrom
           Maximum rank =  0   Radius =  0.650 angstrom
                   Q00  =  -0.206171

C          x = -0.053990  y = -0.226444  z =  1.394426 angstrom
           Maximum rank =  0   Radius =  0.650 angstrom
                   Q00  =   0.970911

O          x = -0.554990  y = -0.151444  z =  2.537426 angstrom
           Maximum rank =  0   Radius =  0.650 angstrom
                   Q00  =  -0.947052

O          x =  0.988010  y =  0.384556  z =  1.074426 angstrom
           Maximum rank =  0   Radius =  0.650 angstrom
                   Q00  =  -0.911832

H          x = -0.682990  y = -2.149444  z =  0.690426 angstrom
           Maximum rank =  0   Radius =  0.325 angstrom
                   Q00  =   0.040101

H          x = -0.217990  y = -1.057444  z = -0.596574 angstrom
           Maximum rank =  0   Radius =  0.325 angstrom
                   Q00  =   0.027581

H          x = -2.706990  y = -0.992444  z =  1.065426 angstrom
           Maximum rank =  0   Radius =  0.325 angstrom
                   Q00  =   0.082696

H          x = -2.635590  y = -1.349484  z = -0.658964 angstrom
           Maximum rank =  0   Radius =  0.325 angstrom
                   Q00  =   0.021708

H          x = -2.291660  y =  0.337906  z = -0.037144 angstrom
           Maximum rank =  0   Radius =  0.325 angstrom
                   Q00  =   0.070082

Total multipoles referred to origin at
           x =   0.000000,  y =    0.000000,  z =    0.000000 angstrom
                   Q00  =  -1.000000

Finished at 10:36:6 on 28 Apr 2020

  DMA results are available in the Python driver through the
	  variable('DMA DISTRIBUTED MULTIPOLES')
  and
	  variable('DMA TOTAL MULTIPOLES')
  commands.

    Psi4 stopped on: Tuesday, 28 April 2020 10:36AM
    Psi4 wall time for execution: 0:00:36.34

*** Psi4 exiting successfully. Buy a developer a beer!
