                               Psi4 1.3.2 release

  ==> Input File <==

--------------------------------------------------------------------------
import numpy as np
set {scf_type pk
basis cc-pvdz
d_convergence 10
gdma_switch   0
gdma_limit    0
gdma_origin   [ 0.0,  0.0,  0.0 ]
}
molecule test {
    units Angstrom
    0 1
    --
    0 1
    C                0.458948457691175     0.300905232111117    -0.700359691513004
    C                0.660948457691175     1.692905232111117    -1.275359691513004
    C               -2.022051542308825     0.663905232111117    -1.905359691513004
    S               -1.287051542308825    -0.051094767888883    -0.424359691513004
    H                0.851948457691175    -0.443094767888883    -1.392359691513004
    H                0.988948457691175     0.223905232111117     0.244640308486996
    H                0.257948457691175     2.443905232111117    -0.596359691513004
    H                0.137948457691175     1.762905232111117    -2.219359691513004
    H               -1.439051542308825     0.385905232111117    -2.786359691513004
    H               -3.018051542308826     0.258905232111117    -2.042359691513004
    H               -2.088051542308826     1.748905232111117    -1.814359691513004
    H                1.697108457691175     1.941495232111117    -1.548449691513004
    C                1.124948457691175    -1.294094767888883     2.718640308486996
    C                2.508948457691174    -1.285094767888883     2.095640308486996
    H                0.988948457691175    -2.169094767888883     3.352640308486996
    H                1.008948457691174    -0.410094767888883     3.340640308486996
    H                0.364948457691175    -1.282094767888883     1.938640308486996
    H                3.239948457691174    -1.303094767888883     2.904640308486997
    H                2.624948457691174    -0.347094767888883     1.560640308486996
    H                2.687328457691174    -2.125433767888882     1.408610308486996

}
e, wfn = energy('scf', return_wfn=True)
gdma(wfn)
dmavals = variable('DMA DISTRIBUTED MULTIPOLES')
charges = np.array(dmavals)
print(charges)
np.save('SSI-157MET-192ILE-1-dimer.npy', np.array(charges))--------------------------------------------------------------------------

*** tstart() called on ds3
*** at Mon Apr 27 23:20:15 2020

   => Loading Basis Set <=

    Name: CC-PVDZ
    Role: ORBITAL
    Keyword: BASIS
    atoms 1-3, 13-14  entry C          line   138 file /theoryfs2/ds/metcalf/miniconda2/envs/tf2gpu/share/psi4/basis/cc-pvdz.gbs
    atoms 4           entry S          line   598 file /theoryfs2/ds/metcalf/miniconda2/envs/tf2gpu/share/psi4/basis/cc-pvdz.gbs
    atoms 5-12, 15-20 entry H          line    22 file /theoryfs2/ds/metcalf/miniconda2/envs/tf2gpu/share/psi4/basis/cc-pvdz.gbs

         ---------------------------------------------------------
                                   SCF
               by Justin Turney, Rob Parrish, Andy Simmonett
                          and Daniel G. A. Smith
                              RHF Reference
                        1 Threads,    500 MiB Core
         ---------------------------------------------------------

  ==> Geometry <==

    Molecular point group: c1
    Full point group: C1

    Geometry (in Angstrom), charge = 0, multiplicity = 1:

       Center              X                  Y                   Z               Mass
    ------------   -----------------  -----------------  -----------------  -----------------
         C            0.458948457691     0.300905232111    -0.700359691513    12.000000000000
         C            0.660948457691     1.692905232111    -1.275359691513    12.000000000000
         C           -2.022051542309     0.663905232111    -1.905359691513    12.000000000000
         S           -1.287051542309    -0.051094767889    -0.424359691513    31.972071174400
         H            0.851948457691    -0.443094767889    -1.392359691513     1.007825032230
         H            0.988948457691     0.223905232111     0.244640308487     1.007825032230
         H            0.257948457691     2.443905232111    -0.596359691513     1.007825032230
         H            0.137948457691     1.762905232111    -2.219359691513     1.007825032230
         H           -1.439051542309     0.385905232111    -2.786359691513     1.007825032230
         H           -3.018051542309     0.258905232111    -2.042359691513     1.007825032230
         H           -2.088051542309     1.748905232111    -1.814359691513     1.007825032230
         H            1.697108457691     1.941495232111    -1.548449691513     1.007825032230
         C            1.124948457691    -1.294094767889     2.718640308487    12.000000000000
         C            2.508948457691    -1.285094767889     2.095640308487    12.000000000000
         H            0.988948457691    -2.169094767889     3.352640308487     1.007825032230
         H            1.008948457691    -0.410094767889     3.340640308487     1.007825032230
         H            0.364948457691    -1.282094767889     1.938640308487     1.007825032230
         H            3.239948457691    -1.303094767889     2.904640308487     1.007825032230
         H            2.624948457691    -0.347094767889     1.560640308487     1.007825032230
         H            2.687328457691    -2.125433767889     1.408610308487     1.007825032230

  Running in c1 symmetry.

  Rotational constants: A =      0.13268  B =      0.03196  C =      0.02707 [cm^-1]
  Rotational constants: A =   3977.55869  B =    958.21114  C =    811.58715 [MHz]
  Nuclear repulsion =  301.759284296469048

  Charge       = 0
  Multiplicity = 1
  Electrons    = 60
  Nalpha       = 30
  Nbeta        = 30

  ==> Algorithm <==

  SCF Algorithm Type is PK.
  DIIS enabled.
  MOM disabled.
  Fractional occupation disabled.
  Guess Type is SAD.
  Energy threshold   = 1.00e-06
  Density threshold  = 1.00e-10
  Integral threshold = 0.00e+00

  ==> Primary Basis <==

  Basis Set: CC-PVDZ
    Blend: CC-PVDZ
    Number of shells: 80
    Number of basis function: 158
    Number of Cartesian functions: 164
    Spherical Harmonics?: true
    Max angular momentum: 2

  ==> Pre-Iterations <==

   -------------------------------------------------------
    Irrep   Nso     Nmo     Nalpha   Nbeta   Ndocc  Nsocc
   -------------------------------------------------------
     A        158     158       0       0       0       0
   -------------------------------------------------------
    Total     158     158      30      30      30       0
   -------------------------------------------------------

  ==> Integral Setup <==

  Using integral reordering PK algorithm.
  Sizing the integral batches needed.
  Building batch lookup table.
   Calculation information:
      Number of atoms:                  20
      Number of AO shells:              80
      Number of primitives:            230
      Number of atomic orbitals:       164
      Number of basis functions:       158

      Integral cutoff                 1.00e-12
      Number of threads:                 1

	Batch   1 pq = [       0,    9405] index = [             0,44231715] size =     44231715
	Batch   2 pq = [    9405,   12561] index = [      44231715,78895641] size =     34663926
  Task number: 8
  Buffer size: 11059200
  Buffer per thread: 2
  We computed 4554523 shell quartets total.
  Whereas there are 5250420 unique shell quartets.

  ==> DiskJK: Disk-Based J/K Matrices <==

    J tasked:                  Yes
    K tasked:                  Yes
    wK tasked:                  No
    Memory [MiB]:              375
    Schwarz Cutoff:          1E-12

    OpenMP threads:              1

  Minimum eigenvalue in the overlap matrix is 5.7383284918E-03.
  Using Symmetric Orthogonalization.

  SCF Guess: Superposition of Atomic Densities via on-the-fly atomic UHF.

  ==> Iterations <==

                        Total Energy        Delta E     RMS |[F,P]|

   @RHF iter SAD:  -594.03631120615637   -5.94036e+02   0.00000e+00
   @RHF iter   1:  -594.84069582418499   -8.04385e-01   3.19917e-03 DIIS
   @RHF iter   2:  -594.99314839788713   -1.52453e-01   1.30201e-03 DIIS
   @RHF iter   3:  -595.01655118798931   -2.34028e-02   3.05328e-04 DIIS
   @RHF iter   4:  -595.01890872933154   -2.35754e-03   5.64335e-05 DIIS
   @RHF iter   5:  -595.01897178973809   -6.30604e-05   1.62172e-05 DIIS
   @RHF iter   6:  -595.01897681511650   -5.02538e-06   3.50453e-06 DIIS
   @RHF iter   7:  -595.01897710773153   -2.92615e-07   7.81259e-07 DIIS
   @RHF iter   8:  -595.01897712623554   -1.85040e-08   2.79518e-07 DIIS
   @RHF iter   9:  -595.01897712852679   -2.29124e-09   8.49364e-08 DIIS
   @RHF iter  10:  -595.01897712879122   -2.64436e-10   2.25610e-08 DIIS
   @RHF iter  11:  -595.01897712881248   -2.12594e-11   5.23793e-09 DIIS
   @RHF iter  12:  -595.01897712881589   -3.41061e-12   1.75226e-09 DIIS
   @RHF iter  13:  -595.01897712881294    2.95586e-12   6.51829e-10 DIIS
   @RHF iter  14:  -595.01897712881691   -3.97904e-12   1.91059e-10 DIIS
   @RHF iter  15:  -595.01897712881384    3.06954e-12   5.79036e-11 DIIS
  Energy and wave function converged.

  ==> Post-Iterations <==

    Orbital Energies [Eh]
    ---------------------

    Doubly Occupied:

       1A    -91.931806     2A    -11.255117     3A    -11.254115
       4A    -11.227225     5A    -11.217674     6A    -11.213440
       7A     -8.936063     8A     -6.618108     9A     -6.616566
      10A     -6.614334    11A     -1.085776    12A     -1.022116
      13A     -0.991536    14A     -0.893259    15A     -0.836367
      16A     -0.782959    17A     -0.639596    18A     -0.612294
      19A     -0.601548    20A     -0.599071    21A     -0.580063
      22A     -0.553261    23A     -0.532682    24A     -0.512036
      25A     -0.502785    26A     -0.487305    27A     -0.484148
      28A     -0.476260    29A     -0.418554    30A     -0.329798

    Virtual:

      31A      0.170084    32A      0.175599    33A      0.212917
      34A      0.220711    35A      0.226684    36A      0.239076
      37A      0.241490    38A      0.248895    39A      0.264037
      40A      0.270654    41A      0.272007    42A      0.279992
      43A      0.290796    44A      0.311854    45A      0.335620
      46A      0.366169    47A      0.389356    48A      0.402133
      49A      0.544091    50A      0.561242    51A      0.590444
      52A      0.595169    53A      0.598904    54A      0.604691
      55A      0.619475    56A      0.635634    57A      0.647664
      58A      0.656494    59A      0.690520    60A      0.733460
      61A      0.738036    62A      0.775743    63A      0.815062
      64A      0.832206    65A      0.838852    66A      0.847858
      67A      0.862414    68A      0.867830    69A      0.877895
      70A      0.884540    71A      0.891065    72A      0.900183
      73A      0.901820    74A      0.904979    75A      0.922305
      76A      0.925711    77A      0.932930    78A      0.938686
      79A      0.952842    80A      0.971904    81A      0.985662
      82A      1.020153    83A      1.057091    84A      1.080969
      85A      1.125682    86A      1.131595    87A      1.201230
      88A      1.230522    89A      1.262659    90A      1.287139
      91A      1.315792    92A      1.341637    93A      1.364494
      94A      1.437043    95A      1.464539    96A      1.478584
      97A      1.494213    98A      1.534032    99A      1.580599
     100A      1.603771   101A      1.641773   102A      1.687588
     103A      1.698366   104A      1.705493   105A      1.770576
     106A      1.841950   107A      1.867989   108A      1.871638
     109A      1.879458   110A      1.888424   111A      1.891677
     112A      1.908020   113A      1.919872   114A      1.941117
     115A      1.946075   116A      1.947833   117A      1.960847
     118A      1.965197   119A      1.973630   120A      1.987484
     121A      2.004131   122A      2.011896   123A      2.021757
     124A      2.040414   125A      2.048597   126A      2.073920
     127A      2.113681   128A      2.135488   129A      2.145676
     130A      2.218537   131A      2.234312   132A      2.281301
     133A      2.311166   134A      2.320656   135A      2.351009
     136A      2.430726   137A      2.452755   138A      2.460478
     139A      2.468486   140A      2.483902   141A      2.548412
     142A      2.577397   143A      2.580406   144A      2.587084
     145A      2.752588   146A      2.770415   147A      2.777373
     148A      2.786105   149A      2.805205   150A      2.820210
     151A      2.822407   152A      2.857715   153A      2.873229
     154A      2.886383   155A      2.904809   156A      2.963322
     157A      2.981913   158A      3.025017

    Final Occupation by Irrep:
              A
    DOCC [    30 ]

  @RHF Final Energy:  -595.01897712881384

   => Energetics <=

    Nuclear Repulsion Energy =            301.7592842964690476
    One-Electron Energy =               -1413.9047957499665245
    Two-Electron Energy =                 517.1265343246835755
    Total Energy =                       -595.0189771288138445

Computation Completed

Properties will be evaluated at   0.000000,   0.000000,   0.000000 [a0]

Properties computed using the SCF density matrix

  Nuclear Dipole Moment: [e a0]
     X:     7.7506      Y:     0.6417      Z:     2.1926

  Electronic Dipole Moment: [e a0]
     X:    -7.4540      Y:    -0.3033      Z:    -2.7143

  Dipole Moment: [e a0]
     X:     0.2966      Y:     0.3383      Z:    -0.5216     Total:     0.6889

  Dipole Moment: [D]
     X:     0.7539      Y:     0.8600      Z:    -1.3259     Total:     1.7510

*** tstop() called on ds3 at Mon Apr 27 23:21:13 2020
Module time:
	user time   =      38.08 seconds =       0.63 minutes
	system time =      13.30 seconds =       0.22 minutes
	total time  =         58 seconds =       0.97 minutes
Total time:
	user time   =      38.08 seconds =       0.63 minutes
	system time =      13.30 seconds =       0.22 minutes
	total time  =         58 seconds =       0.97 minutes
                                     G D M A

                                 by Anthony Stone

                           version 2.2.06, 22 June 2011

               Distributed Multipoles from Gaussian wavefunctions

Starting at 23:21:13 on 27 Apr 2020

Using SCF density matrix from file ./SSI/SSI-157MET-192ILE-1-dimer.test.2444.fchk

                         Distributed Multipole Analysis

Standard DMA

Positions and radii in angstrom
Multipole moments in atomic units, ea_0^k for rank k

C          x =  0.458948  y =  0.300905  z = -0.700360 angstrom
           Maximum rank =  0   Radius =  0.650 angstrom
                   Q00  =  -0.198897

C          x =  0.660948  y =  1.692905  z = -1.275360 angstrom
           Maximum rank =  0   Radius =  0.650 angstrom
                   Q00  =  -0.249321

C          x = -2.022052  y =  0.663905  z = -1.905360 angstrom
           Maximum rank =  0   Radius =  0.650 angstrom
                   Q00  =  -0.355317

S          x = -1.287052  y = -0.051095  z = -0.424360 angstrom
           Maximum rank =  0   Radius =  0.650 angstrom
                   Q00  =   0.098084

H          x =  0.851948  y = -0.443095  z = -1.392360 angstrom
           Maximum rank =  0   Radius =  0.325 angstrom
                   Q00  =   0.057858

H          x =  0.988948  y =  0.223905  z =  0.244640 angstrom
           Maximum rank =  0   Radius =  0.325 angstrom
                   Q00  =   0.095444

H          x =  0.257948  y =  2.443905  z = -0.596360 angstrom
           Maximum rank =  0   Radius =  0.325 angstrom
                   Q00  =   0.086561

H          x =  0.137948  y =  1.762905  z = -2.219360 angstrom
           Maximum rank =  0   Radius =  0.325 angstrom
                   Q00  =   0.077864

H          x = -1.439052  y =  0.385905  z = -2.786360 angstrom
           Maximum rank =  0   Radius =  0.325 angstrom
                   Q00  =   0.084867

H          x = -3.018052  y =  0.258905  z = -2.042360 angstrom
           Maximum rank =  0   Radius =  0.325 angstrom
                   Q00  =   0.122118

H          x = -2.088052  y =  1.748905  z = -1.814360 angstrom
           Maximum rank =  0   Radius =  0.325 angstrom
                   Q00  =   0.090315

H          x =  1.697108  y =  1.941495  z = -1.548450 angstrom
           Maximum rank =  0   Radius =  0.325 angstrom
                   Q00  =   0.090710

C          x =  1.124948  y = -1.294095  z =  2.718640 angstrom
           Maximum rank =  0   Radius =  0.650 angstrom
                   Q00  =  -0.232951

C          x =  2.508948  y = -1.285095  z =  2.095640 angstrom
           Maximum rank =  0   Radius =  0.650 angstrom
                   Q00  =  -0.237052

H          x =  0.988948  y = -2.169095  z =  3.352640 angstrom
           Maximum rank =  0   Radius =  0.325 angstrom
                   Q00  =   0.081486

H          x =  1.008948  y = -0.410095  z =  3.340640 angstrom
           Maximum rank =  0   Radius =  0.325 angstrom
                   Q00  =   0.077457

H          x =  0.364948  y = -1.282095  z =  1.938640 angstrom
           Maximum rank =  0   Radius =  0.325 angstrom
                   Q00  =   0.082160

H          x =  3.239948  y = -1.303095  z =  2.904640 angstrom
           Maximum rank =  0   Radius =  0.325 angstrom
                   Q00  =   0.078597

H          x =  2.624948  y = -0.347095  z =  1.560640 angstrom
           Maximum rank =  0   Radius =  0.325 angstrom
                   Q00  =   0.068095

H          x =  2.687328  y = -2.125434  z =  1.408610 angstrom
           Maximum rank =  0   Radius =  0.325 angstrom
                   Q00  =   0.081924

Total multipoles referred to origin at
           x =   0.000000,  y =    0.000000,  z =    0.000000 angstrom
                   Q00  =  -0.000000

Finished at 23:21:13 on 27 Apr 2020

  DMA results are available in the Python driver through the
	  variable('DMA DISTRIBUTED MULTIPOLES')
  and
	  variable('DMA TOTAL MULTIPOLES')
  commands.

    Psi4 stopped on: Monday, 27 April 2020 11:21PM
    Psi4 wall time for execution: 0:00:57.56

*** Psi4 exiting successfully. Buy a developer a beer!
