                               Psi4 1.3.2 release

  ==> Input File <==

--------------------------------------------------------------------------
import numpy as np
set {scf_type pk
basis cc-pvdz
d_convergence 10
gdma_switch   0
gdma_limit    0
gdma_origin   [ 0.0,  0.0,  0.0 ]
}
molecule test {
    units Angstrom
    0 1
    --
    0 1
    C               -0.038564720067302     0.123219662250721     1.591500414372860
    C               -0.168564720067302    -0.391780337749279     3.009500414372861
    C                0.665435279932698    -0.876780337749279     0.690500414372860
    O                0.166435279932698    -1.975780337749279     0.457500414372860
    N                1.829435279932698    -0.506780337749279     0.172500414372860
    H               -1.067564720067302     0.201219662250721     1.264500414372860
    H                0.451435279932697     1.098219662250721     1.574500414372860
    H                0.835435279932698    -0.560780337749279     3.399500414372860
    H               -0.684564720067303    -1.353780337749279     2.997500414372860
    H                2.319435279932697    -1.166780337749279    -0.416499585627140
    H                2.219435279932698     0.391219662250721     0.398500414372860
    H               -0.700554720067303     0.288299662250721     3.691022414372860
    C               -1.179564720067303     0.959219662250721    -1.467499585627140
    C                0.098435279932698     0.470219662250721    -2.081499585627140
    C               -1.468564720067302     2.201219662250721    -2.264499585627139
    H               -1.163564720067302     1.177219662250721    -0.421499585627140
    H               -1.869564720067302     0.244219662250721    -1.799499585627140
    H                0.924435279932697     1.080219662250721    -1.758499585627140
    H                0.265435279932697    -0.586780337749279    -1.890499585627140
    H               -2.531564720067303     2.386219662250721    -2.169499585627140
    H               -0.081604720067302     0.605979662250721    -3.158139585627139
    H               -1.140844720067302     1.920099662250721    -3.276217585627140
    H               -0.934244720067303     3.081400662250721    -1.877479585627140

}
e, wfn = energy('scf', return_wfn=True)
gdma(wfn)
dmavals = variable('DMA DISTRIBUTED MULTIPOLES')
charges = np.array(dmavals)
print(charges)
np.save('SSI-062GLN-171PRO-1-dimer.npy', np.array(charges))--------------------------------------------------------------------------

*** tstart() called on ds3
*** at Tue Apr 28 09:22:30 2020

   => Loading Basis Set <=

    Name: CC-PVDZ
    Role: ORBITAL
    Keyword: BASIS
    atoms 1-3, 13-15  entry C          line   138 file /theoryfs2/ds/metcalf/miniconda2/envs/tf2gpu/share/psi4/basis/cc-pvdz.gbs
    atoms 4           entry O          line   198 file /theoryfs2/ds/metcalf/miniconda2/envs/tf2gpu/share/psi4/basis/cc-pvdz.gbs
    atoms 5           entry N          line   168 file /theoryfs2/ds/metcalf/miniconda2/envs/tf2gpu/share/psi4/basis/cc-pvdz.gbs
    atoms 6-12, 16-23 entry H          line    22 file /theoryfs2/ds/metcalf/miniconda2/envs/tf2gpu/share/psi4/basis/cc-pvdz.gbs

         ---------------------------------------------------------
                                   SCF
               by Justin Turney, Rob Parrish, Andy Simmonett
                          and Daniel G. A. Smith
                              RHF Reference
                        1 Threads,    500 MiB Core
         ---------------------------------------------------------

  ==> Geometry <==

    Molecular point group: c1
    Full point group: C1

    Geometry (in Angstrom), charge = 0, multiplicity = 1:

       Center              X                  Y                   Z               Mass
    ------------   -----------------  -----------------  -----------------  -----------------
         C           -0.038564720067     0.123219662251     1.591500414373    12.000000000000
         C           -0.168564720067    -0.391780337749     3.009500414373    12.000000000000
         C            0.665435279933    -0.876780337749     0.690500414373    12.000000000000
         O            0.166435279933    -1.975780337749     0.457500414373    15.994914619570
         N            1.829435279933    -0.506780337749     0.172500414373    14.003074004430
         H           -1.067564720067     0.201219662251     1.264500414373     1.007825032230
         H            0.451435279933     1.098219662251     1.574500414373     1.007825032230
         H            0.835435279933    -0.560780337749     3.399500414373     1.007825032230
         H           -0.684564720067    -1.353780337749     2.997500414373     1.007825032230
         H            2.319435279933    -1.166780337749    -0.416499585627     1.007825032230
         H            2.219435279933     0.391219662251     0.398500414373     1.007825032230
         H           -0.700554720067     0.288299662251     3.691022414373     1.007825032230
         C           -1.179564720067     0.959219662251    -1.467499585627    12.000000000000
         C            0.098435279933     0.470219662251    -2.081499585627    12.000000000000
         C           -1.468564720067     2.201219662251    -2.264499585627    12.000000000000
         H           -1.163564720067     1.177219662251    -0.421499585627     1.007825032230
         H           -1.869564720067     0.244219662251    -1.799499585627     1.007825032230
         H            0.924435279933     1.080219662251    -1.758499585627     1.007825032230
         H            0.265435279933    -0.586780337749    -1.890499585627     1.007825032230
         H           -2.531564720067     2.386219662251    -2.169499585627     1.007825032230
         H           -0.081604720067     0.605979662251    -3.158139585627     1.007825032230
         H           -1.140844720067     1.920099662251    -3.276217585627     1.007825032230
         H           -0.934244720067     3.081400662251    -1.877479585627     1.007825032230

  Running in c1 symmetry.

  Rotational constants: A =      0.08988  B =      0.03179  C =      0.02743 [cm^-1]
  Rotational constants: A =   2694.48108  B =    953.08487  C =    822.23539 [MHz]
  Nuclear repulsion =  398.684996229939145

  Charge       = 0
  Multiplicity = 1
  Electrons    = 66
  Nalpha       = 33
  Nbeta        = 33

  ==> Algorithm <==

  SCF Algorithm Type is PK.
  DIIS enabled.
  MOM disabled.
  Fractional occupation disabled.
  Guess Type is SAD.
  Energy threshold   = 1.00e-06
  Density threshold  = 1.00e-10
  Integral threshold = 0.00e+00

  ==> Primary Basis <==

  Basis Set: CC-PVDZ
    Blend: CC-PVDZ
    Number of shells: 93
    Number of basis function: 187
    Number of Cartesian functions: 195
    Spherical Harmonics?: true
    Max angular momentum: 2

  ==> Pre-Iterations <==

   -------------------------------------------------------
    Irrep   Nso     Nmo     Nalpha   Nbeta   Ndocc  Nsocc
   -------------------------------------------------------
     A        187     187       0       0       0       0
   -------------------------------------------------------
    Total     187     187      33      33      33       0
   -------------------------------------------------------

  ==> Integral Setup <==

  Using integral reordering PK algorithm.
  Sizing the integral batches needed.
  Building batch lookup table.
   Calculation information:
      Number of atoms:                  23
      Number of AO shells:              93
      Number of primitives:            251
      Number of atomic orbitals:       195
      Number of basis functions:       187

      Integral cutoff                 1.00e-12
      Number of threads:                 1

	Batch   1 pq = [       0,    9405] index = [             0,44231715] size =     44231715
	Batch   2 pq = [    9405,   13301] index = [      44231715,88464951] size =     44233236
	Batch   3 pq = [   13301,   16290] index = [      88464951,132690195] size =     44225244
	Batch   4 pq = [   16290,   17578] index = [     132690195,154501831] size =     21811636
  Task number: 14
  Buffer size: 11059200
  Buffer per thread: 2
  We computed 9132267 shell quartets total.
  Whereas there are 9555006 unique shell quartets.

  ==> DiskJK: Disk-Based J/K Matrices <==

    J tasked:                  Yes
    K tasked:                  Yes
    wK tasked:                  No
    Memory [MiB]:              375
    Schwarz Cutoff:          1E-12

    OpenMP threads:              1

  Minimum eigenvalue in the overlap matrix is 3.3447010747E-03.
  Using Symmetric Orthogonalization.

  SCF Guess: Superposition of Atomic Densities via on-the-fly atomic UHF.

  ==> Iterations <==

                        Total Energy        Delta E     RMS |[F,P]|

   @RHF iter SAD:  -364.37020405876183   -3.64370e+02   0.00000e+00
   @RHF iter   1:  -364.96609296973259   -5.95889e-01   3.82324e-03 DIIS
   @RHF iter   2:  -365.19669283896258   -2.30600e-01   2.03480e-03 DIIS
   @RHF iter   3:  -365.25567274341614   -5.89799e-02   4.47405e-04 DIIS
   @RHF iter   4:  -365.25979802456919   -4.12528e-03   1.91612e-04 DIIS
   @RHF iter   5:  -365.26053145990204   -7.33435e-04   2.73795e-05 DIIS
   @RHF iter   6:  -365.26056623796046   -3.47781e-05   1.07653e-05 DIIS
   @RHF iter   7:  -365.26057110489643   -4.86694e-06   4.39620e-06 DIIS
   @RHF iter   8:  -365.26057207852853   -9.73632e-07   1.63977e-06 DIIS
   @RHF iter   9:  -365.26057222023468   -1.41706e-07   4.19609e-07 DIIS
   @RHF iter  10:  -365.26057222753332   -7.29864e-09   1.36995e-07 DIIS
   @RHF iter  11:  -365.26057222825210   -7.18785e-10   3.94099e-08 DIIS
   @RHF iter  12:  -365.26057222830741   -5.53086e-11   1.01893e-08 DIIS
   @RHF iter  13:  -365.26057222831162   -4.20641e-12   2.87588e-09 DIIS
   @RHF iter  14:  -365.26057222831713   -5.51381e-12   9.16679e-10 DIIS
   @RHF iter  15:  -365.26057222831628    8.52651e-13   3.32853e-10 DIIS
   @RHF iter  16:  -365.26057222831344    2.84217e-12   1.32939e-10 DIIS
   @RHF iter  17:  -365.26057222831298    4.54747e-13   5.90598e-11 DIIS
  Energy and wave function converged.

  ==> Post-Iterations <==

    Orbital Energies [Eh]
    ---------------------

    Doubly Occupied:

       1A    -20.504579     2A    -15.588384     3A    -11.345370
       4A    -11.239068     5A    -11.228331     6A    -11.208864
       7A    -11.203427     8A    -11.201802     9A     -1.368816
      10A     -1.217705    11A     -1.077348    12A     -1.055454
      13A     -0.912999    14A     -0.888065    15A     -0.799247
      16A     -0.788691    17A     -0.728857    18A     -0.668467
      19A     -0.657891    20A     -0.622880    21A     -0.610741
      22A     -0.590103    23A     -0.569222    24A     -0.542672
      25A     -0.527925    26A     -0.512449    27A     -0.506404
      28A     -0.500653    29A     -0.477630    30A     -0.464934
      31A     -0.446401    32A     -0.408959    33A     -0.401702

    Virtual:

      34A      0.156566    35A      0.183686    36A      0.198773
      37A      0.213416    38A      0.223181    39A      0.233257
      40A      0.241473    41A      0.253145    42A      0.261147
      43A      0.267778    44A      0.271595    45A      0.289665
      46A      0.302686    47A      0.311845    48A      0.335866
      49A      0.341064    50A      0.370802    51A      0.387990
      52A      0.409592    53A      0.432547    54A      0.484340
      55A      0.546616    56A      0.589117    57A      0.598709
      58A      0.612766    59A      0.623320    60A      0.638642
      61A      0.648108    62A      0.667768    63A      0.685678
      64A      0.722640    65A      0.743155    66A      0.768759
      67A      0.791507    68A      0.822698    69A      0.837948
      70A      0.848050    71A      0.860551    72A      0.867422
      73A      0.885541    74A      0.888426    75A      0.892408
      76A      0.893803    77A      0.904859    78A      0.918112
      79A      0.924428    80A      0.928395    81A      0.943969
      82A      0.951239    83A      0.953193    84A      0.961488
      85A      0.976983    86A      0.990971    87A      1.013430
      88A      1.027581    89A      1.041689    90A      1.062932
      91A      1.107893    92A      1.134256    93A      1.146414
      94A      1.174928    95A      1.206699    96A      1.268997
      97A      1.307506    98A      1.330715    99A      1.384921
     100A      1.399917   101A      1.406185   102A      1.430850
     103A      1.449075   104A      1.462881   105A      1.481611
     106A      1.495352   107A      1.524021   108A      1.554501
     109A      1.615488   110A      1.634721   111A      1.658205
     112A      1.662758   113A      1.683544   114A      1.741049
     115A      1.749175   116A      1.771361   117A      1.777918
     118A      1.797277   119A      1.828918   120A      1.857306
     121A      1.867708   122A      1.891236   123A      1.893016
     124A      1.906323   125A      1.921431   126A      1.931290
     127A      1.939609   128A      1.948502   129A      1.956615
     130A      1.975306   131A      1.976503   132A      1.990221
     133A      2.002322   134A      2.030440   135A      2.043705
     136A      2.070535   137A      2.074653   138A      2.084177
     139A      2.101996   140A      2.120966   141A      2.136247
     142A      2.166664   143A      2.183201   144A      2.190862
     145A      2.211935   146A      2.250604   147A      2.259446
     148A      2.290676   149A      2.319596   150A      2.350262
     151A      2.364771   152A      2.433410   153A      2.476901
     154A      2.502482   155A      2.517178   156A      2.519004
     157A      2.538536   158A      2.559935   159A      2.573871
     160A      2.583308   161A      2.592714   162A      2.614280
     163A      2.642179   164A      2.678545   165A      2.728078
     166A      2.761466   167A      2.777868   168A      2.795980
     169A      2.823312   170A      2.827595   171A      2.846705
     172A      2.862688   173A      2.880995   174A      2.906871
     175A      2.920080   176A      2.972476   177A      2.989549
     178A      3.017784   179A      3.064639   180A      3.105312
     181A      3.122782   182A      3.134811   183A      3.314755
     184A      3.522223   185A      3.534615   186A      3.878407
     187A      3.912940

    Final Occupation by Irrep:
              A
    DOCC [    33 ]

  @RHF Final Energy:  -365.26057222831298

   => Energetics <=

    Nuclear Repulsion Energy =            398.6849962299391450
    One-Electron Energy =               -1286.1590549223585640
    Two-Electron Energy =                 522.2134864641064951
    Total Energy =                       -365.2605722283129808

Computation Completed

Properties will be evaluated at   0.000000,   0.000000,   0.000000 [a0]

Properties computed using the SCF density matrix

  Nuclear Dipole Moment: [e a0]
     X:    -2.9655      Y:     8.2475      Z:    -3.2254

  Electronic Dipole Moment: [e a0]
     X:     3.8127      Y:    -7.0388      Z:     3.4758

  Dipole Moment: [e a0]
     X:     0.8473      Y:     1.2088      Z:     0.2504     Total:     1.4972

  Dipole Moment: [D]
     X:     2.1535      Y:     3.0724      Z:     0.6365     Total:     3.8056

*** tstop() called on ds3 at Tue Apr 28 09:24:03 2020
Module time:
	user time   =      66.77 seconds =       1.11 minutes
	system time =      28.33 seconds =       0.47 minutes
	total time  =         93 seconds =       1.55 minutes
Total time:
	user time   =      66.77 seconds =       1.11 minutes
	system time =      28.33 seconds =       0.47 minutes
	total time  =         93 seconds =       1.55 minutes
                                     G D M A

                                 by Anthony Stone

                           version 2.2.06, 22 June 2011

               Distributed Multipoles from Gaussian wavefunctions

Starting at 9:24:3 on 28 Apr 2020

Using SCF density matrix from file ./SSI/SSI-062GLN-171PRO-1-dimer.test.10347.fchk

                         Distributed Multipole Analysis

Standard DMA

Positions and radii in angstrom
Multipole moments in atomic units, ea_0^k for rank k

C          x = -0.038565  y =  0.123220  z =  1.591500 angstrom
           Maximum rank =  0   Radius =  0.650 angstrom
                   Q00  =  -0.119776

C          x = -0.168565  y = -0.391780  z =  3.009500 angstrom
           Maximum rank =  0   Radius =  0.650 angstrom
                   Q00  =  -0.204166

C          x =  0.665435  y = -0.876780  z =  0.690500 angstrom
           Maximum rank =  0   Radius =  0.650 angstrom
                   Q00  =   0.803177

O          x =  0.166435  y = -1.975780  z =  0.457500 angstrom
           Maximum rank =  0   Radius =  0.650 angstrom
                   Q00  =  -0.807013

N          x =  1.829435  y = -0.506780  z =  0.172500 angstrom
           Maximum rank =  0   Radius =  0.650 angstrom
                   Q00  =  -0.500260

H          x = -1.067565  y =  0.201220  z =  1.264500 angstrom
           Maximum rank =  0   Radius =  0.325 angstrom
                   Q00  =   0.101049

H          x =  0.451435  y =  1.098220  z =  1.574500 angstrom
           Maximum rank =  0   Radius =  0.325 angstrom
                   Q00  =   0.044524

H          x =  0.835435  y = -0.560780  z =  3.399500 angstrom
           Maximum rank =  0   Radius =  0.325 angstrom
                   Q00  =   0.069561

H          x = -0.684565  y = -1.353780  z =  2.997500 angstrom
           Maximum rank =  0   Radius =  0.325 angstrom
                   Q00  =   0.108841

H          x =  2.319435  y = -1.166780  z = -0.416500 angstrom
           Maximum rank =  0   Radius =  0.325 angstrom
                   Q00  =   0.223270

H          x =  2.219435  y =  0.391220  z =  0.398500 angstrom
           Maximum rank =  0   Radius =  0.325 angstrom
                   Q00  =   0.207029

H          x = -0.700555  y =  0.288300  z =  3.691022 angstrom
           Maximum rank =  0   Radius =  0.325 angstrom
                   Q00  =   0.088226

C          x = -1.179565  y =  0.959220  z = -1.467500 angstrom
           Maximum rank =  0   Radius =  0.650 angstrom
                   Q00  =  -0.074142

C          x =  0.098435  y =  0.470220  z = -2.081500 angstrom
           Maximum rank =  0   Radius =  0.650 angstrom
                   Q00  =  -0.200930

C          x = -1.468565  y =  2.201220  z = -2.264500 angstrom
           Maximum rank =  0   Radius =  0.650 angstrom
                   Q00  =  -0.204753

H          x = -1.163565  y =  1.177220  z = -0.421500 angstrom
           Maximum rank =  0   Radius =  0.325 angstrom
                   Q00  =   0.041235

H          x = -1.869565  y =  0.244220  z = -1.799500 angstrom
           Maximum rank =  0   Radius =  0.325 angstrom
                   Q00  =   0.045117

H          x =  0.924435  y =  1.080220  z = -1.758500 angstrom
           Maximum rank =  0   Radius =  0.325 angstrom
                   Q00  =   0.053367

H          x =  0.265435  y = -0.586780  z = -1.890500 angstrom
           Maximum rank =  0   Radius =  0.325 angstrom
                   Q00  =   0.085097

H          x = -2.531565  y =  2.386220  z = -2.169500 angstrom
           Maximum rank =  0   Radius =  0.325 angstrom
                   Q00  =   0.061844

H          x = -0.081605  y =  0.605980  z = -3.158140 angstrom
           Maximum rank =  0   Radius =  0.325 angstrom
                   Q00  =   0.045682

H          x = -1.140845  y =  1.920100  z = -3.276218 angstrom
           Maximum rank =  0   Radius =  0.325 angstrom
                   Q00  =   0.063813

H          x = -0.934245  y =  3.081401  z = -1.877480 angstrom
           Maximum rank =  0   Radius =  0.325 angstrom
                   Q00  =   0.069211

Total multipoles referred to origin at
           x =   0.000000,  y =    0.000000,  z =    0.000000 angstrom
                   Q00  =  -0.000000

Finished at 9:24:3 on 28 Apr 2020

  DMA results are available in the Python driver through the
	  variable('DMA DISTRIBUTED MULTIPOLES')
  and
	  variable('DMA TOTAL MULTIPOLES')
  commands.

    Psi4 stopped on: Tuesday, 28 April 2020 09:24AM
    Psi4 wall time for execution: 0:01:32.43

*** Psi4 exiting successfully. Buy a developer a beer!
