                               Psi4 1.3.2 release

  ==> Input File <==

--------------------------------------------------------------------------
import numpy as np
set {scf_type pk
basis cc-pvdz
d_convergence 10
gdma_switch   0
gdma_limit    0
gdma_origin   [ 0.0,  0.0,  0.0 ]
}
molecule test {
    units Angstrom
    0 1
    --
    0 1
    C               -1.168833353550053     0.023406474468587    -2.158081078693773
    C               -0.470833353550053     0.581406474468587     0.190918921306227
    C               -0.841833353550053    -0.388593525531413    -0.743081078693773
    C               -0.178833353550053     0.229406474468587     1.507918921306227
    C               -0.243833353550053    -1.101593525531413     1.896918921306227
    C               -0.892833353550053    -1.726593525531413    -0.331081078693773
    C               -0.605833353550053    -2.084593525531413     0.991918921306227
    O                0.047166646449947    -1.444593525531413     3.182918921306227
    H               -0.393833353550053     1.615406474468587    -0.109081078693773
    H                0.112166646449947     0.991406474468587     2.218918921306227
    H               -0.793833353550053     1.036406474468587    -2.286081078693773
    H               -0.521833353550053    -0.593593525531413    -2.804081078693772
    H               -1.182833353550053    -2.494593525531413    -1.035081078693773
    H                0.255166646449947    -0.673593525531413     3.723918921306228
    H               -0.657833353550053    -3.115593525531413     1.312918921306227
    H               -2.247000353550054     0.058676474468587    -2.373281078693773
    C                2.239166646449947     2.340406474468587    -1.578081078693772
    C                1.599166646449947     2.985406474468587    -2.799081078693773
    H                1.796166646449947     2.645406474468587    -0.633081078693773
    H                2.026166646449946     1.283406474468587    -1.687081078693773
    H                3.309166646449947     2.548406474468587    -1.577081078693773
    H                0.585166646449947     2.609406474468587    -2.902081078693773
    H                1.539782646449947     4.076236474468588    -2.670411078693773
    H                2.146222646449947     2.715466474468587    -3.714431078693773

}
e, wfn = energy('scf', return_wfn=True)
gdma(wfn)
dmavals = variable('DMA DISTRIBUTED MULTIPOLES')
charges = np.array(dmavals)
print(charges)
np.save('SSI-003TYR-054VAL-1-dimer.npy', np.array(charges))--------------------------------------------------------------------------

*** tstart() called on ds3
*** at Tue Apr 28 11:23:11 2020

   => Loading Basis Set <=

    Name: CC-PVDZ
    Role: ORBITAL
    Keyword: BASIS
    atoms 1-7, 17-18  entry C          line   138 file /theoryfs2/ds/metcalf/miniconda2/envs/tf2gpu/share/psi4/basis/cc-pvdz.gbs
    atoms 8           entry O          line   198 file /theoryfs2/ds/metcalf/miniconda2/envs/tf2gpu/share/psi4/basis/cc-pvdz.gbs
    atoms 9-16, 19-24 entry H          line    22 file /theoryfs2/ds/metcalf/miniconda2/envs/tf2gpu/share/psi4/basis/cc-pvdz.gbs

         ---------------------------------------------------------
                                   SCF
               by Justin Turney, Rob Parrish, Andy Simmonett
                          and Daniel G. A. Smith
                              RHF Reference
                        1 Threads,    500 MiB Core
         ---------------------------------------------------------

  ==> Geometry <==

    Molecular point group: c1
    Full point group: C1

    Geometry (in Angstrom), charge = 0, multiplicity = 1:

       Center              X                  Y                   Z               Mass
    ------------   -----------------  -----------------  -----------------  -----------------
         C           -1.168833353550     0.023406474469    -2.158081078694    12.000000000000
         C           -0.470833353550     0.581406474469     0.190918921306    12.000000000000
         C           -0.841833353550    -0.388593525531    -0.743081078694    12.000000000000
         C           -0.178833353550     0.229406474469     1.507918921306    12.000000000000
         C           -0.243833353550    -1.101593525531     1.896918921306    12.000000000000
         C           -0.892833353550    -1.726593525531    -0.331081078694    12.000000000000
         C           -0.605833353550    -2.084593525531     0.991918921306    12.000000000000
         O            0.047166646450    -1.444593525531     3.182918921306    15.994914619570
         H           -0.393833353550     1.615406474469    -0.109081078694     1.007825032230
         H            0.112166646450     0.991406474469     2.218918921306     1.007825032230
         H           -0.793833353550     1.036406474469    -2.286081078694     1.007825032230
         H           -0.521833353550    -0.593593525531    -2.804081078694     1.007825032230
         H           -1.182833353550    -2.494593525531    -1.035081078694     1.007825032230
         H            0.255166646450    -0.673593525531     3.723918921306     1.007825032230
         H           -0.657833353550    -3.115593525531     1.312918921306     1.007825032230
         H           -2.247000353550     0.058676474469    -2.373281078694     1.007825032230
         C            2.239166646450     2.340406474469    -1.578081078694    12.000000000000
         C            1.599166646450     2.985406474469    -2.799081078694    12.000000000000
         H            1.796166646450     2.645406474469    -0.633081078694     1.007825032230
         H            2.026166646450     1.283406474469    -1.687081078694     1.007825032230
         H            3.309166646450     2.548406474469    -1.577081078694     1.007825032230
         H            0.585166646450     2.609406474469    -2.902081078694     1.007825032230
         H            1.539782646450     4.076236474469    -2.670411078694     1.007825032230
         H            2.146222646450     2.715466474469    -3.714431078694     1.007825032230

  Running in c1 symmetry.

  Rotational constants: A =      0.06492  B =      0.02015  C =      0.01650 [cm^-1]
  Rotational constants: A =   1946.38975  B =    604.16465  C =    494.76533 [MHz]
  Nuclear repulsion =  494.357198629347806

  Charge       = 0
  Multiplicity = 1
  Electrons    = 76
  Nalpha       = 38
  Nbeta        = 38

  ==> Algorithm <==

  SCF Algorithm Type is PK.
  DIIS enabled.
  MOM disabled.
  Fractional occupation disabled.
  Guess Type is SAD.
  Energy threshold   = 1.00e-06
  Density threshold  = 1.00e-10
  Integral threshold = 0.00e+00

  ==> Primary Basis <==

  Basis Set: CC-PVDZ
    Blend: CC-PVDZ
    Number of shells: 102
    Number of basis function: 210
    Number of Cartesian functions: 220
    Spherical Harmonics?: true
    Max angular momentum: 2

  ==> Pre-Iterations <==

   -------------------------------------------------------
    Irrep   Nso     Nmo     Nalpha   Nbeta   Ndocc  Nsocc
   -------------------------------------------------------
     A        210     210       0       0       0       0
   -------------------------------------------------------
    Total     210     210      38      38      38       0
   -------------------------------------------------------

  ==> Integral Setup <==

  Using integral reordering PK algorithm.
  Sizing the integral batches needed.
  Building batch lookup table.
   Calculation information:
      Number of atoms:                  24
      Number of AO shells:             102
      Number of primitives:            290
      Number of atomic orbitals:       220
      Number of basis functions:       210

      Integral cutoff                 1.00e-12
      Number of threads:                 1

	Batch   1 pq = [       0,    9405] index = [             0,44231715] size =     44231715
	Batch   2 pq = [    9405,   13301] index = [      44231715,88464951] size =     44233236
	Batch   3 pq = [   13301,   16290] index = [      88464951,132690195] size =     44225244
	Batch   4 pq = [   16290,   18810] index = [     132690195,176917455] size =     44227260
	Batch   5 pq = [   18810,   21030] index = [     176917455,221140965] size =     44223510
	Batch   6 pq = [   21030,   22155] index = [     221140965,245433090] size =     24292125
  Task number: 23
  Buffer size: 11059200
  Buffer per thread: 2
  We computed 12013050 shell quartets total.
  Whereas there are 13799631 unique shell quartets.

  ==> DiskJK: Disk-Based J/K Matrices <==

    J tasked:                  Yes
    K tasked:                  Yes
    wK tasked:                  No
    Memory [MiB]:              375
    Schwarz Cutoff:          1E-12

    OpenMP threads:              1

  Minimum eigenvalue in the overlap matrix is 3.2213900954E-04.
  Using Symmetric Orthogonalization.

  SCF Guess: Superposition of Atomic Densities via on-the-fly atomic UHF.

  ==> Iterations <==

                        Total Energy        Delta E     RMS |[F,P]|

   @RHF iter SAD:  -422.71147685178568   -4.22711e+02   0.00000e+00
   @RHF iter   1:  -423.59501451324729   -8.83538e-01   2.97395e-03 DIIS
   @RHF iter   2:  -423.81152827930873   -2.16514e-01   1.24419e-03 DIIS
   @RHF iter   3:  -423.84575020393129   -3.42219e-02   2.81020e-04 DIIS
   @RHF iter   4:  -423.84858961255196   -2.83941e-03   1.13176e-04 DIIS
   @RHF iter   5:  -423.84891745707000   -3.27845e-04   2.09848e-05 DIIS
   @RHF iter   6:  -423.84893531835905   -1.78613e-05   6.54650e-06 DIIS
   @RHF iter   7:  -423.84893706593124   -1.74757e-06   2.19006e-06 DIIS
   @RHF iter   8:  -423.84893733282087   -2.66890e-07   8.38189e-07 DIIS
   @RHF iter   9:  -423.84893738418452   -5.13637e-08   3.71319e-07 DIIS
   @RHF iter  10:  -423.84893739591985   -1.17353e-08   1.63563e-07 DIIS
   @RHF iter  11:  -423.84893739964059   -3.72074e-09   6.71491e-08 DIIS
   @RHF iter  12:  -423.84893740014968   -5.09090e-10   2.92606e-08 DIIS
   @RHF iter  13:  -423.84893740021727   -6.75868e-11   8.17422e-09 DIIS
   @RHF iter  14:  -423.84893740022210   -4.83169e-12   2.31797e-09 DIIS
   @RHF iter  15:  -423.84893740022227   -1.70530e-13   8.11463e-10 DIIS
   @RHF iter  16:  -423.84893740022460   -2.33058e-12   3.33822e-10 DIIS
   @RHF iter  17:  -423.84893740022466   -5.68434e-14   1.56996e-10 DIIS
   @RHF iter  18:  -423.84893740022386    7.95808e-13   7.65744e-11 DIIS
  Energy and wave function converged.

  ==> Post-Iterations <==

    Orbital Energies [Eh]
    ---------------------

    Doubly Occupied:

       1A    -20.581544     2A    -11.297549     3A    -11.239723
       4A    -11.238403     5A    -11.233640     6A    -11.232037
       7A    -11.230340     8A    -11.229674     9A    -11.219903
      10A    -11.215745    11A     -1.398655    12A     -1.149422
      13A     -1.038113    14A     -1.022852    15A     -1.016379
      16A     -0.925917    17A     -0.844579    18A     -0.837308
      19A     -0.800658    20A     -0.730842    21A     -0.666261
      22A     -0.641714    23A     -0.608092    24A     -0.604809
      25A     -0.598996    26A     -0.589684    27A     -0.585218
      28A     -0.577449    29A     -0.563753    30A     -0.522465
      31A     -0.506309    32A     -0.492231    33A     -0.487610
      34A     -0.483986    35A     -0.480242    36A     -0.466323
      37A     -0.337302    38A     -0.302105

    Virtual:

      39A      0.128943    40A      0.156201    41A      0.170113
      42A      0.179682    43A      0.206258    44A      0.208397
      45A      0.229313    46A      0.234256    47A      0.255537
      48A      0.260013    49A      0.260935    50A      0.268285
      51A      0.283698    52A      0.292412    53A      0.321468
      54A      0.364095    55A      0.373029    56A      0.386593
      57A      0.421486    58A      0.434558    59A      0.457283
      60A      0.478487    61A      0.503772    62A      0.530459
      63A      0.591339    64A      0.596749    65A      0.601173
      66A      0.615953    67A      0.641470    68A      0.648235
      69A      0.662912    70A      0.679610    71A      0.690778
      72A      0.695259    73A      0.706913    74A      0.725157
      75A      0.735304    76A      0.739951    77A      0.758335
      78A      0.766690    79A      0.778965    80A      0.797458
      81A      0.804765    82A      0.838484    83A      0.848637
      84A      0.857607    85A      0.867490    86A      0.877649
      87A      0.887296    88A      0.889838    89A      0.894198
      90A      0.898461    91A      0.900883    92A      0.909260
      93A      0.927495    94A      0.931275    95A      0.940818
      96A      0.959539    97A      0.988427    98A      0.991819
      99A      1.009687   100A      1.029639   101A      1.036453
     102A      1.061862   103A      1.119510   104A      1.125785
     105A      1.137124   106A      1.140556   107A      1.164425
     108A      1.171393   109A      1.205415   110A      1.231856
     111A      1.245465   112A      1.254829   113A      1.265804
     114A      1.285154   115A      1.307012   116A      1.313608
     117A      1.325773   118A      1.352133   119A      1.363738
     120A      1.410368   121A      1.466232   122A      1.481443
     123A      1.490674   124A      1.507036   125A      1.548576
     126A      1.559092   127A      1.589319   128A      1.617707
     129A      1.627465   130A      1.669243   131A      1.687030
     132A      1.691482   133A      1.701697   134A      1.734482
     135A      1.750254   136A      1.780633   137A      1.803430
     138A      1.819713   139A      1.859445   140A      1.870819
     141A      1.882011   142A      1.884969   143A      1.891976
     144A      1.903195   145A      1.910794   146A      1.919902
     147A      1.924159   148A      1.924663   149A      1.943590
     150A      1.956857   151A      1.963231   152A      1.965534
     153A      1.971212   154A      1.979933   155A      2.001636
     156A      2.026471   157A      2.032917   158A      2.052619
     159A      2.064760   160A      2.070041   161A      2.079706
     162A      2.105545   163A      2.135077   164A      2.149255
     165A      2.161731   166A      2.175142   167A      2.202504
     168A      2.226862   169A      2.263075   170A      2.274131
     171A      2.291491   172A      2.305519   173A      2.318981
     174A      2.331406   175A      2.368419   176A      2.431751
     177A      2.446402   178A      2.452245   179A      2.463203
     180A      2.475898   181A      2.493365   182A      2.507152
     183A      2.535940   184A      2.565673   185A      2.599800
     186A      2.617569   187A      2.648535   188A      2.748858
     189A      2.765533   190A      2.796575   191A      2.801493
     192A      2.811884   193A      2.813209   194A      2.830403
     195A      2.839194   196A      2.872952   197A      2.916252
     198A      2.950703   199A      2.957675   200A      2.975600
     201A      3.004939   202A      3.086714   203A      3.089636
     204A      3.250965   205A      3.275004   206A      3.347703
     207A      3.575304   208A      3.674767   209A      3.971292
     210A      4.192915

    Final Occupation by Irrep:
              A
    DOCC [    38 ]

  @RHF Final Energy:  -423.84893740022386

   => Energetics <=

    Nuclear Repulsion Energy =            494.3571986293478062
    One-Electron Energy =               -1554.4166056453859710
    Two-Electron Energy =                 636.2104696158143042
    Total Energy =                       -423.8489374002239174

Computation Completed

Properties will be evaluated at   0.000000,   0.000000,   0.000000 [a0]

Properties computed using the SCF density matrix

  Nuclear Dipole Moment: [e a0]
     X:     5.5996      Y:    11.9016      Z:   -13.6118

  Electronic Dipole Moment: [e a0]
     X:    -5.5534      Y:   -11.3627      Z:    13.5700

  Dipole Moment: [e a0]
     X:     0.0462      Y:     0.5389      Z:    -0.0418     Total:     0.5425

  Dipole Moment: [D]
     X:     0.1174      Y:     1.3697      Z:    -0.1063     Total:     1.3789

*** tstop() called on ds3 at Tue Apr 28 11:25:21 2020
Module time:
	user time   =      92.31 seconds =       1.54 minutes
	system time =      42.72 seconds =       0.71 minutes
	total time  =        130 seconds =       2.17 minutes
Total time:
	user time   =      92.31 seconds =       1.54 minutes
	system time =      42.72 seconds =       0.71 minutes
	total time  =        130 seconds =       2.17 minutes
                                     G D M A

                                 by Anthony Stone

                           version 2.2.06, 22 June 2011

               Distributed Multipoles from Gaussian wavefunctions

Starting at 11:25:21 on 28 Apr 2020

Using SCF density matrix from file ./SSI/SSI-003TYR-054VAL-1-dimer.test.26653.fchk

                         Distributed Multipole Analysis

Standard DMA

Positions and radii in angstrom
Multipole moments in atomic units, ea_0^k for rank k

C          x = -1.168833  y =  0.023406  z = -2.158081 angstrom
           Maximum rank =  0   Radius =  0.650 angstrom
                   Q00  =  -0.167435

C          x = -0.470833  y =  0.581406  z =  0.190919 angstrom
           Maximum rank =  0   Radius =  0.650 angstrom
                   Q00  =  -0.058095

C          x = -0.841833  y = -0.388594  z = -0.743081 angstrom
           Maximum rank =  0   Radius =  0.650 angstrom
                   Q00  =  -0.148313

C          x = -0.178833  y =  0.229406  z =  1.507919 angstrom
           Maximum rank =  0   Radius =  0.650 angstrom
                   Q00  =  -0.182322

C          x = -0.243833  y = -1.101594  z =  1.896919 angstrom
           Maximum rank =  0   Radius =  0.650 angstrom
                   Q00  =   0.388867

C          x = -0.892833  y = -1.726594  z = -0.331081 angstrom
           Maximum rank =  0   Radius =  0.650 angstrom
                   Q00  =  -0.009667

C          x = -0.605833  y = -2.084594  z =  0.991919 angstrom
           Maximum rank =  0   Radius =  0.650 angstrom
                   Q00  =  -0.113084

O          x =  0.047167  y = -1.444594  z =  3.182919 angstrom
           Maximum rank =  0   Radius =  0.650 angstrom
                   Q00  =  -0.677187

H          x = -0.393833  y =  1.615406  z = -0.109081 angstrom
           Maximum rank =  0   Radius =  0.325 angstrom
                   Q00  =   0.069184

H          x =  0.112167  y =  0.991406  z =  2.218919 angstrom
           Maximum rank =  0   Radius =  0.325 angstrom
                   Q00  =   0.070747

H          x = -0.793833  y =  1.036406  z = -2.286081 angstrom
           Maximum rank =  0   Radius =  0.325 angstrom
                   Q00  =   0.092583

H          x = -0.521833  y = -0.593594  z = -2.804081 angstrom
           Maximum rank =  0   Radius =  0.325 angstrom
                   Q00  =   0.084198

H          x = -1.182833  y = -2.494594  z = -1.035081 angstrom
           Maximum rank =  0   Radius =  0.325 angstrom
                   Q00  =   0.063681

H          x =  0.255167  y = -0.673594  z =  3.723919 angstrom
           Maximum rank =  0   Radius =  0.325 angstrom
                   Q00  =   0.406325

H          x = -0.657833  y = -3.115594  z =  1.312919 angstrom
           Maximum rank =  0   Radius =  0.325 angstrom
                   Q00  =   0.082388

H          x = -2.247000  y =  0.058676  z = -2.373281 angstrom
           Maximum rank =  0   Radius =  0.325 angstrom
                   Q00  =   0.097316

C          x =  2.239167  y =  2.340406  z = -1.578081 angstrom
           Maximum rank =  0   Radius =  0.650 angstrom
                   Q00  =  -0.241122

C          x =  1.599167  y =  2.985406  z = -2.799081 angstrom
           Maximum rank =  0   Radius =  0.650 angstrom
                   Q00  =  -0.231410

H          x =  1.796167  y =  2.645406  z = -0.633081 angstrom
           Maximum rank =  0   Radius =  0.325 angstrom
                   Q00  =   0.077055

H          x =  2.026167  y =  1.283406  z = -1.687081 angstrom
           Maximum rank =  0   Radius =  0.325 angstrom
                   Q00  =   0.083288

H          x =  3.309167  y =  2.548406  z = -1.577081 angstrom
           Maximum rank =  0   Radius =  0.325 angstrom
                   Q00  =   0.081701

H          x =  0.585167  y =  2.609406  z = -2.902081 angstrom
           Maximum rank =  0   Radius =  0.325 angstrom
                   Q00  =   0.073102

H          x =  1.539783  y =  4.076236  z = -2.670411 angstrom
           Maximum rank =  0   Radius =  0.325 angstrom
                   Q00  =   0.075246

H          x =  2.146223  y =  2.715466  z = -3.714431 angstrom
           Maximum rank =  0   Radius =  0.325 angstrom
                   Q00  =   0.082952

Total multipoles referred to origin at
           x =   0.000000,  y =    0.000000,  z =    0.000000 angstrom
                   Q00  =  -0.000000

Finished at 11:25:21 on 28 Apr 2020

  DMA results are available in the Python driver through the
	  variable('DMA DISTRIBUTED MULTIPOLES')
  and
	  variable('DMA TOTAL MULTIPOLES')
  commands.

    Psi4 stopped on: Tuesday, 28 April 2020 11:25AM
    Psi4 wall time for execution: 0:02:10.10

*** Psi4 exiting successfully. Buy a developer a beer!
