                               Psi4 1.3.2 release

  ==> Input File <==

--------------------------------------------------------------------------
import numpy as np
set {scf_type pk
basis cc-pvdz
d_convergence 10
gdma_switch   0
gdma_limit    0
gdma_origin   [ 0.0,  0.0,  0.0 ]
}
molecule test {
    units Angstrom
    0 1
    --
    0 1
    C                1.580326315712148    -1.470844783300169     0.855120674820494
    C                1.863326315712148    -1.507844783300170     2.353120674820495
    C                2.765326315712148    -0.953844783300169     0.032120674820495
    O                3.633326315712148    -0.216844783300169     0.521120674820495
    N                2.779326315712148    -1.311844783300170    -1.245879325179506
    H                1.302326315712148    -2.465844783300170     0.505120674820495
    H                0.737326315712148    -0.819844783300170     0.646120674820495
    H                2.599326315712148    -0.746844783300169     2.604120674820495
    H                3.491326315712148    -0.925844783300169    -1.855879325179506
    H                2.051326315712148    -1.911844783300169    -1.613879325179506
    H                2.268526315712148    -2.486764783300169     2.648968674820495
    H                0.969676315712148    -1.225644783300169     2.929105674820495
    C                0.059326315712148     1.130155216699831    -1.680879325179505
    C               -1.203673684287852     0.995155216699830     0.508120674820495
    C               -1.217673684287852     1.010155216699830    -0.882879325179506
    C               -2.378673684287852     0.793155216699831     1.242120674820494
    C               -3.561673684287852     0.622155216699830     0.587120674820494
    C               -2.430673684287852     0.845155216699830    -1.525879325179505
    C               -3.602673684287852     0.649155216699831    -0.796879325179506
    H               -0.276673684287852     1.159155216699830     1.040120674820494
    H               -2.353673684287852     0.802155216699830     2.322120674820495
    H                0.039326315712148     0.368155216699830    -2.461879325179505
    H                0.897326315712148     0.878155216699831    -1.035879325179506
    H               -4.470673684287853     0.459155216699831     1.147120674820494
    H               -2.483673684287852     0.818155216699830    -2.603879325179505
    H               -4.540673684287853     0.505155216699831    -1.313879325179506
    H                0.252086315712148     2.107465216699830    -2.147482325179505

}
e, wfn = energy('scf', return_wfn=True)
gdma(wfn)
dmavals = variable('DMA DISTRIBUTED MULTIPOLES')
charges = np.array(dmavals)
print(charges)
np.save('SSI-024ASN-056PHE-1-dimer.npy', np.array(charges))--------------------------------------------------------------------------

*** tstart() called on ds3
*** at Mon Apr 27 04:10:05 2020

   => Loading Basis Set <=

    Name: CC-PVDZ
    Role: ORBITAL
    Keyword: BASIS
    atoms 1-3, 13-19  entry C          line   138 file /theoryfs2/ds/metcalf/miniconda2/envs/tf2gpu/share/psi4/basis/cc-pvdz.gbs
    atoms 4           entry O          line   198 file /theoryfs2/ds/metcalf/miniconda2/envs/tf2gpu/share/psi4/basis/cc-pvdz.gbs
    atoms 5           entry N          line   168 file /theoryfs2/ds/metcalf/miniconda2/envs/tf2gpu/share/psi4/basis/cc-pvdz.gbs
    atoms 6-12, 20-27 entry H          line    22 file /theoryfs2/ds/metcalf/miniconda2/envs/tf2gpu/share/psi4/basis/cc-pvdz.gbs

         ---------------------------------------------------------
                                   SCF
               by Justin Turney, Rob Parrish, Andy Simmonett
                          and Daniel G. A. Smith
                              RHF Reference
                        1 Threads,    500 MiB Core
         ---------------------------------------------------------

  ==> Geometry <==

    Molecular point group: c1
    Full point group: C1

    Geometry (in Angstrom), charge = 0, multiplicity = 1:

       Center              X                  Y                   Z               Mass
    ------------   -----------------  -----------------  -----------------  -----------------
         C            1.580326315712    -1.470844783300     0.855120674820    12.000000000000
         C            1.863326315712    -1.507844783300     2.353120674820    12.000000000000
         C            2.765326315712    -0.953844783300     0.032120674820    12.000000000000
         O            3.633326315712    -0.216844783300     0.521120674820    15.994914619570
         N            2.779326315712    -1.311844783300    -1.245879325180    14.003074004430
         H            1.302326315712    -2.465844783300     0.505120674820     1.007825032230
         H            0.737326315712    -0.819844783300     0.646120674820     1.007825032230
         H            2.599326315712    -0.746844783300     2.604120674820     1.007825032230
         H            3.491326315712    -0.925844783300    -1.855879325180     1.007825032230
         H            2.051326315712    -1.911844783300    -1.613879325180     1.007825032230
         H            2.268526315712    -2.486764783300     2.648968674820     1.007825032230
         H            0.969676315712    -1.225644783300     2.929105674820     1.007825032230
         C            0.059326315712     1.130155216700    -1.680879325180    12.000000000000
         C           -1.203673684288     0.995155216700     0.508120674820    12.000000000000
         C           -1.217673684288     1.010155216700    -0.882879325180    12.000000000000
         C           -2.378673684288     0.793155216700     1.242120674820    12.000000000000
         C           -3.561673684288     0.622155216700     0.587120674820    12.000000000000
         C           -2.430673684288     0.845155216700    -1.525879325180    12.000000000000
         C           -3.602673684288     0.649155216700    -0.796879325180    12.000000000000
         H           -0.276673684288     1.159155216700     1.040120674820     1.007825032230
         H           -2.353673684288     0.802155216700     2.322120674820     1.007825032230
         H            0.039326315712     0.368155216700    -2.461879325180     1.007825032230
         H            0.897326315712     0.878155216700    -1.035879325180     1.007825032230
         H           -4.470673684288     0.459155216700     1.147120674820     1.007825032230
         H           -2.483673684288     0.818155216700    -2.603879325180     1.007825032230
         H           -4.540673684288     0.505155216700    -1.313879325180     1.007825032230
         H            0.252086315712     2.107465216700    -2.147482325180     1.007825032230

  Running in c1 symmetry.

  Rotational constants: A =      0.05077  B =      0.01372  C =      0.01177 [cm^-1]
  Rotational constants: A =   1521.98492  B =    411.42493  C =    352.98620 [MHz]
  Nuclear repulsion =  654.290215843895567

  Charge       = 0
  Multiplicity = 1
  Electrons    = 90
  Nalpha       = 45
  Nbeta        = 45

  ==> Algorithm <==

  SCF Algorithm Type is PK.
  DIIS enabled.
  MOM disabled.
  Fractional occupation disabled.
  Guess Type is SAD.
  Energy threshold   = 1.00e-06
  Density threshold  = 1.00e-10
  Integral threshold = 0.00e+00

  ==> Primary Basis <==

  Basis Set: CC-PVDZ
    Blend: CC-PVDZ
    Number of shells: 117
    Number of basis function: 243
    Number of Cartesian functions: 255
    Spherical Harmonics?: true
    Max angular momentum: 2

  ==> Pre-Iterations <==

   -------------------------------------------------------
    Irrep   Nso     Nmo     Nalpha   Nbeta   Ndocc  Nsocc
   -------------------------------------------------------
     A        243     243       0       0       0       0
   -------------------------------------------------------
    Total     243     243      45      45      45       0
   -------------------------------------------------------

  ==> Integral Setup <==

  Using integral reordering PK algorithm.
  Sizing the integral batches needed.
  Building batch lookup table.
   Calculation information:
      Number of atoms:                  27
      Number of AO shells:             117
      Number of primitives:            339
      Number of atomic orbitals:       255
      Number of basis functions:       243

      Integral cutoff                 1.00e-12
      Number of threads:                 1

	Batch   1 pq = [       0,    9405] index = [             0,44231715] size =     44231715
	Batch   2 pq = [    9405,   13301] index = [      44231715,88464951] size =     44233236
	Batch   3 pq = [   13301,   16290] index = [      88464951,132690195] size =     44225244
	Batch   4 pq = [   16290,   18810] index = [     132690195,176917455] size =     44227260
	Batch   5 pq = [   18810,   21030] index = [     176917455,221140965] size =     44223510
	Batch   6 pq = [   21030,   23037] index = [     221140965,265363203] size =     44222238
	Batch   7 pq = [   23037,   24883] index = [     265363203,309594286] size =     44231083
	Batch   8 pq = [   24883,   26601] index = [     309594286,353819901] size =     44225615
	Batch   9 pq = [   26601,   28214] index = [     353819901,398029005] size =     44209104
	Batch  10 pq = [   28214,   29646] index = [     398029005,439457481] size =     41428476
  Task number: 40
  Buffer size: 11059200
  Buffer per thread: 2
  We computed 22995078 shell quartets total.
  Whereas there are 23829156 unique shell quartets.

  ==> DiskJK: Disk-Based J/K Matrices <==

    J tasked:                  Yes
    K tasked:                  Yes
    wK tasked:                  No
    Memory [MiB]:              375
    Schwarz Cutoff:          1E-12

    OpenMP threads:              1

  Minimum eigenvalue in the overlap matrix is 2.9427464524E-04.
  Using Symmetric Orthogonalization.

  SCF Guess: Superposition of Atomic Densities via on-the-fly atomic UHF.

  ==> Iterations <==

                        Total Energy        Delta E     RMS |[F,P]|

   @RHF iter SAD:  -515.52002780080022   -5.15520e+02   0.00000e+00
   @RHF iter   1:  -516.46119302274553   -9.41165e-01   3.01109e-03 DIIS
   @RHF iter   2:  -516.71683048286297   -2.55637e-01   1.60459e-03 DIIS
   @RHF iter   3:  -516.77864391162075   -6.18134e-02   3.80130e-04 DIIS
   @RHF iter   4:  -516.78351562576995   -4.87171e-03   1.52373e-04 DIIS
   @RHF iter   5:  -516.78431204361061   -7.96418e-04   2.21711e-05 DIIS
   @RHF iter   6:  -516.78434915824880   -3.71146e-05   9.78936e-06 DIIS
   @RHF iter   7:  -516.78435534522623   -6.18698e-06   3.82127e-06 DIIS
   @RHF iter   8:  -516.78435663190419   -1.28668e-06   1.47326e-06 DIIS
   @RHF iter   9:  -516.78435682036229   -1.88458e-07   5.33734e-07 DIIS
   @RHF iter  10:  -516.78435683754549   -1.71832e-08   1.76817e-07 DIIS
   @RHF iter  11:  -516.78435684002329   -2.47780e-09   5.46659e-08 DIIS
   @RHF iter  12:  -516.78435684025612   -2.32831e-10   2.23167e-08 DIIS
   @RHF iter  13:  -516.78435684031842   -6.23004e-11   8.94937e-09 DIIS
   @RHF iter  14:  -516.78435684033082   -1.23919e-11   3.86901e-09 DIIS
   @RHF iter  15:  -516.78435684033036    4.54747e-13   1.67409e-09 DIIS
   @RHF iter  16:  -516.78435684032956    7.95808e-13   3.80554e-10 DIIS
   @RHF iter  17:  -516.78435684033343   -3.86535e-12   1.24409e-10 DIIS
   @RHF iter  18:  -516.78435684033445   -1.02318e-12   5.62215e-11 DIIS
  Energy and wave function converged.

  ==> Post-Iterations <==

    Orbital Energies [Eh]
    ---------------------

    Doubly Occupied:

       1A    -20.506752     2A    -15.590900     3A    -11.347141
       4A    -11.244784     5A    -11.238606     6A    -11.238603
       7A    -11.237214     8A    -11.235393     9A    -11.233938
      10A    -11.233550    11A    -11.231578    12A    -11.218699
      13A     -1.362887    14A     -1.216079    15A     -1.161523
      16A     -1.052791    17A     -1.043872    18A     -1.015472
      19A     -0.938103    20A     -0.886214    21A     -0.832697
      22A     -0.800433    23A     -0.784005    24A     -0.722237
      25A     -0.697953    26A     -0.662381    27A     -0.641222
      28A     -0.635566    29A     -0.627989    30A     -0.586076
      31A     -0.583818    32A     -0.580507    33A     -0.569826
      34A     -0.556860    35A     -0.536533    36A     -0.515190
      37A     -0.499312    38A     -0.494778    39A     -0.491868
      40A     -0.486184    41A     -0.483964    42A     -0.410107
      43A     -0.404471    44A     -0.336154    45A     -0.330609

    Virtual:

      46A      0.129318    47A      0.137549    48A      0.160913
      49A      0.175866    50A      0.195473    51A      0.200212
      52A      0.211810    53A      0.220339    54A      0.228550
      55A      0.243977    56A      0.257880    57A      0.259463
      58A      0.264610    59A      0.281117    60A      0.287037
      61A      0.299673    62A      0.308139    63A      0.339384
      64A      0.367410    65A      0.376426    66A      0.402547
      67A      0.419776    68A      0.450642    69A      0.461494
      70A      0.472232    71A      0.481742    72A      0.503998
      73A      0.558331    74A      0.566904    75A      0.592505
      76A      0.614295    77A      0.629740    78A      0.653191
      79A      0.663362    80A      0.681390    81A      0.684311
      82A      0.690669    83A      0.699812    84A      0.712033
      85A      0.729371    86A      0.733266    87A      0.739406
      88A      0.744396    89A      0.749881    90A      0.760170
      91A      0.769432    92A      0.776286    93A      0.794339
      94A      0.818198    95A      0.838591    96A      0.844030
      97A      0.849687    98A      0.859693    99A      0.865637
     100A      0.870498   101A      0.881143   102A      0.884363
     103A      0.894593   104A      0.898631   105A      0.909672
     106A      0.915757   107A      0.923286   108A      0.935272
     109A      0.943431   110A      0.954121   111A      0.967795
     112A      0.974049   113A      0.994996   114A      1.005011
     115A      1.021099   116A      1.032314   117A      1.058682
     118A      1.075246   119A      1.105354   120A      1.114492
     121A      1.125282   122A      1.128637   123A      1.150050
     124A      1.159290   125A      1.181331   126A      1.211437
     127A      1.231977   128A      1.243921   129A      1.257523
     130A      1.258119   131A      1.285633   132A      1.312749
     133A      1.314598   134A      1.321773   135A      1.333215
     136A      1.354776   137A      1.360176   138A      1.394130
     139A      1.407485   140A      1.426762   141A      1.434145
     142A      1.486377   143A      1.507625   144A      1.520248
     145A      1.525054   146A      1.542629   147A      1.598034
     148A      1.617726   149A      1.665777   150A      1.686296
     151A      1.693927   152A      1.701232   153A      1.716326
     154A      1.734088   155A      1.747787   156A      1.761001
     157A      1.772149   158A      1.786932   159A      1.805348
     160A      1.815172   161A      1.846711   162A      1.848128
     163A      1.866266   164A      1.882739   165A      1.891067
     166A      1.894342   167A      1.907810   168A      1.917682
     169A      1.926693   170A      1.928702   171A      1.942779
     172A      1.953109   173A      1.957058   174A      1.966594
     175A      1.969860   176A      1.986744   177A      1.990571
     178A      1.997826   179A      2.010539   180A      2.025703
     181A      2.037125   182A      2.041097   183A      2.057523
     184A      2.064222   185A      2.079471   186A      2.117231
     187A      2.134252   188A      2.142562   189A      2.159207
     190A      2.169514   191A      2.176442   192A      2.198780
     193A      2.239181   194A      2.255815   195A      2.260874
     196A      2.269129   197A      2.287884   198A      2.300814
     199A      2.309665   200A      2.321477   201A      2.328256
     202A      2.341502   203A      2.369210   204A      2.427004
     205A      2.449885   206A      2.459651   207A      2.478353
     208A      2.515109   209A      2.533566   210A      2.549267
     211A      2.569781   212A      2.583907   213A      2.606430
     214A      2.631532   215A      2.659278   216A      2.729251
     217A      2.737204   218A      2.758629   219A      2.770138
     220A      2.791382   221A      2.800502   222A      2.818966
     223A      2.833102   224A      2.868261   225A      2.873272
     226A      2.891391   227A      2.902318   228A      2.979211
     229A      3.000142   230A      3.008477   231A      3.021742
     232A      3.040554   233A      3.099177   234A      3.141330
     235A      3.167886   236A      3.208307   237A      3.294309
     238A      3.306125   239A      3.502901   240A      3.510105
     241A      3.850772   242A      3.893245   243A      3.981454

    Final Occupation by Irrep:
              A
    DOCC [    45 ]

  @RHF Final Energy:  -516.78435684033445

   => Energetics <=

    Nuclear Repulsion Energy =            654.2902158438955666
    One-Electron Energy =               -1999.1394637504556613
    Two-Electron Energy =                 828.0648910662256412
    Total Energy =                       -516.7843568403344534

Computation Completed

Properties will be evaluated at   0.000000,   0.000000,   0.000000 [a0]

Properties computed using the SCF density matrix

  Nuclear Dipole Moment: [e a0]
     X:     0.4624      Y:    -3.2644      Z:     0.7655

  Electronic Dipole Moment: [e a0]
     X:    -1.4363      Y:     2.4280      Z:    -1.7724

  Dipole Moment: [e a0]
     X:    -0.9739      Y:    -0.8364      Z:    -1.0069     Total:     1.6315

  Dipole Moment: [D]
     X:    -2.4754      Y:    -2.1259      Z:    -2.5592     Total:     4.1469

*** tstop() called on ds3 at Mon Apr 27 04:16:05 2020
Module time:
	user time   =     168.76 seconds =       2.81 minutes
	system time =      65.42 seconds =       1.09 minutes
	total time  =        360 seconds =       6.00 minutes
Total time:
	user time   =     168.76 seconds =       2.81 minutes
	system time =      65.42 seconds =       1.09 minutes
	total time  =        360 seconds =       6.00 minutes
                                     G D M A

                                 by Anthony Stone

                           version 2.2.06, 22 June 2011

               Distributed Multipoles from Gaussian wavefunctions

Starting at 4:16:5 on 27 Apr 2020

Using SCF density matrix from file ./SSI/SSI-024ASN-056PHE-1-dimer.test.22945.fchk

                         Distributed Multipole Analysis

Standard DMA

Positions and radii in angstrom
Multipole moments in atomic units, ea_0^k for rank k

C          x =  1.580326  y = -1.470845  z =  0.855121 angstrom
           Maximum rank =  0   Radius =  0.650 angstrom
                   Q00  =  -0.179653

C          x =  1.863326  y = -1.507845  z =  2.353121 angstrom
           Maximum rank =  0   Radius =  0.650 angstrom
                   Q00  =  -0.209248

C          x =  2.765326  y = -0.953845  z =  0.032121 angstrom
           Maximum rank =  0   Radius =  0.650 angstrom
                   Q00  =   0.824554

O          x =  3.633326  y = -0.216845  z =  0.521121 angstrom
           Maximum rank =  0   Radius =  0.650 angstrom
                   Q00  =  -0.804274

N          x =  2.779326  y = -1.311845  z = -1.245879 angstrom
           Maximum rank =  0   Radius =  0.650 angstrom
                   Q00  =  -0.529787

H          x =  1.302326  y = -2.465845  z =  0.505121 angstrom
           Maximum rank =  0   Radius =  0.325 angstrom
                   Q00  =   0.062897

H          x =  0.737326  y = -0.819845  z =  0.646121 angstrom
           Maximum rank =  0   Radius =  0.325 angstrom
                   Q00  =   0.126619

H          x =  2.599326  y = -0.746845  z =  2.604121 angstrom
           Maximum rank =  0   Radius =  0.325 angstrom
                   Q00  =   0.117084

H          x =  3.491326  y = -0.925845  z = -1.855879 angstrom
           Maximum rank =  0   Radius =  0.325 angstrom
                   Q00  =   0.221056

H          x =  2.051326  y = -1.911845  z = -1.613879 angstrom
           Maximum rank =  0   Radius =  0.325 angstrom
                   Q00  =   0.209081

H          x =  2.268526  y = -2.486765  z =  2.648969 angstrom
           Maximum rank =  0   Radius =  0.325 angstrom
                   Q00  =   0.083637

H          x =  0.969676  y = -1.225645  z =  2.929106 angstrom
           Maximum rank =  0   Radius =  0.325 angstrom
                   Q00  =   0.084011

C          x =  0.059326  y =  1.130155  z = -1.680879 angstrom
           Maximum rank =  0   Radius =  0.650 angstrom
                   Q00  =  -0.209314

C          x = -1.203674  y =  0.995155  z =  0.508121 angstrom
           Maximum rank =  0   Radius =  0.650 angstrom
                   Q00  =  -0.046009

C          x = -1.217674  y =  1.010155  z = -0.882879 angstrom
           Maximum rank =  0   Radius =  0.650 angstrom
                   Q00  =  -0.100234

C          x = -2.378674  y =  0.793155  z =  1.242121 angstrom
           Maximum rank =  0   Radius =  0.650 angstrom
                   Q00  =  -0.066049

C          x = -3.561674  y =  0.622155  z =  0.587121 angstrom
           Maximum rank =  0   Radius =  0.650 angstrom
                   Q00  =  -0.087744

C          x = -2.430674  y =  0.845155  z = -1.525879 angstrom
           Maximum rank =  0   Radius =  0.650 angstrom
                   Q00  =  -0.090930

C          x = -3.602674  y =  0.649155  z = -0.796879 angstrom
           Maximum rank =  0   Radius =  0.650 angstrom
                   Q00  =  -0.014219

H          x = -0.276674  y =  1.159155  z =  1.040121 angstrom
           Maximum rank =  0   Radius =  0.325 angstrom
                   Q00  =   0.063766

H          x = -2.353674  y =  0.802155  z =  2.322121 angstrom
           Maximum rank =  0   Radius =  0.325 angstrom
                   Q00  =   0.066035

H          x =  0.039326  y =  0.368155  z = -2.461879 angstrom
           Maximum rank =  0   Radius =  0.325 angstrom
                   Q00  =   0.087512

H          x =  0.897326  y =  0.878155  z = -1.035879 angstrom
           Maximum rank =  0   Radius =  0.325 angstrom
                   Q00  =   0.100975

H          x = -4.470674  y =  0.459155  z =  1.147121 angstrom
           Maximum rank =  0   Radius =  0.325 angstrom
                   Q00  =   0.058400

H          x = -2.483674  y =  0.818155  z = -2.603879 angstrom
           Maximum rank =  0   Radius =  0.325 angstrom
                   Q00  =   0.053985

H          x = -4.540674  y =  0.505155  z = -1.313879 angstrom
           Maximum rank =  0   Radius =  0.325 angstrom
                   Q00  =   0.064475

H          x =  0.252086  y =  2.107465  z = -2.147482 angstrom
           Maximum rank =  0   Radius =  0.325 angstrom
                   Q00  =   0.113374

Total multipoles referred to origin at
           x =   0.000000,  y =    0.000000,  z =    0.000000 angstrom
                   Q00  =  -0.000000

Finished at 4:16:5 on 27 Apr 2020

  DMA results are available in the Python driver through the
	  variable('DMA DISTRIBUTED MULTIPOLES')
  and
	  variable('DMA TOTAL MULTIPOLES')
  commands.

    Psi4 stopped on: Monday, 27 April 2020 04:16AM
    Psi4 wall time for execution: 0:06:00.96

*** Psi4 exiting successfully. Buy a developer a beer!
