                               Psi4 1.3.2 release

  ==> Input File <==

--------------------------------------------------------------------------
import numpy as np
set {scf_type pk
basis cc-pvdz
d_convergence 10
gdma_switch   0
gdma_limit    0
gdma_origin   [ 0.0,  0.0,  0.0 ]
}
molecule test {
    units Angstrom
    0 1
    --
    0 1
    C                1.589304189723824     2.981153926157347     1.423175986647869
    C                1.243304189723824     2.212153926157347     0.175175986647869
    O                0.516304189723824     2.704153926157347    -0.678824013352131
    N                1.780304189723824     1.007153926157347     0.047175986647869
    H                2.265304189723824     3.779153926157347     1.144175986647869
    H                2.150304189723824     2.337153926157347     2.100175986647869
    H                1.612304189723823     0.473153926157347    -0.794824013352131
    H                2.370304189723824     0.646153926157347     0.773175986647869
    H                0.703683189723823     3.378403926157347     1.940736986647869
    C                0.465304189723824    -3.209846073842653     0.413175986647869
    C               -1.618695810276176    -0.246846073842653     0.087175986647869
    C               -0.503695810276176    -2.139846073842653    -0.014824013352131
    C               -1.247695810276176    -2.024846073842653    -1.151824013352131
    N               -0.759695810276176    -1.015846073842653     0.744175986647869
    N               -1.930695810276176    -0.830846073842653    -1.064824013352131
    H               -2.006695810276176     0.704153926157347     0.431175986647869
    H               -2.581695810276176    -0.452846073842653    -1.744824013352131
    H               -1.274695810276176    -2.736846073842653    -1.963824013352131
    H                0.073304189723824    -4.173846073842654     0.091175986647869
    H                0.524304189723824    -3.222846073842653     1.502175986647869
    H                1.473904189723824    -3.073146073842653    -0.004005013352131

}
e, wfn = energy('scf', return_wfn=True)
gdma(wfn)
dmavals = variable('DMA DISTRIBUTED MULTIPOLES')
charges = np.array(dmavals)
print(charges)
np.save('SSI-101ASN-125HIE-1-dimer.npy', np.array(charges))--------------------------------------------------------------------------

*** tstart() called on ds3
*** at Mon Apr 27 16:37:31 2020

   => Loading Basis Set <=

    Name: CC-PVDZ
    Role: ORBITAL
    Keyword: BASIS
    atoms 1-2, 10-13 entry C          line   138 file /theoryfs2/ds/metcalf/miniconda2/envs/tf2gpu/share/psi4/basis/cc-pvdz.gbs
    atoms 3          entry O          line   198 file /theoryfs2/ds/metcalf/miniconda2/envs/tf2gpu/share/psi4/basis/cc-pvdz.gbs
    atoms 4, 14-15   entry N          line   168 file /theoryfs2/ds/metcalf/miniconda2/envs/tf2gpu/share/psi4/basis/cc-pvdz.gbs
    atoms 5-9, 16-21 entry H          line    22 file /theoryfs2/ds/metcalf/miniconda2/envs/tf2gpu/share/psi4/basis/cc-pvdz.gbs

         ---------------------------------------------------------
                                   SCF
               by Justin Turney, Rob Parrish, Andy Simmonett
                          and Daniel G. A. Smith
                              RHF Reference
                        1 Threads,    500 MiB Core
         ---------------------------------------------------------

  ==> Geometry <==

    Molecular point group: c1
    Full point group: C1

    Geometry (in Angstrom), charge = 0, multiplicity = 1:

       Center              X                  Y                   Z               Mass
    ------------   -----------------  -----------------  -----------------  -----------------
         C            1.589304189724     2.981153926157     1.423175986648    12.000000000000
         C            1.243304189724     2.212153926157     0.175175986648    12.000000000000
         O            0.516304189724     2.704153926157    -0.678824013352    15.994914619570
         N            1.780304189724     1.007153926157     0.047175986648    14.003074004430
         H            2.265304189724     3.779153926157     1.144175986648     1.007825032230
         H            2.150304189724     2.337153926157     2.100175986648     1.007825032230
         H            1.612304189724     0.473153926157    -0.794824013352     1.007825032230
         H            2.370304189724     0.646153926157     0.773175986648     1.007825032230
         H            0.703683189724     3.378403926157     1.940736986648     1.007825032230
         C            0.465304189724    -3.209846073843     0.413175986648    12.000000000000
         C           -1.618695810276    -0.246846073843     0.087175986648    12.000000000000
         C           -0.503695810276    -2.139846073843    -0.014824013352    12.000000000000
         C           -1.247695810276    -2.024846073843    -1.151824013352    12.000000000000
         N           -0.759695810276    -1.015846073843     0.744175986648    14.003074004430
         N           -1.930695810276    -0.830846073843    -1.064824013352    14.003074004430
         H           -2.006695810276     0.704153926157     0.431175986648     1.007825032230
         H           -2.581695810276    -0.452846073843    -1.744824013352     1.007825032230
         H           -1.274695810276    -2.736846073843    -1.963824013352     1.007825032230
         H            0.073304189724    -4.173846073843     0.091175986648     1.007825032230
         H            0.524304189724    -3.222846073843     1.502175986648     1.007825032230
         H            1.473904189724    -3.073146073843    -0.004005013352     1.007825032230

  Running in c1 symmetry.

  Rotational constants: A =      0.07269  B =      0.02126  C =      0.01850 [cm^-1]
  Rotational constants: A =   2179.10333  B =    637.31539  C =    554.61783 [MHz]
  Nuclear repulsion =  506.899542839785340

  Charge       = 0
  Multiplicity = 1
  Electrons    = 76
  Nalpha       = 38
  Nbeta        = 38

  ==> Algorithm <==

  SCF Algorithm Type is PK.
  DIIS enabled.
  MOM disabled.
  Fractional occupation disabled.
  Guess Type is SAD.
  Energy threshold   = 1.00e-06
  Density threshold  = 1.00e-10
  Integral threshold = 0.00e+00

  ==> Primary Basis <==

  Basis Set: CC-PVDZ
    Blend: CC-PVDZ
    Number of shells: 93
    Number of basis function: 195
    Number of Cartesian functions: 205
    Spherical Harmonics?: true
    Max angular momentum: 2

  ==> Pre-Iterations <==

   -------------------------------------------------------
    Irrep   Nso     Nmo     Nalpha   Nbeta   Ndocc  Nsocc
   -------------------------------------------------------
     A        195     195       0       0       0       0
   -------------------------------------------------------
    Total     195     195      38      38      38       0
   -------------------------------------------------------

  ==> Integral Setup <==

  Using integral reordering PK algorithm.
  Sizing the integral batches needed.
  Building batch lookup table.
   Calculation information:
      Number of atoms:                  21
      Number of AO shells:              93
      Number of primitives:            275
      Number of atomic orbitals:       205
      Number of basis functions:       195

      Integral cutoff                 1.00e-12
      Number of threads:                 1

	Batch   1 pq = [       0,    9405] index = [             0,44231715] size =     44231715
	Batch   2 pq = [    9405,   13301] index = [      44231715,88464951] size =     44233236
	Batch   3 pq = [   13301,   16290] index = [      88464951,132690195] size =     44225244
	Batch   4 pq = [   16290,   18810] index = [     132690195,176917455] size =     44227260
	Batch   5 pq = [   18810,   19110] index = [     176917455,182605605] size =      5688150
  Task number: 17
  Buffer size: 11059200
  Buffer per thread: 2
  We computed 7867047 shell quartets total.
  Whereas there are 9555006 unique shell quartets.

  ==> DiskJK: Disk-Based J/K Matrices <==

    J tasked:                  Yes
    K tasked:                  Yes
    wK tasked:                  No
    Memory [MiB]:              375
    Schwarz Cutoff:          1E-12

    OpenMP threads:              1

  Minimum eigenvalue in the overlap matrix is 1.2443902469E-03.
  Using Symmetric Orthogonalization.

  SCF Guess: Superposition of Atomic Densities via on-the-fly atomic UHF.

  ==> Iterations <==

                        Total Energy        Delta E     RMS |[F,P]|

   @RHF iter SAD:  -470.79682170186811   -4.70797e+02   0.00000e+00
   @RHF iter   1:  -471.58766455852111   -7.90843e-01   3.62488e-03 DIIS
   @RHF iter   2:  -471.80177382568797   -2.14109e-01   2.02563e-03 DIIS
   @RHF iter   3:  -471.86291889216295   -6.11451e-02   4.25656e-04 DIIS
   @RHF iter   4:  -471.86713357092378   -4.21468e-03   1.59873e-04 DIIS
   @RHF iter   5:  -471.86775692648848   -6.23356e-04   2.92326e-05 DIIS
   @RHF iter   6:  -471.86779599930992   -3.90728e-05   1.45318e-05 DIIS
   @RHF iter   7:  -471.86780405893523   -8.05963e-06   5.52391e-06 DIIS
   @RHF iter   8:  -471.86780574488705   -1.68595e-06   2.12215e-06 DIIS
   @RHF iter   9:  -471.86780598448576   -2.39599e-07   1.00248e-06 DIIS
   @RHF iter  10:  -471.86780602295454   -3.84688e-08   2.35226e-07 DIIS
   @RHF iter  11:  -471.86780602642483   -3.47029e-09   7.64095e-08 DIIS
   @RHF iter  12:  -471.86780602679386   -3.69027e-10   4.06262e-08 DIIS
   @RHF iter  13:  -471.86780602687236   -7.85008e-11   1.32983e-08 DIIS
   @RHF iter  14:  -471.86780602688390   -1.15392e-11   5.59769e-09 DIIS
   @RHF iter  15:  -471.86780602688896   -5.05906e-12   2.05728e-09 DIIS
   @RHF iter  16:  -471.86780602688810    8.52651e-13   6.41793e-10 DIIS
   @RHF iter  17:  -471.86780602688725    8.52651e-13   2.46673e-10 DIIS
   @RHF iter  18:  -471.86780602688918   -1.93268e-12   6.95457e-11 DIIS
  Energy and wave function converged.

  ==> Post-Iterations <==

    Orbital Energies [Eh]
    ---------------------

    Doubly Occupied:

       1A    -20.491775     2A    -15.619222     3A    -15.575013
       4A    -15.526640     5A    -11.336356     6A    -11.289315
       7A    -11.250634     8A    -11.243173     9A    -11.233085
      10A    -11.228843    11A     -1.359399    12A     -1.339042
      13A     -1.205642    14A     -1.152175    15A     -1.029747
      16A     -0.993671    17A     -0.942195    18A     -0.815203
      19A     -0.788018    20A     -0.760539    21A     -0.739869
      22A     -0.716308    23A     -0.647306    24A     -0.609312
      25A     -0.606475    26A     -0.601132    27A     -0.594982
      28A     -0.561754    29A     -0.556606    30A     -0.548324
      31A     -0.541940    32A     -0.522417    33A     -0.513209
      34A     -0.411149    35A     -0.400322    36A     -0.393707
      37A     -0.375063    38A     -0.307871

    Virtual:

      39A      0.167903    40A      0.182677    41A      0.187267
      42A      0.195465    43A      0.209793    44A      0.217655
      45A      0.227674    46A      0.236101    47A      0.241699
      48A      0.249022    49A      0.274737    50A      0.291231
      51A      0.293961    52A      0.302838    53A      0.371317
      54A      0.389104    55A      0.398456    56A      0.411895
      57A      0.460414    58A      0.484198    59A      0.496716
      60A      0.571990    61A      0.601092    62A      0.624948
      63A      0.641448    64A      0.649141    65A      0.659530
      66A      0.673728    67A      0.685298    68A      0.697971
      69A      0.710745    70A      0.727293    71A      0.735402
      72A      0.752044    73A      0.766268    74A      0.782328
      75A      0.802591    76A      0.837158    77A      0.843134
      78A      0.852436    79A      0.861404    80A      0.866205
      81A      0.879379    82A      0.901827    83A      0.904955
      84A      0.918089    85A      0.927958    86A      0.943894
      87A      0.957945    88A      0.966021    89A      0.975110
      90A      0.998282    91A      1.020972    92A      1.036302
      93A      1.051051    94A      1.077764    95A      1.088996
      96A      1.102423    97A      1.122175    98A      1.140766
      99A      1.150206   100A      1.160943   101A      1.223164
     102A      1.241829   103A      1.276202   104A      1.305336
     105A      1.319533   106A      1.329266   107A      1.341959
     108A      1.376664   109A      1.390721   110A      1.418953
     111A      1.425669   112A      1.430842   113A      1.454775
     114A      1.473882   115A      1.485452   116A      1.502387
     117A      1.526909   118A      1.570114   119A      1.615261
     120A      1.634344   121A      1.645067   122A      1.670487
     123A      1.687813   124A      1.715587   125A      1.743453
     126A      1.782684   127A      1.813879   128A      1.828454
     129A      1.842452   130A      1.865516   131A      1.875390
     132A      1.892870   133A      1.896199   134A      1.911697
     135A      1.915069   136A      1.924501   137A      1.937742
     138A      1.958193   139A      1.959134   140A      1.969382
     141A      1.976822   142A      1.999638   143A      2.030428
     144A      2.050076   145A      2.073827   146A      2.088415
     147A      2.125067   148A      2.142832   149A      2.160048
     150A      2.204815   151A      2.228732   152A      2.247039
     153A      2.252956   154A      2.290885   155A      2.311215
     156A      2.329943   157A      2.366373   158A      2.427471
     159A      2.434541   160A      2.445862   161A      2.463670
     162A      2.479476   163A      2.497537   164A      2.556465
     165A      2.569283   166A      2.590179   167A      2.610772
     168A      2.651461   169A      2.686031   170A      2.726218
     171A      2.749008   172A      2.754618   173A      2.779924
     174A      2.781750   175A      2.795228   176A      2.828140
     177A      2.837076   178A      2.850182   179A      2.857971
     180A      2.886352   181A      2.928050   182A      2.963669
     183A      2.988798   184A      3.061232   185A      3.107724
     186A      3.142885   187A      3.155755   188A      3.232370
     189A      3.304924   190A      3.464762   191A      3.522375
     192A      3.543049   193A      3.795446   194A      3.888060
     195A      3.921441

    Final Occupation by Irrep:
              A
    DOCC [    38 ]

  @RHF Final Energy:  -471.86780602688918

   => Energetics <=

    Nuclear Repulsion Energy =            506.8995428397853402
    One-Electron Energy =               -1647.8798251323723889
    Two-Electron Energy =                 669.1124762656979783
    Total Energy =                       -471.8678060268891841

Computation Completed

Properties will be evaluated at   0.000000,   0.000000,   0.000000 [a0]

Properties computed using the SCF density matrix

  Nuclear Dipole Moment: [e a0]
     X:     4.9834      Y:    -2.1795      Z:     3.2555

  Electronic Dipole Moment: [e a0]
     X:    -4.7597      Y:     1.4359      Z:    -3.4102

  Dipole Moment: [e a0]
     X:     0.2237      Y:    -0.7437      Z:    -0.1547     Total:     0.7918

  Dipole Moment: [D]
     X:     0.5685      Y:    -1.8902      Z:    -0.3931     Total:     2.0126

*** tstop() called on ds3 at Mon Apr 27 16:39:14 2020
Module time:
	user time   =      71.35 seconds =       1.19 minutes
	system time =      36.23 seconds =       0.60 minutes
	total time  =        103 seconds =       1.72 minutes
Total time:
	user time   =      71.35 seconds =       1.19 minutes
	system time =      36.23 seconds =       0.60 minutes
	total time  =        103 seconds =       1.72 minutes
                                     G D M A

                                 by Anthony Stone

                           version 2.2.06, 22 June 2011

               Distributed Multipoles from Gaussian wavefunctions

Starting at 16:39:14 on 27 Apr 2020

Using SCF density matrix from file ./SSI/SSI-101ASN-125HIE-1-dimer.test.27455.fchk

                         Distributed Multipole Analysis

Standard DMA

Positions and radii in angstrom
Multipole moments in atomic units, ea_0^k for rank k

C          x =  1.589304  y =  2.981154  z =  1.423176 angstrom
           Maximum rank =  0   Radius =  0.650 angstrom
                   Q00  =  -0.260827

C          x =  1.243304  y =  2.212154  z =  0.175176 angstrom
           Maximum rank =  0   Radius =  0.650 angstrom
                   Q00  =   0.821464

O          x =  0.516304  y =  2.704154  z = -0.678824 angstrom
           Maximum rank =  0   Radius =  0.650 angstrom
                   Q00  =  -0.804878

N          x =  1.780304  y =  1.007154  z =  0.047176 angstrom
           Maximum rank =  0   Radius =  0.650 angstrom
                   Q00  =  -0.518231

H          x =  2.265304  y =  3.779154  z =  1.144176 angstrom
           Maximum rank =  0   Radius =  0.325 angstrom
                   Q00  =   0.130207

H          x =  2.150304  y =  2.337154  z =  2.100176 angstrom
           Maximum rank =  0   Radius =  0.325 angstrom
                   Q00  =   0.071300

H          x =  1.612304  y =  0.473154  z = -0.794824 angstrom
           Maximum rank =  0   Radius =  0.325 angstrom
                   Q00  =   0.226907

H          x =  2.370304  y =  0.646154  z =  0.773176 angstrom
           Maximum rank =  0   Radius =  0.325 angstrom
                   Q00  =   0.203259

H          x =  0.703683  y =  3.378404  z =  1.940737 angstrom
           Maximum rank =  0   Radius =  0.325 angstrom
                   Q00  =   0.129875

C          x =  0.465304  y = -3.209846  z =  0.413176 angstrom
           Maximum rank =  0   Radius =  0.650 angstrom
                   Q00  =  -0.196120

C          x = -1.618696  y = -0.246846  z =  0.087176 angstrom
           Maximum rank =  0   Radius =  0.650 angstrom
                   Q00  =   0.472293

C          x = -0.503696  y = -2.139846  z = -0.014824 angstrom
           Maximum rank =  0   Radius =  0.650 angstrom
                   Q00  =   0.213982

C          x = -1.247696  y = -2.024846  z = -1.151824 angstrom
           Maximum rank =  0   Radius =  0.650 angstrom
                   Q00  =  -0.001266

N          x = -0.759696  y = -1.015846  z =  0.744176 angstrom
           Maximum rank =  0   Radius =  0.650 angstrom
                   Q00  =  -0.774845

N          x = -1.930696  y = -0.830846  z = -1.064824 angstrom
           Maximum rank =  0   Radius =  0.650 angstrom
                   Q00  =  -0.477822

H          x = -2.006696  y =  0.704154  z =  0.431176 angstrom
           Maximum rank =  0   Radius =  0.325 angstrom
                   Q00  =   0.130209

H          x = -2.581696  y = -0.452846  z = -1.744824 angstrom
           Maximum rank =  0   Radius =  0.325 angstrom
                   Q00  =   0.225732

H          x = -1.274696  y = -2.736846  z = -1.963824 angstrom
           Maximum rank =  0   Radius =  0.325 angstrom
                   Q00  =   0.098726

H          x =  0.073304  y = -4.173846  z =  0.091176 angstrom
           Maximum rank =  0   Radius =  0.325 angstrom
                   Q00  =   0.098706

H          x =  0.524304  y = -3.222846  z =  1.502176 angstrom
           Maximum rank =  0   Radius =  0.325 angstrom
                   Q00  =   0.118191

H          x =  1.473904  y = -3.073146  z = -0.004005 angstrom
           Maximum rank =  0   Radius =  0.325 angstrom
                   Q00  =   0.093136

Total multipoles referred to origin at
           x =   0.000000,  y =    0.000000,  z =    0.000000 angstrom
                   Q00  =  -0.000000

Finished at 16:39:14 on 27 Apr 2020

  DMA results are available in the Python driver through the
	  variable('DMA DISTRIBUTED MULTIPOLES')
  and
	  variable('DMA TOTAL MULTIPOLES')
  commands.

    Psi4 stopped on: Monday, 27 April 2020 04:39PM
    Psi4 wall time for execution: 0:01:43.13

*** Psi4 exiting successfully. Buy a developer a beer!
