                               Psi4 1.3.2 release

  ==> Input File <==

--------------------------------------------------------------------------
import numpy as np
set {scf_type pk
basis cc-pvdz
d_convergence 10
gdma_switch   0
gdma_limit    0
gdma_origin   [ 0.0,  0.0,  0.0 ]
}
molecule test {
    units Angstrom
    -1 1
    --
    -1 1
    C               -2.050055953268974     0.350229678837799     0.662540056324682
    C               -1.757055953268975     1.050229678837799     1.999540056324682
    C               -1.691055953268975     1.259229678837799    -0.507459943675318
    O               -1.303055953268974    -0.855770321162201     0.581540056324682
    H               -3.114055953268974     0.114229678837799     0.606540056324682
    H               -2.263055953268974     2.011229678837799     1.999540056324682
    H               -0.652055953268975     1.583229678837799    -0.449459943675318
    H               -1.843055953268974     0.729229678837799    -1.445459943675318
    H               -2.333055953268975     2.139229678837799    -0.509459943675318
    H               -0.564055953268975    -0.733770321162201    -0.074459943675318
    H               -0.678645953268975     1.222839678837799     2.130870056324682
    H               -2.190515953268974     0.455929678837799     2.817420056324682
    C                2.784944046731026    -0.516770321162201    -1.611459943675318
    C                1.642944046731025    -0.441770321162201    -0.608459943675318
    O                0.508944046731026    -0.742770321162201    -1.038459943675318
    O                1.878944046731025    -0.046770321162201     0.543540056324682
    H                2.617944046731026     0.222229678837799    -2.390459943675318
    H                2.751944046731025    -1.499770321162201    -2.086459943675318
    H                3.795174046731026    -0.387610321162201    -1.195822943675318

}
e, wfn = energy('scf', return_wfn=True)
gdma(wfn)
dmavals = variable('DMA DISTRIBUTED MULTIPOLES')
charges = np.array(dmavals)
print(charges)
np.save('SSI-189THR-207GLU-1-dimer.npy', np.array(charges))--------------------------------------------------------------------------

*** tstart() called on ds3
*** at Tue Apr 28 08:50:13 2020

   => Loading Basis Set <=

    Name: CC-PVDZ
    Role: ORBITAL
    Keyword: BASIS
    atoms 1-3, 13-14  entry C          line   138 file /theoryfs2/ds/metcalf/miniconda2/envs/tf2gpu/share/psi4/basis/cc-pvdz.gbs
    atoms 4, 15-16    entry O          line   198 file /theoryfs2/ds/metcalf/miniconda2/envs/tf2gpu/share/psi4/basis/cc-pvdz.gbs
    atoms 5-12, 17-19 entry H          line    22 file /theoryfs2/ds/metcalf/miniconda2/envs/tf2gpu/share/psi4/basis/cc-pvdz.gbs

         ---------------------------------------------------------
                                   SCF
               by Justin Turney, Rob Parrish, Andy Simmonett
                          and Daniel G. A. Smith
                              RHF Reference
                        1 Threads,    500 MiB Core
         ---------------------------------------------------------

  ==> Geometry <==

    Molecular point group: c1
    Full point group: C1

    Geometry (in Angstrom), charge = -1, multiplicity = 1:

       Center              X                  Y                   Z               Mass
    ------------   -----------------  -----------------  -----------------  -----------------
         C           -2.050055953269     0.350229678838     0.662540056325    12.000000000000
         C           -1.757055953269     1.050229678838     1.999540056325    12.000000000000
         C           -1.691055953269     1.259229678838    -0.507459943675    12.000000000000
         O           -1.303055953269    -0.855770321162     0.581540056325    15.994914619570
         H           -3.114055953269     0.114229678838     0.606540056325     1.007825032230
         H           -2.263055953269     2.011229678838     1.999540056325     1.007825032230
         H           -0.652055953269     1.583229678838    -0.449459943675     1.007825032230
         H           -1.843055953269     0.729229678838    -1.445459943675     1.007825032230
         H           -2.333055953269     2.139229678838    -0.509459943675     1.007825032230
         H           -0.564055953269    -0.733770321162    -0.074459943675     1.007825032230
         H           -0.678645953269     1.222839678838     2.130870056325     1.007825032230
         H           -2.190515953269     0.455929678838     2.817420056325     1.007825032230
         C            2.784944046731    -0.516770321162    -1.611459943675    12.000000000000
         C            1.642944046731    -0.441770321162    -0.608459943675    12.000000000000
         O            0.508944046731    -0.742770321162    -1.038459943675    15.994914619570
         O            1.878944046731    -0.046770321162     0.543540056325    15.994914619570
         H            2.617944046731     0.222229678838    -2.390459943675     1.007825032230
         H            2.751944046731    -1.499770321162    -2.086459943675     1.007825032230
         H            3.795174046731    -0.387610321162    -1.195822943675     1.007825032230

  Running in c1 symmetry.

  Rotational constants: A =      0.12563  B =      0.03136  C =      0.02958 [cm^-1]
  Rotational constants: A =   3766.41052  B =    940.26893  C =    886.76595 [MHz]
  Nuclear repulsion =  392.086186674000771

  Charge       = -1
  Multiplicity = 1
  Electrons    = 66
  Nalpha       = 33
  Nbeta        = 33

  ==> Algorithm <==

  SCF Algorithm Type is PK.
  DIIS enabled.
  MOM disabled.
  Fractional occupation disabled.
  Guess Type is SAD.
  Energy threshold   = 1.00e-06
  Density threshold  = 1.00e-10
  Integral threshold = 0.00e+00

  ==> Primary Basis <==

  Basis Set: CC-PVDZ
    Blend: CC-PVDZ
    Number of shells: 81
    Number of basis function: 167
    Number of Cartesian functions: 175
    Spherical Harmonics?: true
    Max angular momentum: 2

  ==> Pre-Iterations <==

   -------------------------------------------------------
    Irrep   Nso     Nmo     Nalpha   Nbeta   Ndocc  Nsocc
   -------------------------------------------------------
     A        167     167       0       0       0       0
   -------------------------------------------------------
    Total     167     167      33      33      33       0
   -------------------------------------------------------

  ==> Integral Setup <==

  Using integral reordering PK algorithm.
  Sizing the integral batches needed.
  Building batch lookup table.
   Calculation information:
      Number of atoms:                  19
      Number of AO shells:              81
      Number of primitives:            231
      Number of atomic orbitals:       175
      Number of basis functions:       167

      Integral cutoff                 1.00e-12
      Number of threads:                 1

	Batch   1 pq = [       0,    9405] index = [             0,44231715] size =     44231715
	Batch   2 pq = [    9405,   13301] index = [      44231715,88464951] size =     44233236
	Batch   3 pq = [   13301,   14028] index = [      88464951,98399406] size =      9934455
  Task number: 9
  Buffer size: 11059200
  Buffer per thread: 2
  We computed 4913239 shell quartets total.
  Whereas there are 5516181 unique shell quartets.

  ==> DiskJK: Disk-Based J/K Matrices <==

    J tasked:                  Yes
    K tasked:                  Yes
    wK tasked:                  No
    Memory [MiB]:              375
    Schwarz Cutoff:          1E-12

    OpenMP threads:              1

  Minimum eigenvalue in the overlap matrix is 4.3539027577E-03.
  Using Symmetric Orthogonalization.

  SCF Guess: Superposition of Atomic Densities via on-the-fly atomic UHF.

  ==> Iterations <==

                        Total Energy        Delta E     RMS |[F,P]|

   @RHF iter SAD:  -418.82456617618220   -4.18825e+02   0.00000e+00
   @RHF iter   1:  -420.08203880333031   -1.25747e+00   4.69852e-03 DIIS
   @RHF iter   2:  -420.32435292617373   -2.42314e-01   2.55572e-03 DIIS
   @RHF iter   3:  -420.39110596622555   -6.67530e-02   4.15455e-04 DIIS
   @RHF iter   4:  -420.39427187733043   -3.16591e-03   1.67377e-04 DIIS
   @RHF iter   5:  -420.39475172179152   -4.79844e-04   3.43697e-05 DIIS
   @RHF iter   6:  -420.39477205347515   -2.03317e-05   1.46074e-05 DIIS
   @RHF iter   7:  -420.39477552347972   -3.47000e-06   3.08945e-06 DIIS
   @RHF iter   8:  -420.39477586233704   -3.38857e-07   1.37259e-06 DIIS
   @RHF iter   9:  -420.39477592190997   -5.95729e-08   5.51559e-07 DIIS
   @RHF iter  10:  -420.39477593332310   -1.14131e-08   1.81450e-07 DIIS
   @RHF iter  11:  -420.39477593465011   -1.32701e-09   6.68403e-08 DIIS
   @RHF iter  12:  -420.39477593477318   -1.23066e-10   2.11744e-08 DIIS
   @RHF iter  13:  -420.39477593478739   -1.42109e-11   5.13332e-09 DIIS
   @RHF iter  14:  -420.39477593478949   -2.10321e-12   1.43771e-09 DIIS
   @RHF iter  15:  -420.39477593478694    2.55795e-12   3.81637e-10 DIIS
   @RHF iter  16:  -420.39477593478961   -2.67164e-12   1.09385e-10 DIIS
   @RHF iter  17:  -420.39477593478881    7.95808e-13   3.46696e-11 DIIS
  Energy and wave function converged.

  ==> Post-Iterations <==

    Orbital Energies [Eh]
    ---------------------

    Doubly Occupied:

       1A    -20.322791     2A    -20.302794     3A    -20.295229
       4A    -11.151599     5A    -11.114940     6A    -11.072757
       7A    -11.070583     8A    -11.066229     9A     -1.199322
      10A     -1.140891    11A     -1.083011    12A     -0.878506
      13A     -0.820055    14A     -0.785265    15A     -0.642503
      16A     -0.548729    17A     -0.482076    18A     -0.478794
      19A     -0.446502    20A     -0.441312    21A     -0.435911
      22A     -0.427870    23A     -0.400992    24A     -0.388516
      25A     -0.369885    26A     -0.349934    27A     -0.342121
      28A     -0.338092    29A     -0.290665    30A     -0.236106
      31A     -0.215739    32A     -0.207670    33A     -0.205295

    Virtual:

      34A      0.320531    35A      0.336873    36A      0.369069
      37A      0.372903    38A      0.376400    39A      0.393608
      40A      0.399819    41A      0.418490    42A      0.423394
      43A      0.441026    44A      0.468408    45A      0.502290
      46A      0.548175    47A      0.558252    48A      0.570804
      49A      0.631156    50A      0.682737    51A      0.723683
      52A      0.743785    53A      0.772354    54A      0.797907
      55A      0.821733    56A      0.830769    57A      0.853635
      58A      0.882461    59A      0.922150    60A      0.937037
      61A      0.955174    62A      0.972615    63A      0.982366
      64A      1.002818    65A      1.012474    66A      1.019501
      67A      1.025546    68A      1.034375    69A      1.042312
      70A      1.048999    71A      1.053951    72A      1.072852
      73A      1.076189    74A      1.087029    75A      1.098427
      76A      1.122285    77A      1.147570    78A      1.205837
      79A      1.282520    80A      1.291108    81A      1.311635
      82A      1.329105    83A      1.342734    84A      1.403329
      85A      1.510830    86A      1.511432    87A      1.535406
      88A      1.536188    89A      1.562274    90A      1.592239
      91A      1.618713    92A      1.648513    93A      1.657844
      94A      1.695143    95A      1.706040    96A      1.739307
      97A      1.742509    98A      1.790625    99A      1.807548
     100A      1.824781   101A      1.831635   102A      1.837415
     103A      1.846113   104A      1.904067   105A      1.968640
     106A      1.991196   107A      2.017530   108A      2.032381
     109A      2.055502   110A      2.059881   111A      2.069578
     112A      2.081602   113A      2.098063   114A      2.108578
     115A      2.126367   116A      2.144406   117A      2.157245
     118A      2.194081   119A      2.200659   120A      2.211975
     121A      2.216341   122A      2.246292   123A      2.265790
     124A      2.309784   125A      2.329876   126A      2.370042
     127A      2.404258   128A      2.420173   129A      2.453112
     130A      2.457693   131A      2.479092   132A      2.528602
     133A      2.532171   134A      2.628395   135A      2.660858
     136A      2.687765   137A      2.701138   138A      2.710226
     139A      2.741720   140A      2.745047   141A      2.806397
     142A      2.863643   143A      2.902128   144A      2.907040
     145A      2.936163   146A      2.940990   147A      2.951251
     148A      2.974558   149A      3.025478   150A      3.052979
     151A      3.078452   152A      3.126590   153A      3.213058
     154A      3.268577   155A      3.276118   156A      3.521707
     157A      3.589262   158A      3.592945   159A      3.644028
     160A      3.692419   161A      3.798799   162A      3.893678
     163A      3.900911   164A      4.049234   165A      4.076937
     166A      4.186820   167A      4.556050

    Final Occupation by Irrep:
              A
    DOCC [    33 ]

  @RHF Final Energy:  -420.39477593478881

   => Energetics <=

    Nuclear Repulsion Energy =            392.0861866740007713
    One-Electron Energy =               -1365.8565557275926494
    Two-Electron Energy =                 553.3755931188030672
    Total Energy =                       -420.3947759347887541

Computation Completed

Properties will be evaluated at   0.000000,   0.000000,   0.000000 [a0]

Properties computed using the SCF density matrix

  Nuclear Dipole Moment: [e a0]
     X:    -4.1885      Y:     5.4828      Z:    -0.5595

  Electronic Dipole Moment: [e a0]
     X:     3.5332      Y:    -4.5607      Z:     0.0190

  Dipole Moment: [e a0]
     X:    -0.6553      Y:     0.9222      Z:    -0.5404     Total:     1.2537

  Dipole Moment: [D]
     X:    -1.6655      Y:     2.3439      Z:    -1.3736     Total:     3.1866

*** tstop() called on ds3 at Tue Apr 28 08:51:02 2020
Module time:
	user time   =      35.11 seconds =       0.59 minutes
	system time =      14.84 seconds =       0.25 minutes
	total time  =         49 seconds =       0.82 minutes
Total time:
	user time   =      35.11 seconds =       0.59 minutes
	system time =      14.84 seconds =       0.25 minutes
	total time  =         49 seconds =       0.82 minutes
                                     G D M A

                                 by Anthony Stone

                           version 2.2.06, 22 June 2011

               Distributed Multipoles from Gaussian wavefunctions

Starting at 8:51:2 on 28 Apr 2020

Using SCF density matrix from file ./SSI/SSI-189THR-207GLU-1-dimer.test.16043.fchk

                         Distributed Multipole Analysis

Standard DMA

Positions and radii in angstrom
Multipole moments in atomic units, ea_0^k for rank k

C          x = -2.050056  y =  0.350230  z =  0.662540 angstrom
           Maximum rank =  0   Radius =  0.650 angstrom
                   Q00  =   0.299188

C          x = -1.757056  y =  1.050230  z =  1.999540 angstrom
           Maximum rank =  0   Radius =  0.650 angstrom
                   Q00  =  -0.260219

C          x = -1.691056  y =  1.259230  z = -0.507460 angstrom
           Maximum rank =  0   Radius =  0.650 angstrom
                   Q00  =  -0.259346

O          x = -1.303056  y = -0.855770  z =  0.581540 angstrom
           Maximum rank =  0   Radius =  0.650 angstrom
                   Q00  =  -0.768330

H          x = -3.114056  y =  0.114230  z =  0.606540 angstrom
           Maximum rank =  0   Radius =  0.325 angstrom
                   Q00  =  -0.043540

H          x = -2.263056  y =  2.011230  z =  1.999540 angstrom
           Maximum rank =  0   Radius =  0.325 angstrom
                   Q00  =   0.021996

H          x = -0.652056  y =  1.583230  z = -0.449460 angstrom
           Maximum rank =  0   Radius =  0.325 angstrom
                   Q00  =   0.107550

H          x = -1.843056  y =  0.729230  z = -1.445460 angstrom
           Maximum rank =  0   Radius =  0.325 angstrom
                   Q00  =   0.083482

H          x = -2.333056  y =  2.139230  z = -0.509460 angstrom
           Maximum rank =  0   Radius =  0.325 angstrom
                   Q00  =   0.017387

H          x = -0.564056  y = -0.733770  z = -0.074460 angstrom
           Maximum rank =  0   Radius =  0.325 angstrom
                   Q00  =   0.573365

H          x = -0.678646  y =  1.222840  z =  2.130870 angstrom
           Maximum rank =  0   Radius =  0.325 angstrom
                   Q00  =   0.106930

H          x = -2.190516  y =  0.455930  z =  2.817420 angstrom
           Maximum rank =  0   Radius =  0.325 angstrom
                   Q00  =   0.059691

C          x =  2.784944  y = -0.516770  z = -1.611460 angstrom
           Maximum rank =  0   Radius =  0.650 angstrom
                   Q00  =  -0.255203

C          x =  1.642944  y = -0.441770  z = -0.608460 angstrom
           Maximum rank =  0   Radius =  0.650 angstrom
                   Q00  =   0.892072

O          x =  0.508944  y = -0.742770  z = -1.038460 angstrom
           Maximum rank =  0   Radius =  0.650 angstrom
                   Q00  =  -0.914646

O          x =  1.878944  y = -0.046770  z =  0.543540 angstrom
           Maximum rank =  0   Radius =  0.650 angstrom
                   Q00  =  -0.869655

H          x =  2.617944  y =  0.222230  z = -2.390460 angstrom
           Maximum rank =  0   Radius =  0.325 angstrom
                   Q00  =   0.081727

H          x =  2.751944  y = -1.499770  z = -2.086460 angstrom
           Maximum rank =  0   Radius =  0.325 angstrom
                   Q00  =   0.069966

H          x =  3.795174  y = -0.387610  z = -1.195823 angstrom
           Maximum rank =  0   Radius =  0.325 angstrom
                   Q00  =   0.057585

Total multipoles referred to origin at
           x =   0.000000,  y =    0.000000,  z =    0.000000 angstrom
                   Q00  =  -1.000000

Finished at 8:51:2 on 28 Apr 2020

  DMA results are available in the Python driver through the
	  variable('DMA DISTRIBUTED MULTIPOLES')
  and
	  variable('DMA TOTAL MULTIPOLES')
  commands.

    Psi4 stopped on: Tuesday, 28 April 2020 08:51AM
    Psi4 wall time for execution: 0:00:48.84

*** Psi4 exiting successfully. Buy a developer a beer!
