                               Psi4 1.3.2 release

  ==> Input File <==

--------------------------------------------------------------------------
import numpy as np
set {scf_type pk
basis cc-pvdz
d_convergence 10
gdma_switch   0
gdma_limit    0
gdma_origin   [ 0.0,  0.0,  0.0 ]
}
molecule test {
    units Angstrom
    0 1
    --
    0 1
    C               -0.793935064767069    -2.095430946558190     1.472894702545381
    C               -0.555935064767069    -0.964430946558190    -0.728105297454619
    C                0.014064935232931    -1.292430946558190     0.493894702545381
    C                0.145064935232931    -0.219430946558190    -1.669105297454619
    C                1.319064935232931    -0.872430946558190     0.754894702545381
    C                1.438064935232931     0.196569053441810    -1.395105297454619
    C                2.022064935232931    -0.123430946558190    -0.191105297454619
    H               -1.559935064767069    -1.293430946558190    -0.956105297454619
    H               -0.308935064767069    -0.004430946558190    -2.621105297454620
    H               -1.178935064767069    -2.970430946558190     0.960894702545381
    H               -1.647935064767069    -1.478430946558190     1.755894702545381
    H                1.788064935232931    -1.047430946558190     1.693894702545381
    H                1.985064935232931     0.781569053441810    -2.121105297454620
    H                3.028064935232931     0.211569053441810     0.021894702545381
    H               -0.280965064767069    -2.405514946558190     2.395234702545380
    C               -0.872935064767069     2.530569053441810     0.033894702545381
    C               -2.109935064767069     2.310569053441811     0.905894702545381
    H               -1.114935064767069     2.263569053441810    -0.994105297454619
    H               -0.613935064767069     3.586569053441810     0.055894702545381
    H               -0.032935064767069     1.921569053441810     0.357894702545381
    H               -2.379935064767069     1.253569053441810     0.858894702545381
    H               -2.922935064767069     2.888569053441810     0.467894702545381
    H               -1.970404064767069     2.601859053441810     1.957404702545381

}
e, wfn = energy('scf', return_wfn=True)
gdma(wfn)
dmavals = variable('DMA DISTRIBUTED MULTIPOLES')
charges = np.array(dmavals)
print(charges)
np.save('SSI-007PHE-157ILE-1-dimer.npy', np.array(charges))--------------------------------------------------------------------------

*** tstart() called on ds3
*** at Mon Apr 27 02:01:37 2020

   => Loading Basis Set <=

    Name: CC-PVDZ
    Role: ORBITAL
    Keyword: BASIS
    atoms 1-7, 16-17  entry C          line   138 file /theoryfs2/ds/metcalf/miniconda2/envs/tf2gpu/share/psi4/basis/cc-pvdz.gbs
    atoms 8-15, 18-23 entry H          line    22 file /theoryfs2/ds/metcalf/miniconda2/envs/tf2gpu/share/psi4/basis/cc-pvdz.gbs

         ---------------------------------------------------------
                                   SCF
               by Justin Turney, Rob Parrish, Andy Simmonett
                          and Daniel G. A. Smith
                              RHF Reference
                        1 Threads,    500 MiB Core
         ---------------------------------------------------------

  ==> Geometry <==

    Molecular point group: c1
    Full point group: C1

    Geometry (in Angstrom), charge = 0, multiplicity = 1:

       Center              X                  Y                   Z               Mass
    ------------   -----------------  -----------------  -----------------  -----------------
         C           -0.793935064767    -2.095430946558     1.472894702545    12.000000000000
         C           -0.555935064767    -0.964430946558    -0.728105297455    12.000000000000
         C            0.014064935233    -1.292430946558     0.493894702545    12.000000000000
         C            0.145064935233    -0.219430946558    -1.669105297455    12.000000000000
         C            1.319064935233    -0.872430946558     0.754894702545    12.000000000000
         C            1.438064935233     0.196569053442    -1.395105297455    12.000000000000
         C            2.022064935233    -0.123430946558    -0.191105297455    12.000000000000
         H           -1.559935064767    -1.293430946558    -0.956105297455     1.007825032230
         H           -0.308935064767    -0.004430946558    -2.621105297455     1.007825032230
         H           -1.178935064767    -2.970430946558     0.960894702545     1.007825032230
         H           -1.647935064767    -1.478430946558     1.755894702545     1.007825032230
         H            1.788064935233    -1.047430946558     1.693894702545     1.007825032230
         H            1.985064935233     0.781569053442    -2.121105297455     1.007825032230
         H            3.028064935233     0.211569053442     0.021894702545     1.007825032230
         H           -0.280965064767    -2.405514946558     2.395234702545     1.007825032230
         C           -0.872935064767     2.530569053442     0.033894702545    12.000000000000
         C           -2.109935064767     2.310569053442     0.905894702545    12.000000000000
         H           -1.114935064767     2.263569053442    -0.994105297455     1.007825032230
         H           -0.613935064767     3.586569053442     0.055894702545     1.007825032230
         H           -0.032935064767     1.921569053442     0.357894702545     1.007825032230
         H           -2.379935064767     1.253569053442     0.858894702545     1.007825032230
         H           -2.922935064767     2.888569053442     0.467894702545     1.007825032230
         H           -1.970404064767     2.601859053442     1.957404702545     1.007825032230

  Running in c1 symmetry.

  Rotational constants: A =      0.05658  B =      0.03904  C =      0.02994 [cm^-1]
  Rotational constants: A =   1696.08651  B =   1170.46021  C =    897.50100 [MHz]
  Nuclear repulsion =  425.650594603348907

  Charge       = 0
  Multiplicity = 1
  Electrons    = 68
  Nalpha       = 34
  Nbeta        = 34

  ==> Algorithm <==

  SCF Algorithm Type is PK.
  DIIS enabled.
  MOM disabled.
  Fractional occupation disabled.
  Guess Type is SAD.
  Energy threshold   = 1.00e-06
  Density threshold  = 1.00e-10
  Integral threshold = 0.00e+00

  ==> Primary Basis <==

  Basis Set: CC-PVDZ
    Blend: CC-PVDZ
    Number of shells: 96
    Number of basis function: 196
    Number of Cartesian functions: 205
    Spherical Harmonics?: true
    Max angular momentum: 2

  ==> Pre-Iterations <==

   -------------------------------------------------------
    Irrep   Nso     Nmo     Nalpha   Nbeta   Ndocc  Nsocc
   -------------------------------------------------------
     A        196     196       0       0       0       0
   -------------------------------------------------------
    Total     196     196      34      34      34       0
   -------------------------------------------------------

  ==> Integral Setup <==

  Using integral reordering PK algorithm.
  Sizing the integral batches needed.
  Building batch lookup table.
   Calculation information:
      Number of atoms:                  23
      Number of AO shells:              96
      Number of primitives:            268
      Number of atomic orbitals:       205
      Number of basis functions:       196

      Integral cutoff                 1.00e-12
      Number of threads:                 1

	Batch   1 pq = [       0,    9405] index = [             0,44231715] size =     44231715
	Batch   2 pq = [    9405,   13301] index = [      44231715,88464951] size =     44233236
	Batch   3 pq = [   13301,   16290] index = [      88464951,132690195] size =     44225244
	Batch   4 pq = [   16290,   18810] index = [     132690195,176917455] size =     44227260
	Batch   5 pq = [   18810,   19306] index = [     176917455,186370471] size =      9453016
  Task number: 17
  Buffer size: 11059200
  Buffer per thread: 2
  We computed 11220818 shell quartets total.
  Whereas there are 10841496 unique shell quartets.
     3.50 percent of shell quartets recomputed by reordering.

  ==> DiskJK: Disk-Based J/K Matrices <==

    J tasked:                  Yes
    K tasked:                  Yes
    wK tasked:                  No
    Memory [MiB]:              375
    Schwarz Cutoff:          1E-12

    OpenMP threads:              1

  Minimum eigenvalue in the overlap matrix is 3.0366562514E-04.
  Using Symmetric Orthogonalization.

  SCF Guess: Superposition of Atomic Densities via on-the-fly atomic UHF.

  ==> Iterations <==

                        Total Energy        Delta E     RMS |[F,P]|

   @RHF iter SAD:  -347.96522564403432   -3.47965e+02   0.00000e+00
   @RHF iter   1:  -348.76137802083929   -7.96152e-01   2.91633e-03 DIIS
   @RHF iter   2:  -348.95521639593278   -1.93838e-01   1.21833e-03 DIIS
   @RHF iter   3:  -348.98606907420458   -3.08527e-02   2.61014e-04 DIIS
   @RHF iter   4:  -348.98855878754819   -2.48971e-03   5.51946e-05 DIIS
   @RHF iter   5:  -348.98863844007201   -7.96525e-05   1.84057e-05 DIIS
   @RHF iter   6:  -348.98864681325495   -8.37318e-06   5.08167e-06 DIIS
   @RHF iter   7:  -348.98864758441545   -7.71161e-07   1.37199e-06 DIIS
   @RHF iter   8:  -348.98864766249812   -7.80827e-08   4.14474e-07 DIIS
   @RHF iter   9:  -348.98864767935447   -1.68563e-08   1.91480e-07 DIIS
   @RHF iter  10:  -348.98864768383083   -4.47636e-09   8.89653e-08 DIIS
   @RHF iter  11:  -348.98864768493081   -1.09998e-09   3.04436e-08 DIIS
   @RHF iter  12:  -348.98864768501483   -8.40146e-11   1.28687e-08 DIIS
   @RHF iter  13:  -348.98864768502420   -9.37916e-12   4.22639e-09 DIIS
   @RHF iter  14:  -348.98864768502318    1.02318e-12   1.03696e-09 DIIS
   @RHF iter  15:  -348.98864768502415   -9.66338e-13   3.79316e-10 DIIS
   @RHF iter  16:  -348.98864768502432   -1.70530e-13   1.67460e-10 DIIS
   @RHF iter  17:  -348.98864768502409    2.27374e-13   7.13002e-11 DIIS
  Energy and wave function converged.

  ==> Post-Iterations <==

    Orbital Energies [Eh]
    ---------------------

    Doubly Occupied:

       1A    -11.242334     2A    -11.234192     3A    -11.233707
       4A    -11.229866     5A    -11.229707     6A    -11.229032
       7A    -11.227589     8A    -11.210099     9A    -11.202799
      10A     -1.156227    11A     -1.048207    12A     -1.013174
      13A     -1.008104    14A     -0.934064    15A     -0.828404
      16A     -0.825866    17A     -0.797071    18A     -0.693395
      19A     -0.632877    20A     -0.631644    21A     -0.593910
      22A     -0.587464    23A     -0.583178    24A     -0.575777
      25A     -0.565814    26A     -0.538132    27A     -0.499522
      28A     -0.487631    29A     -0.485556    30A     -0.481297
      31A     -0.474360    32A     -0.469055    33A     -0.332254
      34A     -0.323293

    Virtual:

      35A      0.133494    36A      0.142917    37A      0.172506
      38A      0.195337    39A      0.206069    40A      0.218067
      41A      0.239987    42A      0.245536    43A      0.255348
      44A      0.265398    45A      0.269324    46A      0.273951
      47A      0.284566    48A      0.294470    49A      0.315206
      50A      0.344123    51A      0.370446    52A      0.378510
      53A      0.407850    54A      0.453792    55A      0.463050
      56A      0.472828    57A      0.499749    58A      0.561164
      59A      0.578823    60A      0.590387    61A      0.599955
      62A      0.617315    63A      0.622860    64A      0.654912
      65A      0.680762    66A      0.690270    67A      0.699228
      68A      0.709244    69A      0.740323    70A      0.745239
      71A      0.754227    72A      0.762362    73A      0.781667
      74A      0.797161    75A      0.804567    76A      0.834842
      77A      0.844365    78A      0.854943    79A      0.864079
      80A      0.882358    81A      0.887995    82A      0.892173
      83A      0.900786    84A      0.903940    85A      0.909661
      86A      0.916296    87A      0.919911    88A      0.930317
      89A      0.944644    90A      0.945724    91A      0.974457
      92A      0.985142    93A      1.002942    94A      1.017098
      95A      1.033957    96A      1.095778    97A      1.125504
      98A      1.139589    99A      1.141706   100A      1.151264
     101A      1.158440   102A      1.179196   103A      1.211291
     104A      1.223854   105A      1.229772   106A      1.255321
     107A      1.263162   108A      1.277836   109A      1.307144
     110A      1.316504   111A      1.331536   112A      1.341520
     113A      1.428916   114A      1.482815   115A      1.500177
     116A      1.514783   117A      1.530373   118A      1.574755
     119A      1.584910   120A      1.625675   121A      1.671000
     122A      1.684153   123A      1.691520   124A      1.708230
     125A      1.736578   126A      1.747368   127A      1.784849
     128A      1.797801   129A      1.830895   130A      1.853868
     131A      1.870874   132A      1.883976   133A      1.891744
     134A      1.894165   135A      1.911703   136A      1.921151
     137A      1.923438   138A      1.936962   139A      1.952452
     140A      1.958589   141A      1.959414   142A      1.965146
     143A      1.972964   144A      1.973811   145A      1.984308
     146A      2.002558   147A      2.012299   148A      2.023770
     149A      2.047307   150A      2.062054   151A      2.094224
     152A      2.110167   153A      2.119691   154A      2.136048
     155A      2.157161   156A      2.166473   157A      2.189713
     158A      2.193144   159A      2.208817   160A      2.248814
     161A      2.274588   162A      2.280741   163A      2.305041
     164A      2.314084   165A      2.328411   166A      2.341597
     167A      2.393350   168A      2.451793   169A      2.479295
     170A      2.481151   171A      2.484228   172A      2.513947
     173A      2.541559   174A      2.573296   175A      2.599316
     176A      2.648274   177A      2.724204   178A      2.757149
     179A      2.778090   180A      2.785609   181A      2.802517
     182A      2.817855   183A      2.824548   184A      2.851126
     185A      2.865369   186A      2.875343   187A      2.878221
     188A      2.976806   189A      2.985619   190A      3.001333
     191A      3.024421   192A      3.068917   193A      3.180749
     194A      3.217928   195A      3.316170   196A      3.987256

    Final Occupation by Irrep:
              A
    DOCC [    34 ]

  @RHF Final Energy:  -348.98864768502409

   => Energetics <=

    Nuclear Repulsion Energy =            425.6505946033489067
    One-Electron Energy =               -1314.0672792370016850
    Two-Electron Energy =                 539.4280369486285736
    Total Energy =                       -348.9886476850241479

Computation Completed

Properties will be evaluated at   0.000000,   0.000000,   0.000000 [a0]

Properties computed using the SCF density matrix

  Nuclear Dipole Moment: [e a0]
     X:    -6.7597      Y:     5.9147      Z:     3.5937

  Electronic Dipole Moment: [e a0]
     X:     6.7329      Y:    -6.0443      Z:    -3.5441

  Dipole Moment: [e a0]
     X:    -0.0268      Y:    -0.1296      Z:     0.0496     Total:     0.1413

  Dipole Moment: [D]
     X:    -0.0680      Y:    -0.3295      Z:     0.1260     Total:     0.3593

*** tstop() called on ds3 at Mon Apr 27 02:03:16 2020
Module time:
	user time   =      74.50 seconds =       1.24 minutes
	system time =      26.84 seconds =       0.45 minutes
	total time  =         99 seconds =       1.65 minutes
Total time:
	user time   =      74.50 seconds =       1.24 minutes
	system time =      26.84 seconds =       0.45 minutes
	total time  =         99 seconds =       1.65 minutes
                                     G D M A

                                 by Anthony Stone

                           version 2.2.06, 22 June 2011

               Distributed Multipoles from Gaussian wavefunctions

Starting at 2:3:16 on 27 Apr 2020

Using SCF density matrix from file ./SSI/SSI-007PHE-157ILE-1-dimer.test.15380.fchk

                         Distributed Multipole Analysis

Standard DMA

Positions and radii in angstrom
Multipole moments in atomic units, ea_0^k for rank k

C          x = -0.793935  y = -2.095431  z =  1.472895 angstrom
           Maximum rank =  0   Radius =  0.650 angstrom
                   Q00  =  -0.207736

C          x = -0.555935  y = -0.964431  z = -0.728105 angstrom
           Maximum rank =  0   Radius =  0.650 angstrom
                   Q00  =   0.004279

C          x =  0.014065  y = -1.292431  z =  0.493895 angstrom
           Maximum rank =  0   Radius =  0.650 angstrom
                   Q00  =  -0.090816

C          x =  0.145065  y = -0.219431  z = -1.669105 angstrom
           Maximum rank =  0   Radius =  0.650 angstrom
                   Q00  =  -0.064309

C          x =  1.319065  y = -0.872431  z =  0.754895 angstrom
           Maximum rank =  0   Radius =  0.650 angstrom
                   Q00  =  -0.092408

C          x =  1.438065  y =  0.196569  z = -1.395105 angstrom
           Maximum rank =  0   Radius =  0.650 angstrom
                   Q00  =  -0.080317

C          x =  2.022065  y = -0.123431  z = -0.191105 angstrom
           Maximum rank =  0   Radius =  0.650 angstrom
                   Q00  =  -0.064560

H          x = -1.559935  y = -1.293431  z = -0.956105 angstrom
           Maximum rank =  0   Radius =  0.325 angstrom
                   Q00  =   0.052737

H          x = -0.308935  y = -0.004431  z = -2.621105 angstrom
           Maximum rank =  0   Radius =  0.325 angstrom
                   Q00  =   0.064052

H          x = -1.178935  y = -2.970431  z =  0.960895 angstrom
           Maximum rank =  0   Radius =  0.325 angstrom
                   Q00  =   0.101983

H          x = -1.647935  y = -1.478431  z =  1.755895 angstrom
           Maximum rank =  0   Radius =  0.325 angstrom
                   Q00  =   0.099558

H          x =  1.788065  y = -1.047431  z =  1.693895 angstrom
           Maximum rank =  0   Radius =  0.325 angstrom
                   Q00  =   0.057660

H          x =  1.985065  y =  0.781569  z = -2.121105 angstrom
           Maximum rank =  0   Radius =  0.325 angstrom
                   Q00  =   0.058661

H          x =  3.028065  y =  0.211569  z =  0.021895 angstrom
           Maximum rank =  0   Radius =  0.325 angstrom
                   Q00  =   0.063507

H          x = -0.280965  y = -2.405515  z =  2.395235 angstrom
           Maximum rank =  0   Radius =  0.325 angstrom
                   Q00  =   0.102453

C          x = -0.872935  y =  2.530569  z =  0.033895 angstrom
           Maximum rank =  0   Radius =  0.650 angstrom
                   Q00  =  -0.223262

C          x = -2.109935  y =  2.310569  z =  0.905895 angstrom
           Maximum rank =  0   Radius =  0.650 angstrom
                   Q00  =  -0.239838

H          x = -1.114935  y =  2.263569  z = -0.994105 angstrom
           Maximum rank =  0   Radius =  0.325 angstrom
                   Q00  =   0.073914

H          x = -0.613935  y =  3.586569  z =  0.055895 angstrom
           Maximum rank =  0   Radius =  0.325 angstrom
                   Q00  =   0.068522

H          x = -0.032935  y =  1.921569  z =  0.357895 angstrom
           Maximum rank =  0   Radius =  0.325 angstrom
                   Q00  =   0.091428

H          x = -2.379935  y =  1.253569  z =  0.858895 angstrom
           Maximum rank =  0   Radius =  0.325 angstrom
                   Q00  =   0.074109

H          x = -2.922935  y =  2.888569  z =  0.467895 angstrom
           Maximum rank =  0   Radius =  0.325 angstrom
                   Q00  =   0.072046

H          x = -1.970404  y =  2.601859  z =  1.957405 angstrom
           Maximum rank =  0   Radius =  0.325 angstrom
                   Q00  =   0.078337

Total multipoles referred to origin at
           x =   0.000000,  y =    0.000000,  z =    0.000000 angstrom
                   Q00  =  -0.000000

Finished at 2:3:16 on 27 Apr 2020

  DMA results are available in the Python driver through the
	  variable('DMA DISTRIBUTED MULTIPOLES')
  and
	  variable('DMA TOTAL MULTIPOLES')
  commands.

    Psi4 stopped on: Monday, 27 April 2020 02:03AM
    Psi4 wall time for execution: 0:01:38.81

*** Psi4 exiting successfully. Buy a developer a beer!
