                               Psi4 1.3.2 release

  ==> Input File <==

--------------------------------------------------------------------------
import numpy as np
set {scf_type pk
basis cc-pvdz
d_convergence 10
gdma_switch   0
gdma_limit    0
gdma_origin   [ 0.0,  0.0,  0.0 ]
}
molecule test {
    units Angstrom
    -1 1
    --
    -1 1
    C               -0.567678636225670    -1.423428361679371     0.579511976309567
    C               -0.929678636225670    -1.962428361679371     1.974511976309567
    C                1.966321363774330    -0.634428361679372     1.286511976309567
    S                1.168321363774330    -1.736428361679372     0.148511976309567
    H               -1.183678636225670    -1.918428361679371    -0.167488023690433
    H               -0.763678636225670    -0.352428361679372     0.540511976309567
    H               -0.338678636225670    -1.430428361679371     2.721511976309567
    H               -0.679678636225670    -3.023428361679372     2.029511976309567
    H                1.786321363774330    -0.952428361679372     2.312511976309566
    H                3.040321363774330    -0.642428361679372     1.102511976309567
    H                1.584321363774330     0.374571638320628     1.138511976309567
    H               -1.995347636225670    -1.814538361679372     2.203591976309567
    C               -0.574678636225670     1.179571638320629    -2.288488023690434
    C               -0.778678636225670     1.974571638320628    -0.995488023690433
    O               -1.923678636225670     2.348571638320628    -0.647488023690433
    O                0.255321363774330     2.199571638320629    -0.322488023690433
    H                0.301321363774330     0.541571638320628    -2.158488023690434
    H               -0.366678636225670     1.876571638320629    -3.103488023690434
    H               -1.439815636225670     0.558221638320628    -2.563208023690434

}
e, wfn = energy('scf', return_wfn=True)
gdma(wfn)
dmavals = variable('DMA DISTRIBUTED MULTIPOLES')
charges = np.array(dmavals)
print(charges)
np.save('SSI-122MET-126GLU-1-dimer.npy', np.array(charges))--------------------------------------------------------------------------

*** tstart() called on ds3
*** at Mon Apr 27 06:38:26 2020

   => Loading Basis Set <=

    Name: CC-PVDZ
    Role: ORBITAL
    Keyword: BASIS
    atoms 1-3, 13-14  entry C          line   138 file /theoryfs2/ds/metcalf/miniconda2/envs/tf2gpu/share/psi4/basis/cc-pvdz.gbs
    atoms 4           entry S          line   598 file /theoryfs2/ds/metcalf/miniconda2/envs/tf2gpu/share/psi4/basis/cc-pvdz.gbs
    atoms 5-12, 17-19 entry H          line    22 file /theoryfs2/ds/metcalf/miniconda2/envs/tf2gpu/share/psi4/basis/cc-pvdz.gbs
    atoms 15-16       entry O          line   198 file /theoryfs2/ds/metcalf/miniconda2/envs/tf2gpu/share/psi4/basis/cc-pvdz.gbs

         ---------------------------------------------------------
                                   SCF
               by Justin Turney, Rob Parrish, Andy Simmonett
                          and Daniel G. A. Smith
                              RHF Reference
                        1 Threads,    500 MiB Core
         ---------------------------------------------------------

  ==> Geometry <==

    Molecular point group: c1
    Full point group: C1

    Geometry (in Angstrom), charge = -1, multiplicity = 1:

       Center              X                  Y                   Z               Mass
    ------------   -----------------  -----------------  -----------------  -----------------
         C           -0.567678636226    -1.423428361679     0.579511976310    12.000000000000
         C           -0.929678636226    -1.962428361679     1.974511976310    12.000000000000
         C            1.966321363774    -0.634428361679     1.286511976310    12.000000000000
         S            1.168321363774    -1.736428361679     0.148511976310    31.972071174400
         H           -1.183678636226    -1.918428361679    -0.167488023690     1.007825032230
         H           -0.763678636226    -0.352428361679     0.540511976310     1.007825032230
         H           -0.338678636226    -1.430428361679     2.721511976310     1.007825032230
         H           -0.679678636226    -3.023428361679     2.029511976310     1.007825032230
         H            1.786321363774    -0.952428361679     2.312511976310     1.007825032230
         H            3.040321363774    -0.642428361679     1.102511976310     1.007825032230
         H            1.584321363774     0.374571638321     1.138511976310     1.007825032230
         H           -1.995347636226    -1.814538361679     2.203591976310     1.007825032230
         C           -0.574678636226     1.179571638321    -2.288488023690    12.000000000000
         C           -0.778678636226     1.974571638321    -0.995488023690    12.000000000000
         O           -1.923678636226     2.348571638321    -0.647488023690    15.994914619570
         O            0.255321363774     2.199571638321    -0.322488023690    15.994914619570
         H            0.301321363774     0.541571638321    -2.158488023690     1.007825032230
         H           -0.366678636226     1.876571638321    -3.103488023690     1.007825032230
         H           -1.439815636226     0.558221638321    -2.563208023690     1.007825032230

  Running in c1 symmetry.

  Rotational constants: A =      0.07148  B =      0.02491  C =      0.02287 [cm^-1]
  Rotational constants: A =   2142.87694  B =    746.64689  C =    685.64549 [MHz]
  Nuclear repulsion =  440.012519351164030

  Charge       = -1
  Multiplicity = 1
  Electrons    = 74
  Nalpha       = 37
  Nbeta        = 37

  ==> Algorithm <==

  SCF Algorithm Type is PK.
  DIIS enabled.
  MOM disabled.
  Fractional occupation disabled.
  Guess Type is SAD.
  Energy threshold   = 1.00e-06
  Density threshold  = 1.00e-10
  Integral threshold = 0.00e+00

  ==> Primary Basis <==

  Basis Set: CC-PVDZ
    Blend: CC-PVDZ
    Number of shells: 83
    Number of basis function: 171
    Number of Cartesian functions: 179
    Spherical Harmonics?: true
    Max angular momentum: 2

  ==> Pre-Iterations <==

   -------------------------------------------------------
    Irrep   Nso     Nmo     Nalpha   Nbeta   Ndocc  Nsocc
   -------------------------------------------------------
     A        171     171       0       0       0       0
   -------------------------------------------------------
    Total     171     171      37      37      37       0
   -------------------------------------------------------

  ==> Integral Setup <==

  Using integral reordering PK algorithm.
  Sizing the integral batches needed.
  Building batch lookup table.
   Calculation information:
      Number of atoms:                  19
      Number of AO shells:              83
      Number of primitives:            259
      Number of atomic orbitals:       179
      Number of basis functions:       171

      Integral cutoff                 1.00e-12
      Number of threads:                 1

	Batch   1 pq = [       0,    9405] index = [             0,44231715] size =     44231715
	Batch   2 pq = [    9405,   13301] index = [      44231715,88464951] size =     44233236
	Batch   3 pq = [   13301,   14706] index = [      88464951,108140571] size =     19675620
  Task number: 10
  Buffer size: 11059200
  Buffer per thread: 2
  We computed 5400431 shell quartets total.
  Whereas there are 6077841 unique shell quartets.

  ==> DiskJK: Disk-Based J/K Matrices <==

    J tasked:                  Yes
    K tasked:                  Yes
    wK tasked:                  No
    Memory [MiB]:              375
    Schwarz Cutoff:          1E-12

    OpenMP threads:              1

  Minimum eigenvalue in the overlap matrix is 5.3005475549E-03.
  Using Symmetric Orthogonalization.

  SCF Guess: Superposition of Atomic Densities via on-the-fly atomic UHF.

  ==> Iterations <==

                        Total Energy        Delta E     RMS |[F,P]|

   @RHF iter SAD:  -741.40783821409286   -7.41408e+02   0.00000e+00
   @RHF iter   1:  -742.76179469542205   -1.35396e+00   4.31054e-03 DIIS
   @RHF iter   2:  -742.97658198428985   -2.14787e-01   2.39313e-03 DIIS
   @RHF iter   3:  -743.03845642635235   -6.18744e-02   3.87553e-04 DIIS
   @RHF iter   4:  -743.04160164038956   -3.14521e-03   1.35042e-04 DIIS
   @RHF iter   5:  -743.04198341236406   -3.81772e-04   2.22889e-05 DIIS
   @RHF iter   6:  -743.04199640252273   -1.29902e-05   6.15509e-06 DIIS
   @RHF iter   7:  -743.04199735613702   -9.53614e-07   1.72320e-06 DIIS
   @RHF iter   8:  -743.04199745301230   -9.68753e-08   5.36636e-07 DIIS
   @RHF iter   9:  -743.04199746525171   -1.22394e-08   2.30992e-07 DIIS
   @RHF iter  10:  -743.04199746704660   -1.79489e-09   8.61700e-08 DIIS
   @RHF iter  11:  -743.04199746741085   -3.64253e-10   4.40735e-08 DIIS
   @RHF iter  12:  -743.04199746747133   -6.04814e-11   1.25758e-08 DIIS
   @RHF iter  13:  -743.04199746748793   -1.65983e-11   4.53159e-09 DIIS
   @RHF iter  14:  -743.04199746748623    1.70530e-12   1.16246e-09 DIIS
   @RHF iter  15:  -743.04199746748213    4.09273e-12   3.41704e-10 DIIS
   @RHF iter  16:  -743.04199746748327   -1.13687e-12   1.31732e-10 DIIS
   @RHF iter  17:  -743.04199746748429   -1.02318e-12   4.35502e-11 DIIS
  Energy and wave function converged.

  ==> Post-Iterations <==

    Orbital Energies [Eh]
    ---------------------

    Doubly Occupied:

       1A    -91.815757     2A    -20.262600     3A    -20.261868
       4A    -11.136664     5A    -11.129836     6A    -11.122929
       7A    -11.119715     8A    -11.048442     9A     -8.820169
      10A     -6.502365    11A     -6.500794    12A     -6.498597
      13A     -1.149428    14A     -1.037320    15A     -0.964678
      16A     -0.880728    17A     -0.792971    18A     -0.769413
      19A     -0.666439    20A     -0.516479    21A     -0.501007
      22A     -0.493257    23A     -0.461181    24A     -0.443990
      25A     -0.418699    26A     -0.409644    27A     -0.407802
      28A     -0.401044    29A     -0.393306    30A     -0.363553
      31A     -0.342617    32A     -0.308549    33A     -0.302085
      34A     -0.212659    35A     -0.183953    36A     -0.174708
      37A     -0.163808

    Virtual:

      38A      0.288475    39A      0.302069    40A      0.329371
      41A      0.347617    42A      0.354116    43A      0.373004
      44A      0.376585    45A      0.380339    46A      0.399202
      47A      0.411623    48A      0.419174    49A      0.434485
      50A      0.467319    51A      0.486370    52A      0.501828
      53A      0.573117    54A      0.648899    55A      0.678716
      56A      0.683380    57A      0.705198    58A      0.720389
      59A      0.724955    60A      0.734661    61A      0.765024
      62A      0.800580    63A      0.815302    64A      0.833751
      65A      0.872934    66A      0.890894    67A      0.920373
      68A      0.931141    69A      0.947237    70A      0.959964
      71A      0.971975    72A      0.980081    73A      0.984311
      74A      0.996932    75A      1.006321    76A      1.016467
      77A      1.021763    78A      1.028535    79A      1.034406
      80A      1.049485    81A      1.067606    82A      1.069639
      83A      1.096647    84A      1.097516    85A      1.107736
      86A      1.137650    87A      1.145139    88A      1.158541
      89A      1.273443    90A      1.294639    91A      1.337354
      92A      1.345573    93A      1.361123    94A      1.391482
      95A      1.425098    96A      1.430000    97A      1.465842
      98A      1.485475    99A      1.512814   100A      1.560952
     101A      1.568352   102A      1.584383   103A      1.593123
     104A      1.608327   105A      1.635273   106A      1.670797
     107A      1.707869   108A      1.746634   109A      1.758465
     110A      1.764673   111A      1.794991   112A      1.823381
     113A      1.841910   114A      1.847601   115A      1.963983
     116A      1.994654   117A      2.006737   118A      2.017924
     119A      2.021327   120A      2.041868   121A      2.049371
     122A      2.063348   123A      2.071315   124A      2.082551
     125A      2.098736   126A      2.104011   127A      2.128764
     128A      2.145236   129A      2.159322   130A      2.173082
     131A      2.180609   132A      2.237135   133A      2.248999
     134A      2.265865   135A      2.332738   136A      2.359587
     137A      2.388660   138A      2.417044   139A      2.421949
     140A      2.441617   141A      2.453131   142A      2.541156
     143A      2.569889   144A      2.588583   145A      2.602204
     146A      2.660774   147A      2.680508   148A      2.693853
     149A      2.730311   150A      2.775678   151A      2.870518
     152A      2.888004   153A      2.909496   154A      2.921889
     155A      2.925900   156A      2.938761   157A      2.954162
     158A      2.982780   159A      2.995093   160A      3.014038
     161A      3.107009   162A      3.239336   163A      3.273432
     164A      3.295411   165A      3.360133   166A      3.630000
     167A      3.775987   168A      3.827103   169A      4.060835
     170A      4.080078   171A      4.184846

    Final Occupation by Irrep:
              A
    DOCC [    37 ]

  @RHF Final Energy:  -743.04199746748429

   => Energetics <=

    Nuclear Repulsion Energy =            440.0125193511640305
    One-Electron Energy =               -1908.1509289156872455
    Two-Electron Energy =                 725.0964120970389786
    Total Energy =                       -743.0419974674842933

Computation Completed

Properties will be evaluated at   0.000000,   0.000000,   0.000000 [a0]

Properties computed using the SCF density matrix

  Nuclear Dipole Moment: [e a0]
     X:    -0.0290      Y:    -6.3830      Z:     3.8016

  Electronic Dipole Moment: [e a0]
     X:     1.1815      Y:     2.9551      Z:    -2.8497

  Dipole Moment: [e a0]
     X:     1.1525      Y:    -3.4279      Z:     0.9519     Total:     3.7397

  Dipole Moment: [D]
     X:     2.9292      Y:    -8.7129      Z:     2.4196     Total:     9.5053

*** tstop() called on ds3 at Mon Apr 27 06:39:31 2020
Module time:
	user time   =      47.71 seconds =       0.80 minutes
	system time =      18.39 seconds =       0.31 minutes
	total time  =         65 seconds =       1.08 minutes
Total time:
	user time   =      47.71 seconds =       0.80 minutes
	system time =      18.39 seconds =       0.31 minutes
	total time  =         65 seconds =       1.08 minutes
                                     G D M A

                                 by Anthony Stone

                           version 2.2.06, 22 June 2011

               Distributed Multipoles from Gaussian wavefunctions

Starting at 6:39:31 on 27 Apr 2020

Using SCF density matrix from file ./SSI/SSI-122MET-126GLU-1-dimer.test.15188.fchk

                         Distributed Multipole Analysis

Standard DMA

Positions and radii in angstrom
Multipole moments in atomic units, ea_0^k for rank k

C          x = -0.567679  y = -1.423428  z =  0.579512 angstrom
           Maximum rank =  0   Radius =  0.650 angstrom
                   Q00  =  -0.193687

C          x = -0.929679  y = -1.962428  z =  1.974512 angstrom
           Maximum rank =  0   Radius =  0.650 angstrom
                   Q00  =  -0.243643

C          x =  1.966321  y = -0.634428  z =  1.286512 angstrom
           Maximum rank =  0   Radius =  0.650 angstrom
                   Q00  =  -0.324210

S          x =  1.168321  y = -1.736428  z =  0.148512 angstrom
           Maximum rank =  0   Radius =  0.650 angstrom
                   Q00  =   0.068357

H          x = -1.183679  y = -1.918428  z = -0.167488 angstrom
           Maximum rank =  0   Radius =  0.325 angstrom
                   Q00  =   0.072457

H          x = -0.763679  y = -0.352428  z =  0.540512 angstrom
           Maximum rank =  0   Radius =  0.325 angstrom
                   Q00  =   0.119433

H          x = -0.338679  y = -1.430428  z =  2.721512 angstrom
           Maximum rank =  0   Radius =  0.325 angstrom
                   Q00  =   0.080268

H          x = -0.679679  y = -3.023428  z =  2.029512 angstrom
           Maximum rank =  0   Radius =  0.325 angstrom
                   Q00  =   0.061832

H          x =  1.786321  y = -0.952428  z =  2.312512 angstrom
           Maximum rank =  0   Radius =  0.325 angstrom
                   Q00  =   0.052120

H          x =  3.040321  y = -0.642428  z =  1.102512 angstrom
           Maximum rank =  0   Radius =  0.325 angstrom
                   Q00  =   0.096330

H          x =  1.584321  y =  0.374572  z =  1.138512 angstrom
           Maximum rank =  0   Radius =  0.325 angstrom
                   Q00  =   0.118662

H          x = -1.995348  y = -1.814538  z =  2.203592 angstrom
           Maximum rank =  0   Radius =  0.325 angstrom
                   Q00  =   0.081634

C          x = -0.574679  y =  1.179572  z = -2.288488 angstrom
           Maximum rank =  0   Radius =  0.650 angstrom
                   Q00  =  -0.289314

C          x = -0.778679  y =  1.974572  z = -0.995488 angstrom
           Maximum rank =  0   Radius =  0.650 angstrom
                   Q00  =   0.962143

O          x = -1.923679  y =  2.348572  z = -0.647488 angstrom
           Maximum rank =  0   Radius =  0.650 angstrom
                   Q00  =  -0.922925

O          x =  0.255321  y =  2.199572  z = -0.322488 angstrom
           Maximum rank =  0   Radius =  0.650 angstrom
                   Q00  =  -0.940443

H          x =  0.301321  y =  0.541572  z = -2.158488 angstrom
           Maximum rank =  0   Radius =  0.325 angstrom
                   Q00  =   0.074791

H          x = -0.366679  y =  1.876572  z = -3.103488 angstrom
           Maximum rank =  0   Radius =  0.325 angstrom
                   Q00  =   0.078404

H          x = -1.439816  y =  0.558222  z = -2.563208 angstrom
           Maximum rank =  0   Radius =  0.325 angstrom
                   Q00  =   0.047790

Total multipoles referred to origin at
           x =   0.000000,  y =    0.000000,  z =    0.000000 angstrom
                   Q00  =  -1.000000

Finished at 6:39:31 on 27 Apr 2020

  DMA results are available in the Python driver through the
	  variable('DMA DISTRIBUTED MULTIPOLES')
  and
	  variable('DMA TOTAL MULTIPOLES')
  commands.

    Psi4 stopped on: Monday, 27 April 2020 06:39AM
    Psi4 wall time for execution: 0:01:05.25

*** Psi4 exiting successfully. Buy a developer a beer!
