                               Psi4 1.3.2 release

  ==> Input File <==

--------------------------------------------------------------------------
import numpy as np
set {scf_type pk
basis cc-pvdz
d_convergence 10
gdma_switch   0
gdma_limit    0
gdma_origin   [ 0.0,  0.0,  0.0 ]
}
molecule test {
    units Angstrom
    0 1
    --
    0 1
    C               -3.436887007441443    -1.208574689022851     1.184599723012582
    C               -2.088887007441443    -1.427574689022851    -0.934400276987418
    C               -2.303887007441442    -1.813574689022852     0.393599723012582
    C               -1.049887007441442    -1.986574689022851    -1.681400276987419
    C               -0.242887007441442    -2.946574689022852    -1.115400276987419
    C               -1.469887007441442    -2.782574689022852     0.952599723012582
    C               -0.446887007441442    -3.345574689022852     0.201599723012582
    H               -2.726887007441442    -0.680574689022851    -1.387400276987419
    H               -0.884887007441442    -1.669574689022851    -2.699400276987419
    H               -3.756887007441442    -1.912574689022852     1.950599723012581
    H               -4.272887007441442    -1.100574689022851     0.493599723012582
    H                0.549112992558558    -3.390574689022852    -1.701400276987418
    H               -1.631887007441442    -3.118574689022851     1.962599723012581
    H                0.186112992558558    -4.104574689022851     0.640599723012582
    H               -3.218077007441443    -0.228244689022851     1.633019723012581
    C                2.623112992558557     4.390425310977148    -0.149400276987418
    C                0.826112992558558     0.542425310977149     0.324599723012582
    C                0.688112992558558     1.492425310977149     1.311599723012581
    C                1.575112992558558     0.838425310977149    -0.823400276987418
    C                1.263112992558558     2.733425310977148     1.157599723012582
    C                2.168112992558557     2.078425310977148    -0.963400276987418
    C                2.021112992558558     3.035425310977148     0.025599723012582
    H                0.365112992558558    -0.429574689022852     0.435599723012582
    H                0.110112992558558     1.268425310977149     2.193599723012582
    H                1.683112992558558     0.095425310977149    -1.602400276987418
    H                1.127112992558558     3.479425310977148     1.929599723012582
    H                2.730112992558557     2.300425310977148    -1.857400276987418
    H                1.976112992558557     5.120425310977148     0.337599723012582
    H                2.631112992558557     4.634425310977149    -1.212400276987418
    H                3.638212992558557     4.499565310977149     0.260059723012582

}
e, wfn = energy('scf', return_wfn=True)
gdma(wfn)
dmavals = variable('DMA DISTRIBUTED MULTIPOLES')
charges = np.array(dmavals)
print(charges)
np.save('SSI-046PHE-107PHE-1-dimer.npy', np.array(charges))--------------------------------------------------------------------------

*** tstart() called on ds3
*** at Sun Apr 26 21:41:04 2020

   => Loading Basis Set <=

    Name: CC-PVDZ
    Role: ORBITAL
    Keyword: BASIS
    atoms 1-7, 16-22  entry C          line   138 file /theoryfs2/ds/metcalf/miniconda2/envs/tf2gpu/share/psi4/basis/cc-pvdz.gbs
    atoms 8-15, 23-30 entry H          line    22 file /theoryfs2/ds/metcalf/miniconda2/envs/tf2gpu/share/psi4/basis/cc-pvdz.gbs

         ---------------------------------------------------------
                                   SCF
               by Justin Turney, Rob Parrish, Andy Simmonett
                          and Daniel G. A. Smith
                              RHF Reference
                        1 Threads,    500 MiB Core
         ---------------------------------------------------------

  ==> Geometry <==

    Molecular point group: c1
    Full point group: C1

    Geometry (in Angstrom), charge = 0, multiplicity = 1:

       Center              X                  Y                   Z               Mass
    ------------   -----------------  -----------------  -----------------  -----------------
         C           -3.436887007441    -1.208574689023     1.184599723013    12.000000000000
         C           -2.088887007441    -1.427574689023    -0.934400276987    12.000000000000
         C           -2.303887007441    -1.813574689023     0.393599723013    12.000000000000
         C           -1.049887007441    -1.986574689023    -1.681400276987    12.000000000000
         C           -0.242887007441    -2.946574689023    -1.115400276987    12.000000000000
         C           -1.469887007441    -2.782574689023     0.952599723013    12.000000000000
         C           -0.446887007441    -3.345574689023     0.201599723013    12.000000000000
         H           -2.726887007441    -0.680574689023    -1.387400276987     1.007825032230
         H           -0.884887007441    -1.669574689023    -2.699400276987     1.007825032230
         H           -3.756887007441    -1.912574689023     1.950599723013     1.007825032230
         H           -4.272887007441    -1.100574689023     0.493599723013     1.007825032230
         H            0.549112992559    -3.390574689023    -1.701400276987     1.007825032230
         H           -1.631887007441    -3.118574689023     1.962599723013     1.007825032230
         H            0.186112992559    -4.104574689023     0.640599723013     1.007825032230
         H           -3.218077007441    -0.228244689023     1.633019723013     1.007825032230
         C            2.623112992559     4.390425310977    -0.149400276987    12.000000000000
         C            0.826112992559     0.542425310977     0.324599723013    12.000000000000
         C            0.688112992559     1.492425310977     1.311599723013    12.000000000000
         C            1.575112992559     0.838425310977    -0.823400276987    12.000000000000
         C            1.263112992559     2.733425310977     1.157599723013    12.000000000000
         C            2.168112992559     2.078425310977    -0.963400276987    12.000000000000
         C            2.021112992559     3.035425310977     0.025599723013    12.000000000000
         H            0.365112992559    -0.429574689023     0.435599723013     1.007825032230
         H            0.110112992559     1.268425310977     2.193599723013     1.007825032230
         H            1.683112992559     0.095425310977    -1.602400276987     1.007825032230
         H            1.127112992559     3.479425310977     1.929599723013     1.007825032230
         H            2.730112992559     2.300425310977    -1.857400276987     1.007825032230
         H            1.976112992559     5.120425310977     0.337599723013     1.007825032230
         H            2.631112992559     4.634425310977    -1.212400276987     1.007825032230
         H            3.638212992559     4.499565310977     0.260059723013     1.007825032230

  Running in c1 symmetry.

  Rotational constants: A =      0.04460  B =      0.01007  C =      0.00917 [cm^-1]
  Rotational constants: A =   1336.94374  B =    301.98104  C =    274.98104 [MHz]
  Nuclear repulsion =  779.073507694809678

  Charge       = 0
  Multiplicity = 1
  Electrons    = 100
  Nalpha       = 50
  Nbeta        = 50

  ==> Algorithm <==

  SCF Algorithm Type is PK.
  DIIS enabled.
  MOM disabled.
  Fractional occupation disabled.
  Guess Type is SAD.
  Energy threshold   = 1.00e-06
  Density threshold  = 1.00e-10
  Integral threshold = 0.00e+00

  ==> Primary Basis <==

  Basis Set: CC-PVDZ
    Blend: CC-PVDZ
    Number of shells: 132
    Number of basis function: 276
    Number of Cartesian functions: 290
    Spherical Harmonics?: true
    Max angular momentum: 2

  ==> Pre-Iterations <==

   -------------------------------------------------------
    Irrep   Nso     Nmo     Nalpha   Nbeta   Ndocc  Nsocc
   -------------------------------------------------------
     A        276     276       0       0       0       0
   -------------------------------------------------------
    Total     276     276      50      50      50       0
   -------------------------------------------------------

  ==> Integral Setup <==

  Using integral reordering PK algorithm.
  Sizing the integral batches needed.
  Building batch lookup table.
   Calculation information:
      Number of atoms:                  30
      Number of AO shells:             132
      Number of primitives:            388
      Number of atomic orbitals:       290
      Number of basis functions:       276

      Integral cutoff                 1.00e-12
      Number of threads:                 1

	Batch   1 pq = [       0,    9405] index = [             0,44231715] size =     44231715
	Batch   2 pq = [    9405,   13301] index = [      44231715,88464951] size =     44233236
	Batch   3 pq = [   13301,   16290] index = [      88464951,132690195] size =     44225244
	Batch   4 pq = [   16290,   18810] index = [     132690195,176917455] size =     44227260
	Batch   5 pq = [   18810,   21030] index = [     176917455,221140965] size =     44223510
	Batch   6 pq = [   21030,   23037] index = [     221140965,265363203] size =     44222238
	Batch   7 pq = [   23037,   24883] index = [     265363203,309594286] size =     44231083
	Batch   8 pq = [   24883,   26601] index = [     309594286,353819901] size =     44225615
	Batch   9 pq = [   26601,   28214] index = [     353819901,398029005] size =     44209104
	Batch  10 pq = [   28214,   29740] index = [     398029005,442248670] size =     44219665
	Batch  11 pq = [   29740,   31191] index = [     442248670,486454836] size =     44206166
	Batch  12 pq = [   31191,   32578] index = [     486454836,530679331] size =     44224495
	Batch  13 pq = [   32578,   33908] index = [     530679331,574893186] size =     44213855
	Batch  14 pq = [   33908,   35188] index = [     574893186,619115266] size =     44222080
	Batch  15 pq = [   35188,   36423] index = [     619115266,663335676] size =     44220410
	Batch  16 pq = [   36423,   37617] index = [     663335676,707538153] size =     44202477
	Batch  17 pq = [   37617,   38226] index = [     707538153,730632651] size =     23094498
  Task number: 67
  Buffer size: 11059200
  Buffer per thread: 2
  We computed 36569717 shell quartets total.
  Whereas there are 38531031 unique shell quartets.

  ==> DiskJK: Disk-Based J/K Matrices <==

    J tasked:                  Yes
    K tasked:                  Yes
    wK tasked:                  No
    Memory [MiB]:              375
    Schwarz Cutoff:          1E-12

    OpenMP threads:              1

  Minimum eigenvalue in the overlap matrix is 2.8715347317E-04.
  Using Symmetric Orthogonalization.

  SCF Guess: Superposition of Atomic Densities via on-the-fly atomic UHF.

  ==> Iterations <==

                        Total Energy        Delta E     RMS |[F,P]|

   @RHF iter SAD:  -538.50501215197983   -5.38505e+02   0.00000e+00
   @RHF iter   1:  -539.22431761338419   -7.19305e-01   2.31904e-03 DIIS
   @RHF iter   2:  -539.47868926032822   -2.54372e-01   9.42665e-04 DIIS
   @RHF iter   3:  -539.51572830810255   -3.70390e-02   2.13434e-04 DIIS
   @RHF iter   4:  -539.51884750776162   -3.11920e-03   4.52750e-05 DIIS
   @RHF iter   5:  -539.51895359715058   -1.06089e-04   1.31523e-05 DIIS
   @RHF iter   6:  -539.51896221917968   -8.62203e-06   3.94362e-06 DIIS
   @RHF iter   7:  -539.51896312539179   -9.06212e-07   1.23960e-06 DIIS
   @RHF iter   8:  -539.51896324893426   -1.23542e-07   4.06782e-07 DIIS
   @RHF iter   9:  -539.51896327791951   -2.89853e-08   2.04575e-07 DIIS
   @RHF iter  10:  -539.51896328506473   -7.14522e-09   9.68638e-08 DIIS
   @RHF iter  11:  -539.51896328719590   -2.13117e-09   3.16965e-08 DIIS
   @RHF iter  12:  -539.51896328734745   -1.51545e-10   1.43947e-08 DIIS
   @RHF iter  13:  -539.51896328736484   -1.73941e-11   4.04896e-09 DIIS
   @RHF iter  14:  -539.51896328737314   -8.29914e-12   9.48192e-10 DIIS
   @RHF iter  15:  -539.51896328737030    2.84217e-12   4.16907e-10 DIIS
   @RHF iter  16:  -539.51896328737087   -5.68434e-13   1.56506e-10 DIIS
   @RHF iter  17:  -539.51896328736962    1.25056e-12   7.01413e-11 DIIS
  Energy and wave function converged.

  ==> Post-Iterations <==

    Orbital Energies [Eh]
    ---------------------

    Doubly Occupied:

       1A    -11.243698     2A    -11.237310     3A    -11.235968
       4A    -11.232856     5A    -11.232798     6A    -11.231865
       7A    -11.231334     8A    -11.230662     9A    -11.226244
      10A    -11.223515    11A    -11.223320    12A    -11.221716
      13A    -11.221296    14A    -11.219078    15A     -1.156105
      16A     -1.149649    17A     -1.047218    18A     -1.039486
      19A     -1.014222    20A     -1.008344    21A     -0.933461
      22A     -0.925066    23A     -0.827491    24A     -0.817458
      25A     -0.797308    26A     -0.790252    27A     -0.693954
      28A     -0.684645    29A     -0.633625    30A     -0.631766
      31A     -0.626866    32A     -0.622090    33A     -0.585094
      34A     -0.580259    35A     -0.577856    36A     -0.573132
      37A     -0.563476    38A     -0.554798    39A     -0.536288
      40A     -0.528221    41A     -0.492097    42A     -0.486298
      43A     -0.483342    44A     -0.481968    45A     -0.476146
      46A     -0.472461    47A     -0.336239    48A     -0.329338
      49A     -0.325797    50A     -0.311135

    Virtual:

      51A      0.131765    52A      0.137893    53A      0.145923
      54A      0.150081    55A      0.174754    56A      0.190611
      57A      0.194526    58A      0.210670    59A      0.217680
      60A      0.229075    61A      0.243461    62A      0.247881
      63A      0.252912    64A      0.271478    65A      0.275680
      66A      0.282158    67A      0.286567    68A      0.293114
      69A      0.305367    70A      0.309247    71A      0.364710
      72A      0.374594    73A      0.378220    74A      0.385829
      75A      0.451657    76A      0.457594    77A      0.462755
      78A      0.471454    79A      0.477916    80A      0.488851
      81A      0.491192    82A      0.495849    83A      0.562256
      84A      0.565770    85A      0.584433    86A      0.614965
      87A      0.634406    88A      0.644463    89A      0.662633
      90A      0.675021    91A      0.683066    92A      0.687586
      93A      0.691688    94A      0.705949    95A      0.716826
      96A      0.730103    97A      0.735695    98A      0.737561
      99A      0.743064   100A      0.749719   101A      0.750550
     102A      0.757363   103A      0.759016   104A      0.759833
     105A      0.768968   106A      0.778326   107A      0.779719
     108A      0.797301   109A      0.809620   110A      0.826565
     111A      0.837524   112A      0.844368   113A      0.854492
     114A      0.856864   115A      0.869649   116A      0.878216
     117A      0.885990   118A      0.889815   119A      0.892212
     120A      0.897286   121A      0.903411   122A      0.908017
     123A      0.915652   124A      0.925481   125A      0.928811
     126A      0.935943   127A      0.938976   128A      0.943962
     129A      0.945314   130A      0.970692   131A      0.993159
     132A      1.001437   133A      1.023468   134A      1.034823
     135A      1.050209   136A      1.102012   137A      1.123797
     138A      1.131876   139A      1.141149   140A      1.153292
     141A      1.154545   142A      1.165407   143A      1.172790
     144A      1.182826   145A      1.191348   146A      1.222499
     147A      1.234140   148A      1.238101   149A      1.249026
     150A      1.251396   151A      1.258248   152A      1.267893
     153A      1.286433   154A      1.301972   155A      1.306469
     156A      1.314225   157A      1.317119   158A      1.321498
     159A      1.328406   160A      1.331961   161A      1.334233
     162A      1.368832   163A      1.422988   164A      1.446117
     165A      1.503852   166A      1.513630   167A      1.521712
     168A      1.533992   169A      1.550799   170A      1.576724
     171A      1.597310   172A      1.613056   173A      1.667701
     174A      1.692986   175A      1.697654   176A      1.708563
     177A      1.731979   178A      1.740712   179A      1.749640
     180A      1.755918   181A      1.770215   182A      1.770740
     183A      1.789509   184A      1.804482   185A      1.821818
     186A      1.827849   187A      1.857346   188A      1.875455
     189A      1.885710   190A      1.896724   191A      1.899337
     192A      1.906942   193A      1.912532   194A      1.917031
     195A      1.922827   196A      1.926545   197A      1.932981
     198A      1.942047   199A      1.945225   200A      1.952204
     201A      1.954607   202A      1.965356   203A      1.972711
     204A      1.979533   205A      1.993228   206A      1.996188
     207A      2.007379   208A      2.015687   209A      2.043503
     210A      2.050730   211A      2.055948   212A      2.068705
     213A      2.077273   214A      2.080325   215A      2.112429
     216A      2.120488   217A      2.137848   218A      2.154629
     219A      2.165366   220A      2.169279   221A      2.174053
     222A      2.178468   223A      2.182531   224A      2.196808
     225A      2.201047   226A      2.225995   227A      2.250205
     228A      2.269442   229A      2.275123   230A      2.288573
     231A      2.291175   232A      2.303380   233A      2.310163
     234A      2.310664   235A      2.320632   236A      2.322495
     237A      2.326312   238A      2.369224   239A      2.472495
     240A      2.473529   241A      2.482394   242A      2.493446
     243A      2.505683   244A      2.513818   245A      2.536410
     246A      2.557792   247A      2.618742   248A      2.632732
     249A      2.743920   250A      2.754635   251A      2.760648
     252A      2.768401   253A      2.776321   254A      2.778092
     255A      2.787434   256A      2.808896   257A      2.822081
     258A      2.829805   259A      2.851189   260A      2.869252
     261A      2.874462   262A      2.883990   263A      2.987103
     264A      3.009026   265A      3.012911   266A      3.022727
     267A      3.030698   268A      3.040217   269A      3.153493
     270A      3.176502   271A      3.200670   272A      3.233379
     273A      3.299068   274A      3.322599   275A      3.972198
     276A      4.003024

    Final Occupation by Irrep:
              A
    DOCC [    50 ]

  @RHF Final Energy:  -539.51896328736962

   => Energetics <=

    Nuclear Repulsion Energy =            779.0735076948096776
    One-Electron Energy =               -2274.5757157616890254
    Two-Electron Energy =                 955.9832447795097323
    Total Energy =                       -539.5189632873696155

Computation Completed

Properties will be evaluated at   0.000000,   0.000000,   0.000000 [a0]

Properties computed using the SCF density matrix

  Nuclear Dipole Moment: [e a0]
     X:    -1.4018      Y:     4.4654      Z:     1.2904

  Electronic Dipole Moment: [e a0]
     X:     1.2241      Y:    -4.4506      Z:    -1.2742

  Dipole Moment: [e a0]
     X:    -0.1776      Y:     0.0148      Z:     0.0162     Total:     0.1790

  Dipole Moment: [D]
     X:    -0.4515      Y:     0.0376      Z:     0.0411     Total:     0.4549

*** tstop() called on ds3 at Sun Apr 26 21:54:49 2020
Module time:
	user time   =     304.97 seconds =       5.08 minutes
	system time =     104.03 seconds =       1.73 minutes
	total time  =        825 seconds =      13.75 minutes
Total time:
	user time   =     304.97 seconds =       5.08 minutes
	system time =     104.03 seconds =       1.73 minutes
	total time  =        825 seconds =      13.75 minutes
                                     G D M A

                                 by Anthony Stone

                           version 2.2.06, 22 June 2011

               Distributed Multipoles from Gaussian wavefunctions

Starting at 21:54:49 on 26 Apr 2020

Using SCF density matrix from file ./SSI/SSI-046PHE-107PHE-1-dimer.test.6032.fchk

                         Distributed Multipole Analysis

Standard DMA

Positions and radii in angstrom
Multipole moments in atomic units, ea_0^k for rank k

C          x = -3.436887  y = -1.208575  z =  1.184600 angstrom
           Maximum rank =  0   Radius =  0.650 angstrom
                   Q00  =  -0.200040

C          x = -2.088887  y = -1.427575  z = -0.934400 angstrom
           Maximum rank =  0   Radius =  0.650 angstrom
                   Q00  =  -0.027304

C          x = -2.303887  y = -1.813575  z =  0.393600 angstrom
           Maximum rank =  0   Radius =  0.650 angstrom
                   Q00  =  -0.107411

C          x = -1.049887  y = -1.986575  z = -1.681400 angstrom
           Maximum rank =  0   Radius =  0.650 angstrom
                   Q00  =  -0.064413

C          x = -0.242887  y = -2.946575  z = -1.115400 angstrom
           Maximum rank =  0   Radius =  0.650 angstrom
                   Q00  =  -0.088532

C          x = -1.469887  y = -2.782575  z =  0.952600 angstrom
           Maximum rank =  0   Radius =  0.650 angstrom
                   Q00  =  -0.088478

C          x = -0.446887  y = -3.345575  z =  0.201600 angstrom
           Maximum rank =  0   Radius =  0.650 angstrom
                   Q00  =  -0.029657

H          x = -2.726887  y = -0.680575  z = -1.387400 angstrom
           Maximum rank =  0   Radius =  0.325 angstrom
                   Q00  =   0.060241

H          x = -0.884887  y = -1.669575  z = -2.699400 angstrom
           Maximum rank =  0   Radius =  0.325 angstrom
                   Q00  =   0.065122

H          x = -3.756887  y = -1.912575  z =  1.950600 angstrom
           Maximum rank =  0   Radius =  0.325 angstrom
                   Q00  =   0.098270

H          x = -4.272887  y = -1.100575  z =  0.493600 angstrom
           Maximum rank =  0   Radius =  0.325 angstrom
                   Q00  =   0.097593

H          x =  0.549113  y = -3.390575  z = -1.701400 angstrom
           Maximum rank =  0   Radius =  0.325 angstrom
                   Q00  =   0.060158

H          x = -1.631887  y = -3.118575  z =  1.962600 angstrom
           Maximum rank =  0   Radius =  0.325 angstrom
                   Q00  =   0.058422

H          x =  0.186113  y = -4.104575  z =  0.640600 angstrom
           Maximum rank =  0   Radius =  0.325 angstrom
                   Q00  =   0.065939

H          x = -3.218077  y = -0.228245  z =  1.633020 angstrom
           Maximum rank =  0   Radius =  0.325 angstrom
                   Q00  =   0.107538

C          x =  2.623113  y =  4.390425  z = -0.149400 angstrom
           Maximum rank =  0   Radius =  0.650 angstrom
                   Q00  =  -0.196256

C          x =  0.826113  y =  0.542425  z =  0.324600 angstrom
           Maximum rank =  0   Radius =  0.650 angstrom
                   Q00  =  -0.071184

C          x =  0.688113  y =  1.492425  z =  1.311600 angstrom
           Maximum rank =  0   Radius =  0.650 angstrom
                   Q00  =  -0.072851

C          x =  1.575113  y =  0.838425  z = -0.823400 angstrom
           Maximum rank =  0   Radius =  0.650 angstrom
                   Q00  =  -0.059031

C          x =  1.263113  y =  2.733425  z =  1.157600 angstrom
           Maximum rank =  0   Radius =  0.650 angstrom
                   Q00  =   0.005910

C          x =  2.168113  y =  2.078425  z = -0.963400 angstrom
           Maximum rank =  0   Radius =  0.650 angstrom
                   Q00  =  -0.086828

C          x =  2.021113  y =  3.035425  z =  0.025600 angstrom
           Maximum rank =  0   Radius =  0.650 angstrom
                   Q00  =  -0.106284

H          x =  0.365113  y = -0.429575  z =  0.435600 angstrom
           Maximum rank =  0   Radius =  0.325 angstrom
                   Q00  =   0.073268

H          x =  0.110113  y =  1.268425  z =  2.193600 angstrom
           Maximum rank =  0   Radius =  0.325 angstrom
                   Q00  =   0.054320

H          x =  1.683113  y =  0.095425  z = -1.602400 angstrom
           Maximum rank =  0   Radius =  0.325 angstrom
                   Q00  =   0.057277

H          x =  1.127113  y =  3.479425  z =  1.929600 angstrom
           Maximum rank =  0   Radius =  0.325 angstrom
                   Q00  =   0.050834

H          x =  2.730113  y =  2.300425  z = -1.857400 angstrom
           Maximum rank =  0   Radius =  0.325 angstrom
                   Q00  =   0.051299

H          x =  1.976113  y =  5.120425  z =  0.337600 angstrom
           Maximum rank =  0   Radius =  0.325 angstrom
                   Q00  =   0.094433

H          x =  2.631113  y =  4.634425  z = -1.212400 angstrom
           Maximum rank =  0   Radius =  0.325 angstrom
                   Q00  =   0.094425

H          x =  3.638213  y =  4.499565  z =  0.260060 angstrom
           Maximum rank =  0   Radius =  0.325 angstrom
                   Q00  =   0.103221

Total multipoles referred to origin at
           x =   0.000000,  y =    0.000000,  z =    0.000000 angstrom
                   Q00  =  -0.000000

Finished at 21:54:49 on 26 Apr 2020

  DMA results are available in the Python driver through the
	  variable('DMA DISTRIBUTED MULTIPOLES')
  and
	  variable('DMA TOTAL MULTIPOLES')
  commands.

    Psi4 stopped on: Sunday, 26 April 2020 09:54PM
    Psi4 wall time for execution: 0:13:45.21

*** Psi4 exiting successfully. Buy a developer a beer!
