                               Psi4 1.3.2 release

  ==> Input File <==

--------------------------------------------------------------------------
import numpy as np
set {scf_type pk
basis cc-pvdz
d_convergence 10
gdma_switch   0
gdma_limit    0
gdma_origin   [ 0.0,  0.0,  0.0 ]
}
molecule test {
    units Angstrom
    0 1
    --
    0 1
    C                1.669710093558373    -0.680565864356716     0.425913278467855
    C                3.056710093558372    -0.440565864356716     0.994913278467855
    H                1.733710093558372    -1.093565864356716    -0.581086721532145
    H                1.124710093558372    -1.389565864356716     1.046913278467855
    H                1.127710093558372     0.264434135643284     0.392913278467855
    H                3.596710093558372    -1.377565864356716     0.990913278467855
    H                3.620270093558373     0.297724135643284     0.405573278467855
    H                2.971140093558372    -0.088115864356716     2.033403278467855
    C               -1.850289906441628     0.106434135643284    -0.380086721532145
    C               -2.879289906441628     1.018434135643284    -1.035086721532145
    H               -1.978289906441628     0.091434135643284     0.700913278467855
    H               -1.948289906441627    -0.907565864356716    -0.765086721532145
    H               -0.854289906441628     0.474434135643284    -0.624086721532145
    H               -2.683289906441627     1.035434135643284    -2.106086721532145
    H               -2.782019906441628     2.044704135643284    -0.651276721532145
    H               -3.890449906441628     0.603724135643284    -0.910316721532145

}
e, wfn = energy('scf', return_wfn=True)
gdma(wfn)
dmavals = variable('DMA DISTRIBUTED MULTIPOLES')
charges = np.array(dmavals)
print(charges)
np.save('SSI-064VAL-073ALA-1-dimer.npy', np.array(charges))--------------------------------------------------------------------------

*** tstart() called on ds3
*** at Mon Apr 27 12:50:05 2020

   => Loading Basis Set <=

    Name: CC-PVDZ
    Role: ORBITAL
    Keyword: BASIS
    atoms 1-2, 9-10  entry C          line   138 file /theoryfs2/ds/metcalf/miniconda2/envs/tf2gpu/share/psi4/basis/cc-pvdz.gbs
    atoms 3-8, 11-16 entry H          line    22 file /theoryfs2/ds/metcalf/miniconda2/envs/tf2gpu/share/psi4/basis/cc-pvdz.gbs

         ---------------------------------------------------------
                                   SCF
               by Justin Turney, Rob Parrish, Andy Simmonett
                          and Daniel G. A. Smith
                              RHF Reference
                        1 Threads,    500 MiB Core
         ---------------------------------------------------------

  ==> Geometry <==

    Molecular point group: c1
    Full point group: C1

    Geometry (in Angstrom), charge = 0, multiplicity = 1:

       Center              X                  Y                   Z               Mass
    ------------   -----------------  -----------------  -----------------  -----------------
         C            1.669710093558    -0.680565864357     0.425913278468    12.000000000000
         C            3.056710093558    -0.440565864357     0.994913278468    12.000000000000
         H            1.733710093558    -1.093565864357    -0.581086721532     1.007825032230
         H            1.124710093558    -1.389565864357     1.046913278468     1.007825032230
         H            1.127710093558     0.264434135643     0.392913278468     1.007825032230
         H            3.596710093558    -1.377565864357     0.990913278468     1.007825032230
         H            3.620270093558     0.297724135643     0.405573278468     1.007825032230
         H            2.971140093558    -0.088115864357     2.033403278468     1.007825032230
         C           -1.850289906442     0.106434135643    -0.380086721532    12.000000000000
         C           -2.879289906442     1.018434135643    -1.035086721532    12.000000000000
         H           -1.978289906442     0.091434135643     0.700913278468     1.007825032230
         H           -1.948289906442    -0.907565864357    -0.765086721532     1.007825032230
         H           -0.854289906442     0.474434135643    -0.624086721532     1.007825032230
         H           -2.683289906442     1.035434135643    -2.106086721532     1.007825032230
         H           -2.782019906442     2.044704135643    -0.651276721532     1.007825032230
         H           -3.890449906442     0.603724135643    -0.910316721532     1.007825032230

  Running in c1 symmetry.

  Rotational constants: A =      0.86635  B =      0.03934  C =      0.03886 [cm^-1]
  Rotational constants: A =  25972.39703  B =   1179.30358  C =   1165.02589 [MHz]
  Nuclear repulsion =  119.986584778305442

  Charge       = 0
  Multiplicity = 1
  Electrons    = 36
  Nalpha       = 18
  Nbeta        = 18

  ==> Algorithm <==

  SCF Algorithm Type is PK.
  DIIS enabled.
  MOM disabled.
  Fractional occupation disabled.
  Guess Type is SAD.
  Energy threshold   = 1.00e-06
  Density threshold  = 1.00e-10
  Integral threshold = 0.00e+00

  ==> Primary Basis <==

  Basis Set: CC-PVDZ
    Blend: CC-PVDZ
    Number of shells: 60
    Number of basis function: 116
    Number of Cartesian functions: 120
    Spherical Harmonics?: true
    Max angular momentum: 2

  ==> Pre-Iterations <==

   -------------------------------------------------------
    Irrep   Nso     Nmo     Nalpha   Nbeta   Ndocc  Nsocc
   -------------------------------------------------------
     A        116     116       0       0       0       0
   -------------------------------------------------------
    Total     116     116      18      18      18       0
   -------------------------------------------------------

  ==> Integral Setup <==

  Using integral reordering PK algorithm.
  Sizing the integral batches needed.
  Building batch lookup table.
   Calculation information:
      Number of atoms:                  16
      Number of AO shells:              60
      Number of primitives:            148
      Number of atomic orbitals:       120
      Number of basis functions:       116

      Integral cutoff                 1.00e-12
      Number of threads:                 1

	Batch   1 pq = [       0,    6786] index = [             0,23028291] size =     23028291
  Task number: 3
  Buffer size: 11059200
  Buffer per thread: 2
  We computed 1324992 shell quartets total.
  Whereas there are 1675365 unique shell quartets.

  ==> DiskJK: Disk-Based J/K Matrices <==

    J tasked:                  Yes
    K tasked:                  Yes
    wK tasked:                  No
    Memory [MiB]:              375
    Schwarz Cutoff:          1E-12

    OpenMP threads:              1

  Minimum eigenvalue in the overlap matrix is 5.8575921414E-03.
  Using Symmetric Orthogonalization.

  SCF Guess: Superposition of Atomic Densities via on-the-fly atomic UHF.

  ==> Iterations <==

                        Total Energy        Delta E     RMS |[F,P]|

   @RHF iter SAD:  -157.38261115527627   -1.57383e+02   0.00000e+00
   @RHF iter   1:  -158.30513509682385   -9.22524e-01   4.24297e-03 DIIS
   @RHF iter   2:  -158.43995281237966   -1.34818e-01   1.80987e-03 DIIS
   @RHF iter   3:  -158.46368126835947   -2.37285e-02   3.51595e-04 DIIS
   @RHF iter   4:  -158.46552735415020   -1.84609e-03   3.92559e-05 DIIS
   @RHF iter   5:  -158.46555144034085   -2.40862e-05   6.97919e-06 DIIS
   @RHF iter   6:  -158.46555212889172   -6.88551e-07   1.32830e-06 DIIS
   @RHF iter   7:  -158.46555214478059   -1.58889e-08   3.12969e-07 DIIS
   @RHF iter   8:  -158.46555214569611   -9.15520e-10   3.43894e-08 DIIS
   @RHF iter   9:  -158.46555214571450   -1.83888e-11   5.10695e-09 DIIS
   @RHF iter  10:  -158.46555214571438    1.13687e-13   1.39458e-09 DIIS
   @RHF iter  11:  -158.46555214571441   -2.84217e-14   4.26876e-10 DIIS
   @RHF iter  12:  -158.46555214571461   -1.98952e-13   8.99334e-11 DIIS
  Energy and wave function converged.

  ==> Post-Iterations <==

    Orbital Energies [Eh]
    ---------------------

    Doubly Occupied:

       1A    -11.217765     2A    -11.216892     3A    -11.214960
       4A    -11.214362     5A     -1.021025     6A     -1.018530
       7A     -0.838869     8A     -0.832084     9A     -0.604230
      10A     -0.598257    11A     -0.597078    12A     -0.594806
      13A     -0.506919    14A     -0.497154    15A     -0.492019
      16A     -0.484450    17A     -0.482242    18A     -0.475712

    Virtual:

      19A      0.177661    20A      0.194368    21A      0.222242
      22A      0.243744    23A      0.246300    24A      0.260547
      25A      0.264111    26A      0.279835    27A      0.282539
      28A      0.286460    29A      0.288238    30A      0.331277
      31A      0.373918    32A      0.421978    33A      0.562935
      34A      0.595779    35A      0.597549    36A      0.603270
      37A      0.608987    38A      0.654468    39A      0.671273
      40A      0.679997    41A      0.711043    42A      0.755164
      43A      0.831299    44A      0.889918    45A      0.892251
      46A      0.892994    47A      0.895478    48A      0.897734
      49A      0.900255    50A      0.908338    51A      0.917460
      52A      0.926860    53A      0.929595    54A      0.944850
      55A      0.965413    56A      1.000419    57A      1.123923
      58A      1.128306    59A      1.135441    60A      1.143858
      61A      1.215820    62A      1.266747    63A      1.470018
      64A      1.476189    65A      1.480991    66A      1.491700
      67A      1.578782    68A      1.588255    69A      1.678281
      70A      1.683423    71A      1.695356    72A      1.696059
      73A      1.848687    74A      1.856381    75A      1.874433
      76A      1.877301    77A      1.895965    78A      1.924357
      79A      1.935260    80A      1.941815    81A      1.947735
      82A      1.951621    83A      1.954879    84A      1.957882
      85A      1.963497    86A      1.973402    87A      1.987460
      88A      2.063436    89A      2.090105    90A      2.104155
      91A      2.116533    92A      2.126796    93A      2.299262
      94A      2.305395    95A      2.311129    96A      2.355454
      97A      2.446930    98A      2.457331    99A      2.466700
     100A      2.485292   101A      2.556953   102A      2.566296
     103A      2.575759   104A      2.582862   105A      2.757613
     106A      2.769252   107A      2.785772   108A      2.798407
     109A      2.846740   110A      2.855311   111A      2.864229
     112A      2.870296   113A      2.937950   114A      2.950354
     115A      2.969285   116A      2.973071

    Final Occupation by Irrep:
              A
    DOCC [    18 ]

  @RHF Final Energy:  -158.46555214571461

   => Energetics <=

    Nuclear Repulsion Energy =            119.9865847783054420
    One-Electron Energy =                -449.0895639075838517
    Two-Electron Energy =                 170.6374269835638131
    Total Energy =                       -158.4655521457146108

Computation Completed

Properties will be evaluated at   0.000000,   0.000000,   0.000000 [a0]

Properties computed using the SCF density matrix

  Nuclear Dipole Moment: [e a0]
     X:     0.0353      Y:    -0.0417      Z:    -0.0631

  Electronic Dipole Moment: [e a0]
     X:    -0.0229      Y:     0.0231      Z:     0.0524

  Dipole Moment: [e a0]
     X:     0.0123      Y:    -0.0186      Z:    -0.0107     Total:     0.0248

  Dipole Moment: [D]
     X:     0.0313      Y:    -0.0474      Z:    -0.0271     Total:     0.0629

*** tstop() called on ds3 at Mon Apr 27 12:50:17 2020
Module time:
	user time   =       8.60 seconds =       0.14 minutes
	system time =       3.76 seconds =       0.06 minutes
	total time  =         12 seconds =       0.20 minutes
Total time:
	user time   =       8.60 seconds =       0.14 minutes
	system time =       3.76 seconds =       0.06 minutes
	total time  =         12 seconds =       0.20 minutes
                                     G D M A

                                 by Anthony Stone

                           version 2.2.06, 22 June 2011

               Distributed Multipoles from Gaussian wavefunctions

Starting at 12:50:17 on 27 Apr 2020

Using SCF density matrix from file ./SSI/SSI-064VAL-073ALA-1-dimer.test.4297.fchk

                         Distributed Multipole Analysis

Standard DMA

Positions and radii in angstrom
Multipole moments in atomic units, ea_0^k for rank k

C          x =  1.669710  y = -0.680566  z =  0.425913 angstrom
           Maximum rank =  0   Radius =  0.650 angstrom
                   Q00  =  -0.236933

C          x =  3.056710  y = -0.440566  z =  0.994913 angstrom
           Maximum rank =  0   Radius =  0.650 angstrom
                   Q00  =  -0.229681

H          x =  1.733710  y = -1.093566  z = -0.581087 angstrom
           Maximum rank =  0   Radius =  0.325 angstrom
                   Q00  =   0.076931

H          x =  1.124710  y = -1.389566  z =  1.046913 angstrom
           Maximum rank =  0   Radius =  0.325 angstrom
                   Q00  =   0.080441

H          x =  1.127710  y =  0.264434  z =  0.392913 angstrom
           Maximum rank =  0   Radius =  0.325 angstrom
                   Q00  =   0.076333

H          x =  3.596710  y = -1.377566  z =  0.990913 angstrom
           Maximum rank =  0   Radius =  0.325 angstrom
                   Q00  =   0.078381

H          x =  3.620270  y =  0.297724  z =  0.405573 angstrom
           Maximum rank =  0   Radius =  0.325 angstrom
                   Q00  =   0.078887

H          x =  2.971140  y = -0.088116  z =  2.033403 angstrom
           Maximum rank =  0   Radius =  0.325 angstrom
                   Q00  =   0.076740

C          x = -1.850290  y =  0.106434  z = -0.380087 angstrom
           Maximum rank =  0   Radius =  0.650 angstrom
                   Q00  =  -0.223589

C          x = -2.879290  y =  1.018434  z = -1.035087 angstrom
           Maximum rank =  0   Radius =  0.650 angstrom
                   Q00  =  -0.245833

H          x = -1.978290  y =  0.091434  z =  0.700913 angstrom
           Maximum rank =  0   Radius =  0.325 angstrom
                   Q00  =   0.077881

H          x = -1.948290  y = -0.907566  z = -0.765087 angstrom
           Maximum rank =  0   Radius =  0.325 angstrom
                   Q00  =   0.079077

H          x = -0.854290  y =  0.474434  z = -0.624087 angstrom
           Maximum rank =  0   Radius =  0.325 angstrom
                   Q00  =   0.077862

H          x = -2.683290  y =  1.035434  z = -2.106087 angstrom
           Maximum rank =  0   Radius =  0.325 angstrom
                   Q00  =   0.075640

H          x = -2.782020  y =  2.044704  z = -0.651277 angstrom
           Maximum rank =  0   Radius =  0.325 angstrom
                   Q00  =   0.079929

H          x = -3.890450  y =  0.603724  z = -0.910317 angstrom
           Maximum rank =  0   Radius =  0.325 angstrom
                   Q00  =   0.077934

Total multipoles referred to origin at
           x =   0.000000,  y =    0.000000,  z =    0.000000 angstrom
                   Q00  =  -0.000000

Finished at 12:50:17 on 27 Apr 2020

  DMA results are available in the Python driver through the
	  variable('DMA DISTRIBUTED MULTIPOLES')
  and
	  variable('DMA TOTAL MULTIPOLES')
  commands.

    Psi4 stopped on: Monday, 27 April 2020 12:50PM
    Psi4 wall time for execution: 0:00:12.40

*** Psi4 exiting successfully. Buy a developer a beer!
