                               Psi4 1.3.2 release

  ==> Input File <==

--------------------------------------------------------------------------
import numpy as np
set {scf_type pk
basis cc-pvdz
d_convergence 10
gdma_switch   0
gdma_limit    0
gdma_origin   [ 0.0,  0.0,  0.0 ]
}
molecule test {
    units Angstrom
    0 1
    --
    0 1
    C               -0.456430699011213     0.979187560675720     0.474594387399309
    C                0.779569300988787    -0.965812439324280     1.830594387399309
    S               -0.821430699011213    -0.142812439324280     1.810594387399310
    H               -1.074430699011213     0.717187560675720    -0.379405612600691
    H               -0.672430699011213     1.966187560675720     0.865594387399309
    H                0.597569300988787     0.967187560675720     0.202594387399309
    H                0.766569300988787    -1.718812439324280     2.610594387399309
    H                1.532569300988787    -0.220812439324280     2.092594387399309
    H                1.080229300988787    -1.481542439324280     0.906674387399309
    C                0.049569300988787     0.552187560675720    -2.907405612600691
    C                1.293569300988787    -0.272812439324280    -3.216405612600691
    H               -0.441430699011213     0.831187560675720    -3.841405612600691
    H               -0.647430699011213    -0.035812439324280    -2.311405612600691
    H                0.331569300988787     1.458187560675720    -2.367405612600691
    H                1.801569300988787    -0.439812439324280    -2.273405612600691
    H                1.975819300988787     0.260057560675720    -3.895065612600691
    H                0.968679300988787    -1.258372439324280    -3.581265612600691

}
e, wfn = energy('scf', return_wfn=True)
gdma(wfn)
dmavals = variable('DMA DISTRIBUTED MULTIPOLES')
charges = np.array(dmavals)
print(charges)
np.save('SSI-036MET-049LEU-1-dimer.npy', np.array(charges))--------------------------------------------------------------------------

*** tstart() called on ds3
*** at Mon Apr 27 16:07:56 2020

   => Loading Basis Set <=

    Name: CC-PVDZ
    Role: ORBITAL
    Keyword: BASIS
    atoms 1-2, 10-11 entry C          line   138 file /theoryfs2/ds/metcalf/miniconda2/envs/tf2gpu/share/psi4/basis/cc-pvdz.gbs
    atoms 3          entry S          line   598 file /theoryfs2/ds/metcalf/miniconda2/envs/tf2gpu/share/psi4/basis/cc-pvdz.gbs
    atoms 4-9, 12-17 entry H          line    22 file /theoryfs2/ds/metcalf/miniconda2/envs/tf2gpu/share/psi4/basis/cc-pvdz.gbs

         ---------------------------------------------------------
                                   SCF
               by Justin Turney, Rob Parrish, Andy Simmonett
                          and Daniel G. A. Smith
                              RHF Reference
                        1 Threads,    500 MiB Core
         ---------------------------------------------------------

  ==> Geometry <==

    Molecular point group: c1
    Full point group: C1

    Geometry (in Angstrom), charge = 0, multiplicity = 1:

       Center              X                  Y                   Z               Mass
    ------------   -----------------  -----------------  -----------------  -----------------
         C           -0.456430699011     0.979187560676     0.474594387399    12.000000000000
         C            0.779569300989    -0.965812439324     1.830594387399    12.000000000000
         S           -0.821430699011    -0.142812439324     1.810594387399    31.972071174400
         H           -1.074430699011     0.717187560676    -0.379405612601     1.007825032230
         H           -0.672430699011     1.966187560676     0.865594387399     1.007825032230
         H            0.597569300989     0.967187560676     0.202594387399     1.007825032230
         H            0.766569300989    -1.718812439324     2.610594387399     1.007825032230
         H            1.532569300989    -0.220812439324     2.092594387399     1.007825032230
         H            1.080229300989    -1.481542439324     0.906674387399     1.007825032230
         C            0.049569300989     0.552187560676    -2.907405612601    12.000000000000
         C            1.293569300989    -0.272812439324    -3.216405612601    12.000000000000
         H           -0.441430699011     0.831187560676    -3.841405612601     1.007825032230
         H           -0.647430699011    -0.035812439324    -2.311405612601     1.007825032230
         H            0.331569300989     1.458187560676    -2.367405612601     1.007825032230
         H            1.801569300989    -0.439812439324    -2.273405612601     1.007825032230
         H            1.975819300989     0.260057560676    -3.895065612601     1.007825032230
         H            0.968679300989    -1.258372439324    -3.581265612601     1.007825032230

  Running in c1 symmetry.

  Rotational constants: A =      0.19586  B =      0.03488  C =      0.03114 [cm^-1]
  Rotational constants: A =   5871.80690  B =   1045.66201  C =    933.57458 [MHz]
  Nuclear repulsion =  223.702276605396634

  Charge       = 0
  Multiplicity = 1
  Electrons    = 52
  Nalpha       = 26
  Nbeta        = 26

  ==> Algorithm <==

  SCF Algorithm Type is PK.
  DIIS enabled.
  MOM disabled.
  Fractional occupation disabled.
  Guess Type is SAD.
  Energy threshold   = 1.00e-06
  Density threshold  = 1.00e-10
  Integral threshold = 0.00e+00

  ==> Primary Basis <==

  Basis Set: CC-PVDZ
    Blend: CC-PVDZ
    Number of shells: 68
    Number of basis function: 134
    Number of Cartesian functions: 139
    Spherical Harmonics?: true
    Max angular momentum: 2

  ==> Pre-Iterations <==

   -------------------------------------------------------
    Irrep   Nso     Nmo     Nalpha   Nbeta   Ndocc  Nsocc
   -------------------------------------------------------
     A        134     134       0       0       0       0
   -------------------------------------------------------
    Total     134     134      26      26      26       0
   -------------------------------------------------------

  ==> Integral Setup <==

  Using integral reordering PK algorithm.
  Sizing the integral batches needed.
  Building batch lookup table.
   Calculation information:
      Number of atoms:                  17
      Number of AO shells:              68
      Number of primitives:            198
      Number of atomic orbitals:       139
      Number of basis functions:       134

      Integral cutoff                 1.00e-12
      Number of threads:                 1

	Batch   1 pq = [       0,    9045] index = [             0,40910535] size =     40910535
  Task number: 4
  Buffer size: 11059200
  Buffer per thread: 2
  We computed 2345429 shell quartets total.
  Whereas there are 2753031 unique shell quartets.

  ==> DiskJK: Disk-Based J/K Matrices <==

    J tasked:                  Yes
    K tasked:                  Yes
    wK tasked:                  No
    Memory [MiB]:              375
    Schwarz Cutoff:          1E-12

    OpenMP threads:              1

  Minimum eigenvalue in the overlap matrix is 7.3550859078E-03.
  Using Symmetric Orthogonalization.

  SCF Guess: Superposition of Atomic Densities via on-the-fly atomic UHF.

  ==> Iterations <==

                        Total Energy        Delta E     RMS |[F,P]|

   @RHF iter SAD:  -554.99977682488020   -5.55000e+02   0.00000e+00
   @RHF iter   1:  -555.83413984975186   -8.34363e-01   3.40153e-03 DIIS
   @RHF iter   2:  -555.95878823108353   -1.24648e-01   1.35633e-03 DIIS
   @RHF iter   3:  -555.97723039530774   -1.84422e-02   3.20023e-04 DIIS
   @RHF iter   4:  -555.97914011388616   -1.90972e-03   5.15456e-05 DIIS
   @RHF iter   5:  -555.97918353517196   -4.34213e-05   1.25907e-05 DIIS
   @RHF iter   6:  -555.97918615838785   -2.62322e-06   3.29655e-06 DIIS
   @RHF iter   7:  -555.97918634169093   -1.83303e-07   8.10467e-07 DIIS
   @RHF iter   8:  -555.97918635684880   -1.51579e-08   2.32283e-07 DIIS
   @RHF iter   9:  -555.97918635859799   -1.74919e-09   7.90855e-08 DIIS
   @RHF iter  10:  -555.97918635882797   -2.29988e-10   2.91903e-08 DIIS
   @RHF iter  11:  -555.97918635886447   -3.64935e-11   1.03091e-08 DIIS
   @RHF iter  12:  -555.97918635886845   -3.97904e-12   3.74760e-09 DIIS
   @RHF iter  13:  -555.97918635887027   -1.81899e-12   9.26835e-10 DIIS
   @RHF iter  14:  -555.97918635886913    1.13687e-12   2.11784e-10 DIIS
   @RHF iter  15:  -555.97918635887186   -2.72848e-12   5.59377e-11 DIIS
  Energy and wave function converged.

  ==> Post-Iterations <==

    Orbital Energies [Eh]
    ---------------------

    Doubly Occupied:

       1A    -91.933053     2A    -11.253722     3A    -11.248058
       4A    -11.223209     5A    -11.220805     6A     -8.937528
       7A     -6.619613     8A     -6.618000     9A     -6.615704
      10A     -1.067144    11A     -1.025705    12A     -0.949091
      13A     -0.840509    14A     -0.804980    15A     -0.613895
      16A     -0.606872    17A     -0.604979    18A     -0.594447
      19A     -0.569618    20A     -0.565879    21A     -0.503742
      22A     -0.494398    23A     -0.487242    24A     -0.479680
      25A     -0.435524    26A     -0.329044

    Virtual:

      27A      0.158612    28A      0.180173    29A      0.205587
      30A      0.217686    31A      0.233542    32A      0.242320
      33A      0.247843    34A      0.254697    35A      0.261474
      36A      0.270505    37A      0.282292    38A      0.307035
      39A      0.333657    40A      0.345160    41A      0.392698
      42A      0.542443    43A      0.563352    44A      0.598098
      45A      0.600013    46A      0.603252    47A      0.605219
      48A      0.621283    49A      0.631632    50A      0.670134
      51A      0.688599    52A      0.712045    53A      0.737225
      54A      0.780765    55A      0.801422    56A      0.829018
      57A      0.846302    58A      0.854803    59A      0.870389
      60A      0.880972    61A      0.887334    62A      0.890261
      63A      0.893910    64A      0.896298    65A      0.905402
      66A      0.921615    67A      0.924159    68A      0.943294
      69A      0.958703    70A      0.978128    71A      0.978574
      72A      1.007615    73A      1.121392    74A      1.162990
      75A      1.164161    76A      1.239565    77A      1.260651
      78A      1.304707    79A      1.352207    80A      1.360805
      81A      1.373445    82A      1.466881    83A      1.470723
      84A      1.497428    85A      1.528663    86A      1.594120
      87A      1.648568    88A      1.670367    89A      1.678498
      90A      1.708556    91A      1.838771    92A      1.865238
      93A      1.878411    94A      1.882814    95A      1.901380
      96A      1.908602    97A      1.912198    98A      1.927540
      99A      1.941618   100A      1.946929   101A      1.954638
     102A      1.967821   103A      1.986259   104A      1.996387
     105A      2.019345   106A      2.034363   107A      2.042773
     108A      2.095528   109A      2.124822   110A      2.149432
     111A      2.216301   112A      2.258321   113A      2.279194
     114A      2.307298   115A      2.410823   116A      2.420479
     117A      2.434170   118A      2.453433   119A      2.472051
     120A      2.483834   121A      2.562388   122A      2.587754
     123A      2.737871   124A      2.762877   125A      2.770929
     126A      2.775413   127A      2.791676   128A      2.805679
     129A      2.813228   130A      2.840965   131A      2.850152
     132A      2.857749   133A      2.946516   134A      2.980464

    Final Occupation by Irrep:
              A
    DOCC [    26 ]

  @RHF Final Energy:  -555.97918635887186

   => Energetics <=

    Nuclear Repulsion Energy =            223.7022766053966336
    One-Electron Energy =               -1206.0780422376969909
    Two-Electron Energy =                 426.3965792734285856
    Total Energy =                       -555.9791863588718570

Computation Completed

Properties will be evaluated at   0.000000,   0.000000,   0.000000 [a0]

Properties computed using the SCF density matrix

  Nuclear Dipole Moment: [e a0]
     X:     5.8083      Y:     0.9757      Z:   -11.1750

  Electronic Dipole Moment: [e a0]
     X:    -5.2658      Y:    -0.8668      Z:    10.7873

  Dipole Moment: [e a0]
     X:     0.5425      Y:     0.1090      Z:    -0.3877     Total:     0.6756

  Dipole Moment: [D]
     X:     1.3788      Y:     0.2770      Z:    -0.9853     Total:     1.7172

*** tstop() called on ds3 at Mon Apr 27 16:08:22 2020
Module time:
	user time   =      19.37 seconds =       0.32 minutes
	system time =       6.74 seconds =       0.11 minutes
	total time  =         26 seconds =       0.43 minutes
Total time:
	user time   =      19.37 seconds =       0.32 minutes
	system time =       6.74 seconds =       0.11 minutes
	total time  =         26 seconds =       0.43 minutes
                                     G D M A

                                 by Anthony Stone

                           version 2.2.06, 22 June 2011

               Distributed Multipoles from Gaussian wavefunctions

Starting at 16:8:22 on 27 Apr 2020

Using SCF density matrix from file ./SSI/SSI-036MET-049LEU-1-dimer.test.25109.fchk

                         Distributed Multipole Analysis

Standard DMA

Positions and radii in angstrom
Multipole moments in atomic units, ea_0^k for rank k

C          x = -0.456431  y =  0.979188  z =  0.474594 angstrom
           Maximum rank =  0   Radius =  0.650 angstrom
                   Q00  =  -0.338044

C          x =  0.779569  y = -0.965812  z =  1.830594 angstrom
           Maximum rank =  0   Radius =  0.650 angstrom
                   Q00  =  -0.364870

S          x = -0.821431  y = -0.142812  z =  1.810594 angstrom
           Maximum rank =  0   Radius =  0.650 angstrom
                   Q00  =   0.121459

H          x = -1.074431  y =  0.717188  z = -0.379406 angstrom
           Maximum rank =  0   Radius =  0.325 angstrom
                   Q00  =   0.100987

H          x = -0.672431  y =  1.966188  z =  0.865594 angstrom
           Maximum rank =  0   Radius =  0.325 angstrom
                   Q00  =   0.099904

H          x =  0.597569  y =  0.967188  z =  0.202594 angstrom
           Maximum rank =  0   Radius =  0.325 angstrom
                   Q00  =   0.096091

H          x =  0.766569  y = -1.718812  z =  2.610594 angstrom
           Maximum rank =  0   Radius =  0.325 angstrom
                   Q00  =   0.114906

H          x =  1.532569  y = -0.220812  z =  2.092594 angstrom
           Maximum rank =  0   Radius =  0.325 angstrom
                   Q00  =   0.079965

H          x =  1.080229  y = -1.481542  z =  0.906674 angstrom
           Maximum rank =  0   Radius =  0.325 angstrom
                   Q00  =   0.088836

C          x =  0.049569  y =  0.552188  z = -2.907406 angstrom
           Maximum rank =  0   Radius =  0.650 angstrom
                   Q00  =  -0.233444

C          x =  1.293569  y = -0.272812  z = -3.216406 angstrom
           Maximum rank =  0   Radius =  0.650 angstrom
                   Q00  =  -0.205811

H          x = -0.441431  y =  0.831188  z = -3.841406 angstrom
           Maximum rank =  0   Radius =  0.325 angstrom
                   Q00  =   0.079557

H          x = -0.647431  y = -0.035812  z = -2.311406 angstrom
           Maximum rank =  0   Radius =  0.325 angstrom
                   Q00  =   0.076241

H          x =  0.331569  y =  1.458188  z = -2.367406 angstrom
           Maximum rank =  0   Radius =  0.325 angstrom
                   Q00  =   0.074383

H          x =  1.801569  y = -0.439812  z = -2.273406 angstrom
           Maximum rank =  0   Radius =  0.325 angstrom
                   Q00  =   0.070807

H          x =  1.975819  y =  0.260058  z = -3.895066 angstrom
           Maximum rank =  0   Radius =  0.325 angstrom
                   Q00  =   0.071989

H          x =  0.968679  y = -1.258372  z = -3.581266 angstrom
           Maximum rank =  0   Radius =  0.325 angstrom
                   Q00  =   0.067045

Total multipoles referred to origin at
           x =   0.000000,  y =    0.000000,  z =    0.000000 angstrom
                   Q00  =  -0.000000

Finished at 16:8:22 on 27 Apr 2020

  DMA results are available in the Python driver through the
	  variable('DMA DISTRIBUTED MULTIPOLES')
  and
	  variable('DMA TOTAL MULTIPOLES')
  commands.

    Psi4 stopped on: Monday, 27 April 2020 04:08PM
    Psi4 wall time for execution: 0:00:25.75

*** Psi4 exiting successfully. Buy a developer a beer!
