                               Psi4 1.3.2 release

  ==> Input File <==

--------------------------------------------------------------------------
import numpy as np
set {scf_type pk
basis cc-pvdz
d_convergence 10
gdma_switch   0
gdma_limit    0
gdma_origin   [ 0.0,  0.0,  0.0 ]
}
molecule test {
    units Angstrom
    0 1
    --
    0 1
    C               -0.090943894006654    -3.579038863965367    -1.380208858013057
    C               -1.181943894006654    -4.641038863965368    -1.527208858013057
    H                0.899056105993346    -4.033038863965367    -1.451208858013056
    H               -0.191943894006654    -2.820038863965367    -2.156208858013057
    H               -0.184943894006654    -3.095038863965367    -0.415208858013057
    H               -2.125943894006654    -4.123038863965368    -1.706208858013057
    H               -1.275703894006654    -5.184418863965368    -0.575398858013057
    H               -1.002543894006654    -5.316288863965368    -2.376828858013056
    C                0.253056105993346    -0.501038863965367     0.514791141986943
    C               -0.665943894006654    -1.045038863965367     1.631791141986943
    C                0.355056105993346     0.984961136034633     0.402791141986943
    C                1.441056105993346     1.814961136034633     0.471791141986943
    C               -0.283943894006654     3.029961136034633    -0.125208858013057
    N               -0.699943894006654     1.762961136034633     0.006791141986943
    N                1.012056105993346     3.098961136034633     0.172791141986943
    H                1.252056105993346    -0.921038863965367     0.635791141986943
    H               -0.137943894006654    -0.858038863965367    -0.435208858013057
    H               -0.826943894006654    -2.104038863965367     1.434791141986943
    H                2.455056105993346     1.507961136034633     0.693791141986943
    H               -0.900943894006654     3.862961136034633    -0.430208858013057
    H                1.589056105993346     3.930961136034633     0.113791141986943
    H               -1.646403894006654    -0.550668863965367     1.697356141986944
    H               -0.171393894006654    -0.980968863965367     2.612257141986943

}
e, wfn = energy('scf', return_wfn=True)
gdma(wfn)
dmavals = variable('DMA DISTRIBUTED MULTIPOLES')
charges = np.array(dmavals)
print(charges)
np.save('SSI-044ILE-101HIE-1-dimer.npy', np.array(charges))--------------------------------------------------------------------------

*** tstart() called on ds3
*** at Tue Apr 28 01:40:07 2020

   => Loading Basis Set <=

    Name: CC-PVDZ
    Role: ORBITAL
    Keyword: BASIS
    atoms 1-2, 9-13  entry C          line   138 file /theoryfs2/ds/metcalf/miniconda2/envs/tf2gpu/share/psi4/basis/cc-pvdz.gbs
    atoms 3-8, 16-23 entry H          line    22 file /theoryfs2/ds/metcalf/miniconda2/envs/tf2gpu/share/psi4/basis/cc-pvdz.gbs
    atoms 14-15      entry N          line   168 file /theoryfs2/ds/metcalf/miniconda2/envs/tf2gpu/share/psi4/basis/cc-pvdz.gbs

         ---------------------------------------------------------
                                   SCF
               by Justin Turney, Rob Parrish, Andy Simmonett
                          and Daniel G. A. Smith
                              RHF Reference
                        1 Threads,    500 MiB Core
         ---------------------------------------------------------

  ==> Geometry <==

    Molecular point group: c1
    Full point group: C1

    Geometry (in Angstrom), charge = 0, multiplicity = 1:

       Center              X                  Y                   Z               Mass
    ------------   -----------------  -----------------  -----------------  -----------------
         C           -0.090943894007    -3.579038863965    -1.380208858013    12.000000000000
         C           -1.181943894007    -4.641038863965    -1.527208858013    12.000000000000
         H            0.899056105993    -4.033038863965    -1.451208858013     1.007825032230
         H           -0.191943894007    -2.820038863965    -2.156208858013     1.007825032230
         H           -0.184943894007    -3.095038863965    -0.415208858013     1.007825032230
         H           -2.125943894007    -4.123038863965    -1.706208858013     1.007825032230
         H           -1.275703894007    -5.184418863965    -0.575398858013     1.007825032230
         H           -1.002543894007    -5.316288863965    -2.376828858013     1.007825032230
         C            0.253056105993    -0.501038863965     0.514791141987    12.000000000000
         C           -0.665943894007    -1.045038863965     1.631791141987    12.000000000000
         C            0.355056105993     0.984961136035     0.402791141987    12.000000000000
         C            1.441056105993     1.814961136035     0.471791141987    12.000000000000
         C           -0.283943894007     3.029961136035    -0.125208858013    12.000000000000
         N           -0.699943894007     1.762961136035     0.006791141987    14.003074004430
         N            1.012056105993     3.098961136035     0.172791141987    14.003074004430
         H            1.252056105993    -0.921038863965     0.635791141987     1.007825032230
         H           -0.137943894007    -0.858038863965    -0.435208858013     1.007825032230
         H           -0.826943894007    -2.104038863965     1.434791141987     1.007825032230
         H            2.455056105993     1.507961136035     0.693791141987     1.007825032230
         H           -0.900943894007     3.862961136035    -0.430208858013     1.007825032230
         H            1.589056105993     3.930961136035     0.113791141987     1.007825032230
         H           -1.646403894007    -0.550668863965     1.697356141987     1.007825032230
         H           -0.171393894007    -0.980968863965     2.612257141987     1.007825032230

  Running in c1 symmetry.

  Rotational constants: A =      0.11083  B =      0.01617  C =      0.01585 [cm^-1]
  Rotational constants: A =   3322.53884  B =    484.71340  C =    475.24546 [MHz]
  Nuclear repulsion =  421.083095009170052

  Charge       = 0
  Multiplicity = 1
  Electrons    = 70
  Nalpha       = 35
  Nbeta        = 35

  ==> Algorithm <==

  SCF Algorithm Type is PK.
  DIIS enabled.
  MOM disabled.
  Fractional occupation disabled.
  Guess Type is SAD.
  Energy threshold   = 1.00e-06
  Density threshold  = 1.00e-10
  Integral threshold = 0.00e+00

  ==> Primary Basis <==

  Basis Set: CC-PVDZ
    Blend: CC-PVDZ
    Number of shells: 96
    Number of basis function: 196
    Number of Cartesian functions: 205
    Spherical Harmonics?: true
    Max angular momentum: 2

  ==> Pre-Iterations <==

   -------------------------------------------------------
    Irrep   Nso     Nmo     Nalpha   Nbeta   Ndocc  Nsocc
   -------------------------------------------------------
     A        196     196       0       0       0       0
   -------------------------------------------------------
    Total     196     196      35      35      35       0
   -------------------------------------------------------

  ==> Integral Setup <==

  Using integral reordering PK algorithm.
  Sizing the integral batches needed.
  Building batch lookup table.
   Calculation information:
      Number of atoms:                  23
      Number of AO shells:              96
      Number of primitives:            268
      Number of atomic orbitals:       205
      Number of basis functions:       196

      Integral cutoff                 1.00e-12
      Number of threads:                 1

	Batch   1 pq = [       0,    9405] index = [             0,44231715] size =     44231715
	Batch   2 pq = [    9405,   13301] index = [      44231715,88464951] size =     44233236
	Batch   3 pq = [   13301,   16290] index = [      88464951,132690195] size =     44225244
	Batch   4 pq = [   16290,   18810] index = [     132690195,176917455] size =     44227260
	Batch   5 pq = [   18810,   19306] index = [     176917455,186370471] size =      9453016
  Task number: 17
  Buffer size: 11059200
  Buffer per thread: 2
  We computed 8184986 shell quartets total.
  Whereas there are 10841496 unique shell quartets.

  ==> DiskJK: Disk-Based J/K Matrices <==

    J tasked:                  Yes
    K tasked:                  Yes
    wK tasked:                  No
    Memory [MiB]:              375
    Schwarz Cutoff:          1E-12

    OpenMP threads:              1

  Minimum eigenvalue in the overlap matrix is 1.1540187422E-03.
  Using Symmetric Orthogonalization.

  SCF Guess: Superposition of Atomic Densities via on-the-fly atomic UHF.

  ==> Iterations <==

                        Total Energy        Delta E     RMS |[F,P]|

   @RHF iter SAD:  -381.16564958432832   -3.81166e+02   0.00000e+00
   @RHF iter   1:  -381.89084325630483   -7.25194e-01   3.11739e-03 DIIS
   @RHF iter   2:  -382.08389470398373   -1.93051e-01   1.61030e-03 DIIS
   @RHF iter   3:  -382.13133484938970   -4.74401e-02   4.21690e-04 DIIS
   @RHF iter   4:  -382.13553595480971   -4.20111e-03   1.75151e-04 DIIS
   @RHF iter   5:  -382.13620887140388   -6.72917e-04   2.36072e-05 DIIS
   @RHF iter   6:  -382.13623050462303   -2.16332e-05   9.81283e-06 DIIS
   @RHF iter   7:  -382.13623348374892   -2.97913e-06   3.42897e-06 DIIS
   @RHF iter   8:  -382.13623409534898   -6.11600e-07   1.34454e-06 DIIS
   @RHF iter   9:  -382.13623423474343   -1.39394e-07   4.59959e-07 DIIS
   @RHF iter  10:  -382.13623424812681   -1.33834e-08   1.58286e-07 DIIS
   @RHF iter  11:  -382.13623425004369   -1.91687e-09   6.74315e-08 DIIS
   @RHF iter  12:  -382.13623425029505   -2.51362e-10   2.64031e-08 DIIS
   @RHF iter  13:  -382.13623425033597   -4.09273e-11   8.30093e-09 DIIS
   @RHF iter  14:  -382.13623425033762   -1.64846e-12   2.91810e-09 DIIS
   @RHF iter  15:  -382.13623425033921   -1.59162e-12   1.14454e-09 DIIS
   @RHF iter  16:  -382.13623425033938   -1.70530e-13   4.10109e-10 DIIS
   @RHF iter  17:  -382.13623425033961   -2.27374e-13   1.41437e-10 DIIS
   @RHF iter  18:  -382.13623425034132   -1.70530e-12   4.49782e-11 DIIS
  Energy and wave function converged.

  ==> Post-Iterations <==

    Orbital Energies [Eh]
    ---------------------

    Doubly Occupied:

       1A    -15.622672     2A    -15.527718     3A    -11.293645
       4A    -11.250626     5A    -11.239060     6A    -11.223931
       7A    -11.215847     8A    -11.214526     9A    -11.211930
      10A     -1.336578    11A     -1.154905    12A     -1.043874
      13A     -1.014745    14A     -0.980674    15A     -0.860552
      16A     -0.833815    17A     -0.819773    18A     -0.756089
      19A     -0.732770    20A     -0.621009    21A     -0.607232
      22A     -0.596613    23A     -0.592860    24A     -0.591862
      25A     -0.578411    26A     -0.559852    27A     -0.510869
      28A     -0.496500    29A     -0.490917    30A     -0.483413
      31A     -0.482374    32A     -0.477102    33A     -0.407418
      34A     -0.376662    35A     -0.305102

    Virtual:

      36A      0.174067    37A      0.175523    38A      0.187845
      39A      0.204678    40A      0.223718    41A      0.226274
      42A      0.229119    43A      0.246279    44A      0.250974
      45A      0.257187    46A      0.272236    47A      0.291349
      48A      0.296138    49A      0.300890    50A      0.314292
      51A      0.353777    52A      0.390537    53A      0.395910
      54A      0.398101    55A      0.416361    56A      0.467950
      57A      0.486553    58A      0.500195    59A      0.591234
      60A      0.603228    61A      0.607694    62A      0.614968
      63A      0.619777    64A      0.628035    65A      0.653344
      66A      0.674654    67A      0.690201    68A      0.695935
      69A      0.706819    70A      0.715401    71A      0.762936
      72A      0.769836    73A      0.792052    74A      0.823402
      75A      0.834857    76A      0.851764    77A      0.868207
      78A      0.885274    79A      0.886373    80A      0.893397
      81A      0.898445    82A      0.905412    83A      0.907731
      84A      0.917608    85A      0.926318    86A      0.929615
      87A      0.938145    88A      0.948367    89A      0.954975
      90A      0.978434    91A      0.981170    92A      0.996367
      93A      1.041167    94A      1.046515    95A      1.059766
      96A      1.097040    97A      1.113157    98A      1.123838
      99A      1.130440   100A      1.138673   101A      1.167495
     102A      1.190573   103A      1.244835   104A      1.250899
     105A      1.288807   106A      1.305061   107A      1.315818
     108A      1.339691   109A      1.398501   110A      1.414965
     111A      1.442488   112A      1.454186   113A      1.477480
     114A      1.493862   115A      1.512233   116A      1.532261
     117A      1.559638   118A      1.600841   119A      1.631953
     120A      1.683640   121A      1.685259   122A      1.695079
     123A      1.703080   124A      1.718742   125A      1.739788
     126A      1.769642   127A      1.819916   128A      1.839591
     129A      1.862534   130A      1.863819   131A      1.875233
     132A      1.891544   133A      1.903003   134A      1.920796
     135A      1.924422   136A      1.929925   137A      1.947349
     138A      1.951471   139A      1.954315   140A      1.961814
     141A      1.973265   142A      1.981305   143A      1.997305
     144A      2.009373   145A      2.019878   146A      2.032855
     147A      2.043295   148A      2.063886   149A      2.100884
     150A      2.118593   151A      2.142324   152A      2.152809
     153A      2.175700   154A      2.197848   155A      2.222132
     156A      2.253551   157A      2.294942   158A      2.298613
     159A      2.307972   160A      2.327078   161A      2.356338
     162A      2.390610   163A      2.442833   164A      2.446644
     165A      2.452463   166A      2.465613   167A      2.478070
     168A      2.504846   169A      2.548455   170A      2.579395
     171A      2.583623   172A      2.604264   173A      2.614184
     174A      2.675073   175A      2.747467   176A      2.757782
     177A      2.763603   178A      2.776707   179A      2.798428
     180A      2.802441   181A      2.833091   182A      2.839038
     183A      2.869984   184A      2.871260   185A      2.898745
     186A      2.919358   187A      2.940668   188A      2.943947
     189A      2.957569   190A      2.986492   191A      3.004557
     192A      3.073536   193A      3.164002   194A      3.257523
     195A      3.470363   196A      3.780827

    Final Occupation by Irrep:
              A
    DOCC [    35 ]

  @RHF Final Energy:  -382.13623425034132

   => Energetics <=

    Nuclear Repulsion Energy =            421.0830950091700515
    One-Electron Energy =               -1351.4148035325515593
    Two-Electron Energy =                 548.1954742730401904
    Total Energy =                       -382.1362342503413174

Computation Completed

Properties will be evaluated at   0.000000,   0.000000,   0.000000 [a0]

Properties computed using the SCF density matrix

  Nuclear Dipole Moment: [e a0]
     X:    -2.1285      Y:   -19.4054      Z:    -2.2117

  Electronic Dipole Moment: [e a0]
     X:     3.1482      Y:    20.2965      Z:     2.2022

  Dipole Moment: [e a0]
     X:     1.0197      Y:     0.8911      Z:    -0.0096     Total:     1.3543

  Dipole Moment: [D]
     X:     2.5919      Y:     2.2650      Z:    -0.0243     Total:     3.4422

*** tstop() called on ds3 at Tue Apr 28 01:41:25 2020
Module time:
	user time   =      52.93 seconds =       0.88 minutes
	system time =      27.47 seconds =       0.46 minutes
	total time  =         78 seconds =       1.30 minutes
Total time:
	user time   =      52.93 seconds =       0.88 minutes
	system time =      27.47 seconds =       0.46 minutes
	total time  =         78 seconds =       1.30 minutes
                                     G D M A

                                 by Anthony Stone

                           version 2.2.06, 22 June 2011

               Distributed Multipoles from Gaussian wavefunctions

Starting at 1:41:25 on 28 Apr 2020

Using SCF density matrix from file ./SSI/SSI-044ILE-101HIE-1-dimer.test.8937.fchk

                         Distributed Multipole Analysis

Standard DMA

Positions and radii in angstrom
Multipole moments in atomic units, ea_0^k for rank k

C          x = -0.090944  y = -3.579039  z = -1.380209 angstrom
           Maximum rank =  0   Radius =  0.650 angstrom
                   Q00  =  -0.239025

C          x = -1.181944  y = -4.641039  z = -1.527209 angstrom
           Maximum rank =  0   Radius =  0.650 angstrom
                   Q00  =  -0.237826

H          x =  0.899056  y = -4.033039  z = -1.451209 angstrom
           Maximum rank =  0   Radius =  0.325 angstrom
                   Q00  =   0.076865

H          x = -0.191944  y = -2.820039  z = -2.156209 angstrom
           Maximum rank =  0   Radius =  0.325 angstrom
                   Q00  =   0.079112

H          x = -0.184944  y = -3.095039  z = -0.415209 angstrom
           Maximum rank =  0   Radius =  0.325 angstrom
                   Q00  =   0.082717

H          x = -2.125944  y = -4.123039  z = -1.706209 angstrom
           Maximum rank =  0   Radius =  0.325 angstrom
                   Q00  =   0.077377

H          x = -1.275704  y = -5.184419  z = -0.575399 angstrom
           Maximum rank =  0   Radius =  0.325 angstrom
                   Q00  =   0.076162

H          x = -1.002544  y = -5.316289  z = -2.376829 angstrom
           Maximum rank =  0   Radius =  0.325 angstrom
                   Q00  =   0.081968

C          x =  0.253056  y = -0.501039  z =  0.514791 angstrom
           Maximum rank =  0   Radius =  0.650 angstrom
                   Q00  =  -0.025324

C          x = -0.665944  y = -1.045039  z =  1.631791 angstrom
           Maximum rank =  0   Radius =  0.650 angstrom
                   Q00  =  -0.258036

C          x =  0.355056  y =  0.984961  z =  0.402791 angstrom
           Maximum rank =  0   Radius =  0.650 angstrom
                   Q00  =   0.246450

C          x =  1.441056  y =  1.814961  z =  0.471791 angstrom
           Maximum rank =  0   Radius =  0.650 angstrom
                   Q00  =  -0.017340

C          x = -0.283944  y =  3.029961  z = -0.125209 angstrom
           Maximum rank =  0   Radius =  0.650 angstrom
                   Q00  =   0.455549

N          x = -0.699944  y =  1.762961  z =  0.006791 angstrom
           Maximum rank =  0   Radius =  0.650 angstrom
                   Q00  =  -0.786735

N          x =  1.012056  y =  3.098961  z =  0.172791 angstrom
           Maximum rank =  0   Radius =  0.650 angstrom
                   Q00  =  -0.466471

H          x =  1.252056  y = -0.921039  z =  0.635791 angstrom
           Maximum rank =  0   Radius =  0.325 angstrom
                   Q00  =   0.063515

H          x = -0.137944  y = -0.858039  z = -0.435209 angstrom
           Maximum rank =  0   Radius =  0.325 angstrom
                   Q00  =   0.085674

H          x = -0.826944  y = -2.104039  z =  1.434791 angstrom
           Maximum rank =  0   Radius =  0.325 angstrom
                   Q00  =   0.076704

H          x =  2.455056  y =  1.507961  z =  0.693791 angstrom
           Maximum rank =  0   Radius =  0.325 angstrom
                   Q00  =   0.101747

H          x = -0.900944  y =  3.862961  z = -0.430209 angstrom
           Maximum rank =  0   Radius =  0.325 angstrom
                   Q00  =   0.123111

H          x =  1.589056  y =  3.930961  z =  0.113791 angstrom
           Maximum rank =  0   Radius =  0.325 angstrom
                   Q00  =   0.225257

H          x = -1.646404  y = -0.550669  z =  1.697356 angstrom
           Maximum rank =  0   Radius =  0.325 angstrom
                   Q00  =   0.103537

H          x = -0.171394  y = -0.980969  z =  2.612257 angstrom
           Maximum rank =  0   Radius =  0.325 angstrom
                   Q00  =   0.075011

Total multipoles referred to origin at
           x =   0.000000,  y =    0.000000,  z =    0.000000 angstrom
                   Q00  =  -0.000000

Finished at 1:41:25 on 28 Apr 2020

  DMA results are available in the Python driver through the
	  variable('DMA DISTRIBUTED MULTIPOLES')
  and
	  variable('DMA TOTAL MULTIPOLES')
  commands.

    Psi4 stopped on: Tuesday, 28 April 2020 01:41AM
    Psi4 wall time for execution: 0:01:17.88

*** Psi4 exiting successfully. Buy a developer a beer!
