                               Psi4 1.3.2 release

  ==> Input File <==

--------------------------------------------------------------------------
import numpy as np
set {scf_type pk
basis cc-pvdz
d_convergence 10
gdma_switch   0
gdma_limit    0
gdma_origin   [ 0.0,  0.0,  0.0 ]
}
molecule test {
    units Angstrom
    0 1
    --
    0 1
    C               -1.010001042659789    -2.343045539427681    -0.715990106945032
    C                0.344998957340212    -0.353045539427680    -0.083990106945032
    C               -0.388001042659788    -1.456045539427680     0.319009893054968
    C                0.908998957340211     0.522954460572320     0.833009893054968
    C               -0.515001042659788    -1.686045539427680     1.684009893054968
    C                0.787998957340211     0.275954460572320     2.188009893054968
    C                0.071998957340211    -0.822045539427680     2.621009893054968
    H                0.453998957340212    -0.148045539427680    -1.135990106945032
    H                1.457998957340211     1.387954460572319     0.487009893054968
    H               -1.338001042659789    -1.727045539427680    -1.554990106945032
    H               -1.882001042659789    -2.805045539427681    -0.253990106945032
    H               -1.078001042659789    -2.539045539427680     2.035009893054968
    H                1.243998957340211     0.943954460572320     2.903009893054968
    H               -0.025001042659789    -1.019045539427680     3.678009893054968
    H               -0.352427042659789    -3.145156539427681    -1.082340106945032
    C                0.158998957340211     2.634954460572319    -2.166990106945032
    C               -0.216001042659789     2.661954460572320    -3.640990106945032
    H               -0.113001042659789     3.581954460572320    -1.703990106945032
    H               -0.388001042659788     1.838954460572319    -1.674990106945032
    H                1.221998957340211     2.434954460572319    -2.033990106945032
    H                0.140998957340211     1.732954460572319    -4.084990106945033
    H                0.252451957340211     3.507194460572320    -4.166470106945033
    H               -1.309485042659789     2.675794460572320    -3.759740106945032

}
e, wfn = energy('scf', return_wfn=True)
gdma(wfn)
dmavals = variable('DMA DISTRIBUTED MULTIPOLES')
charges = np.array(dmavals)
print(charges)
np.save('SSI-077PHE-160VAL-1-dimer.npy', np.array(charges))--------------------------------------------------------------------------

*** tstart() called on ds3
*** at Sun Apr 26 22:13:38 2020

   => Loading Basis Set <=

    Name: CC-PVDZ
    Role: ORBITAL
    Keyword: BASIS
    atoms 1-7, 16-17  entry C          line   138 file /theoryfs2/ds/metcalf/miniconda2/envs/tf2gpu/share/psi4/basis/cc-pvdz.gbs
    atoms 8-15, 18-23 entry H          line    22 file /theoryfs2/ds/metcalf/miniconda2/envs/tf2gpu/share/psi4/basis/cc-pvdz.gbs

         ---------------------------------------------------------
                                   SCF
               by Justin Turney, Rob Parrish, Andy Simmonett
                          and Daniel G. A. Smith
                              RHF Reference
                        1 Threads,    500 MiB Core
         ---------------------------------------------------------

  ==> Geometry <==

    Molecular point group: c1
    Full point group: C1

    Geometry (in Angstrom), charge = 0, multiplicity = 1:

       Center              X                  Y                   Z               Mass
    ------------   -----------------  -----------------  -----------------  -----------------
         C           -1.010001042660    -2.343045539428    -0.715990106945    12.000000000000
         C            0.344998957340    -0.353045539428    -0.083990106945    12.000000000000
         C           -0.388001042660    -1.456045539428     0.319009893055    12.000000000000
         C            0.908998957340     0.522954460572     0.833009893055    12.000000000000
         C           -0.515001042660    -1.686045539428     1.684009893055    12.000000000000
         C            0.787998957340     0.275954460572     2.188009893055    12.000000000000
         C            0.071998957340    -0.822045539428     2.621009893055    12.000000000000
         H            0.453998957340    -0.148045539428    -1.135990106945     1.007825032230
         H            1.457998957340     1.387954460572     0.487009893055     1.007825032230
         H           -1.338001042660    -1.727045539428    -1.554990106945     1.007825032230
         H           -1.882001042660    -2.805045539428    -0.253990106945     1.007825032230
         H           -1.078001042660    -2.539045539428     2.035009893055     1.007825032230
         H            1.243998957340     0.943954460572     2.903009893055     1.007825032230
         H           -0.025001042660    -1.019045539428     3.678009893055     1.007825032230
         H           -0.352427042660    -3.145156539428    -1.082340106945     1.007825032230
         C            0.158998957340     2.634954460572    -2.166990106945    12.000000000000
         C           -0.216001042660     2.661954460572    -3.640990106945    12.000000000000
         H           -0.113001042660     3.581954460572    -1.703990106945     1.007825032230
         H           -0.388001042660     1.838954460572    -1.674990106945     1.007825032230
         H            1.221998957340     2.434954460572    -2.033990106945     1.007825032230
         H            0.140998957340     1.732954460572    -4.084990106945     1.007825032230
         H            0.252451957340     3.507194460572    -4.166470106945     1.007825032230
         H           -1.309485042660     2.675794460572    -3.759740106945     1.007825032230

  Running in c1 symmetry.

  Rotational constants: A =      0.07580  B =      0.02333  C =      0.01842 [cm^-1]
  Rotational constants: A =   2272.39022  B =    699.36580  C =    552.34686 [MHz]
  Nuclear repulsion =  404.104601706905214

  Charge       = 0
  Multiplicity = 1
  Electrons    = 68
  Nalpha       = 34
  Nbeta        = 34

  ==> Algorithm <==

  SCF Algorithm Type is PK.
  DIIS enabled.
  MOM disabled.
  Fractional occupation disabled.
  Guess Type is SAD.
  Energy threshold   = 1.00e-06
  Density threshold  = 1.00e-10
  Integral threshold = 0.00e+00

  ==> Primary Basis <==

  Basis Set: CC-PVDZ
    Blend: CC-PVDZ
    Number of shells: 96
    Number of basis function: 196
    Number of Cartesian functions: 205
    Spherical Harmonics?: true
    Max angular momentum: 2

  ==> Pre-Iterations <==

   -------------------------------------------------------
    Irrep   Nso     Nmo     Nalpha   Nbeta   Ndocc  Nsocc
   -------------------------------------------------------
     A        196     196       0       0       0       0
   -------------------------------------------------------
    Total     196     196      34      34      34       0
   -------------------------------------------------------

  ==> Integral Setup <==

  Using integral reordering PK algorithm.
  Sizing the integral batches needed.
  Building batch lookup table.
   Calculation information:
      Number of atoms:                  23
      Number of AO shells:              96
      Number of primitives:            268
      Number of atomic orbitals:       205
      Number of basis functions:       196

      Integral cutoff                 1.00e-12
      Number of threads:                 1

	Batch   1 pq = [       0,    9405] index = [             0,44231715] size =     44231715
	Batch   2 pq = [    9405,   13301] index = [      44231715,88464951] size =     44233236
	Batch   3 pq = [   13301,   16290] index = [      88464951,132690195] size =     44225244
	Batch   4 pq = [   16290,   18810] index = [     132690195,176917455] size =     44227260
	Batch   5 pq = [   18810,   19306] index = [     176917455,186370471] size =      9453016
  Task number: 17
  Buffer size: 11059200
  Buffer per thread: 2
  We computed 9041007 shell quartets total.
  Whereas there are 10841496 unique shell quartets.

  ==> DiskJK: Disk-Based J/K Matrices <==

    J tasked:                  Yes
    K tasked:                  Yes
    wK tasked:                  No
    Memory [MiB]:              375
    Schwarz Cutoff:          1E-12

    OpenMP threads:              1

  Minimum eigenvalue in the overlap matrix is 2.9298954050E-04.
  Using Symmetric Orthogonalization.

  SCF Guess: Superposition of Atomic Densities via on-the-fly atomic UHF.

  ==> Iterations <==

                        Total Energy        Delta E     RMS |[F,P]|

   @RHF iter SAD:  -347.96761114424174   -3.47968e+02   0.00000e+00
   @RHF iter   1:  -348.76274284748013   -7.95132e-01   2.91352e-03 DIIS
   @RHF iter   2:  -348.95744606320415   -1.94703e-01   1.21009e-03 DIIS
   @RHF iter   3:  -348.98805213061053   -3.06061e-02   2.60521e-04 DIIS
   @RHF iter   4:  -348.99055931402211   -2.50718e-03   5.37700e-05 DIIS
   @RHF iter   5:  -348.99063533909464   -7.60251e-05   1.82899e-05 DIIS
   @RHF iter   6:  -348.99064356772641   -8.22863e-06   4.95668e-06 DIIS
   @RHF iter   7:  -348.99064428040890   -7.12682e-07   1.30991e-06 DIIS
   @RHF iter   8:  -348.99064434642509   -6.60162e-08   3.95356e-07 DIIS
   @RHF iter   9:  -348.99064435937953   -1.29544e-08   1.97534e-07 DIIS
   @RHF iter  10:  -348.99064436292878   -3.54925e-09   9.08549e-08 DIIS
   @RHF iter  11:  -348.99064436398476   -1.05598e-09   3.11592e-08 DIIS
   @RHF iter  12:  -348.99064436406525   -8.04903e-11   1.38939e-08 DIIS
   @RHF iter  13:  -348.99064436407804   -1.27898e-11   4.18205e-09 DIIS
   @RHF iter  14:  -348.99064436407895   -9.09495e-13   1.13520e-09 DIIS
   @RHF iter  15:  -348.99064436407826    6.82121e-13   4.66796e-10 DIIS
   @RHF iter  16:  -348.99064436407872   -4.54747e-13   1.94823e-10 DIIS
   @RHF iter  17:  -348.99064436408088   -2.16005e-12   7.28188e-11 DIIS
  Energy and wave function converged.

  ==> Post-Iterations <==

    Orbital Energies [Eh]
    ---------------------

    Doubly Occupied:

       1A    -11.237718     2A    -11.234336     3A    -11.231981
       4A    -11.230850     5A    -11.229548     6A    -11.228150
       7A    -11.225911     8A    -11.219382     9A    -11.215223
      10A     -1.155056    11A     -1.048105    12A     -1.021556
      13A     -1.009420    14A     -0.933020    15A     -0.837801
      16A     -0.826401    17A     -0.794558    18A     -0.691987
      19A     -0.633137    20A     -0.629396    21A     -0.601531
      22A     -0.599321    23A     -0.578774    24A     -0.577891
      25A     -0.563563    26A     -0.537073    27A     -0.503531
      28A     -0.491249    29A     -0.486921    30A     -0.484386
      31A     -0.481244    32A     -0.479358    33A     -0.329576
      34A     -0.324435

    Virtual:

      35A      0.135651    36A      0.141863    37A      0.171158
      38A      0.195742    39A      0.198946    40A      0.220555
      41A      0.236599    42A      0.239771    43A      0.254458
      44A      0.258069    45A      0.266314    46A      0.273413
      47A      0.285960    48A      0.305643    49A      0.310309
      50A      0.320174    51A      0.367765    52A      0.380533
      53A      0.404737    54A      0.455068    55A      0.465113
      56A      0.478894    57A      0.497771    58A      0.560452
      59A      0.594906    60A      0.596180    61A      0.607036
      62A      0.620701    63A      0.643450    64A      0.680224
      65A      0.684870    66A      0.694799    67A      0.699750
      68A      0.710492    69A      0.725310    70A      0.742311
      71A      0.745029    72A      0.750717    73A      0.768076
      74A      0.778821    75A      0.779760    76A      0.802677
      77A      0.831812    78A      0.847799    79A      0.864627
      80A      0.869488    81A      0.877296    82A      0.888832
      83A      0.890111    84A      0.897444    85A      0.902010
      86A      0.907180    87A      0.918171    88A      0.922222
      89A      0.931781    90A      0.942477    91A      0.947165
      92A      0.970816    93A      0.986424    94A      1.010439
      95A      1.023635    96A      1.057432    97A      1.123743
      98A      1.129329    99A      1.135195   100A      1.147375
     101A      1.160425   102A      1.177554   103A      1.194092
     104A      1.223397   105A      1.246545   106A      1.257084
     107A      1.264473   108A      1.273663   109A      1.307978
     110A      1.311497   111A      1.329404   112A      1.347088
     113A      1.417569   114A      1.472333   115A      1.489634
     116A      1.513625   117A      1.522800   118A      1.555733
     119A      1.593286   120A      1.612507   121A      1.674591
     122A      1.681730   123A      1.700436   124A      1.706158
     125A      1.732779   126A      1.751716   127A      1.765083
     128A      1.793245   129A      1.809296   130A      1.858104
     131A      1.860875   132A      1.878722   133A      1.892772
     134A      1.899210   135A      1.905313   136A      1.918941
     137A      1.920157   138A      1.925232   139A      1.941083
     140A      1.945344   141A      1.949682   142A      1.955664
     143A      1.962841   144A      1.970268   145A      1.985370
     146A      1.993549   147A      2.000364   148A      2.013704
     149A      2.051720   150A      2.062796   151A      2.079115
     152A      2.100547   153A      2.114365   154A      2.135867
     155A      2.147664   156A      2.161968   157A      2.175546
     158A      2.190405   159A      2.198914   160A      2.269819
     161A      2.284599   162A      2.294252   163A      2.303880
     164A      2.305029   165A      2.315126   166A      2.321060
     167A      2.347004   168A      2.459498   169A      2.465752
     170A      2.473832   171A      2.489464   172A      2.506890
     173A      2.552850   174A      2.559114   175A      2.590446
     176A      2.626317   177A      2.744707   178A      2.758646
     179A      2.764572   180A      2.769500   181A      2.792718
     182A      2.802170   183A      2.829140   184A      2.851367
     185A      2.855568   186A      2.868181   187A      2.876506
     188A      2.956946   189A      2.976750   190A      2.997228
     191A      3.017525   192A      3.032752   193A      3.162209
     194A      3.214501   195A      3.309603   196A      3.980532

    Final Occupation by Irrep:
              A
    DOCC [    34 ]

  @RHF Final Energy:  -348.99064436408088

   => Energetics <=

    Nuclear Repulsion Energy =            404.1046017069052141
    One-Electron Energy =               -1270.8457122951417659
    Two-Electron Energy =                 517.7504662241556161
    Total Energy =                       -348.9906443640809357

Computation Completed

Properties will be evaluated at   0.000000,   0.000000,   0.000000 [a0]

Properties computed using the SCF density matrix

  Nuclear Dipole Moment: [e a0]
     X:    -1.6073      Y:     6.3001      Z:   -11.5763

  Electronic Dipole Moment: [e a0]
     X:     1.5474      Y:    -6.3832      Z:    11.5177

  Dipole Moment: [e a0]
     X:    -0.0598      Y:    -0.0831      Z:    -0.0586     Total:     0.1180

  Dipole Moment: [D]
     X:    -0.1521      Y:    -0.2112      Z:    -0.1490     Total:     0.2999

*** tstop() called on ds3 at Sun Apr 26 22:15:05 2020
Module time:
	user time   =      61.99 seconds =       1.03 minutes
	system time =      28.11 seconds =       0.47 minutes
	total time  =         87 seconds =       1.45 minutes
Total time:
	user time   =      61.99 seconds =       1.03 minutes
	system time =      28.11 seconds =       0.47 minutes
	total time  =         87 seconds =       1.45 minutes
                                     G D M A

                                 by Anthony Stone

                           version 2.2.06, 22 June 2011

               Distributed Multipoles from Gaussian wavefunctions

Starting at 22:15:6 on 26 Apr 2020

Using SCF density matrix from file ./SSI/SSI-077PHE-160VAL-1-dimer.test.6570.fchk

                         Distributed Multipole Analysis

Standard DMA

Positions and radii in angstrom
Multipole moments in atomic units, ea_0^k for rank k

C          x = -1.010001  y = -2.343046  z = -0.715990 angstrom
           Maximum rank =  0   Radius =  0.650 angstrom
                   Q00  =  -0.205000

C          x =  0.344999  y = -0.353046  z = -0.083990 angstrom
           Maximum rank =  0   Radius =  0.650 angstrom
                   Q00  =  -0.009868

C          x = -0.388001  y = -1.456046  z =  0.319010 angstrom
           Maximum rank =  0   Radius =  0.650 angstrom
                   Q00  =  -0.098844

C          x =  0.908999  y =  0.522954  z =  0.833010 angstrom
           Maximum rank =  0   Radius =  0.650 angstrom
                   Q00  =  -0.056420

C          x = -0.515001  y = -1.686046  z =  1.684010 angstrom
           Maximum rank =  0   Radius =  0.650 angstrom
                   Q00  =  -0.056338

C          x =  0.787999  y =  0.275954  z =  2.188010 angstrom
           Maximum rank =  0   Radius =  0.650 angstrom
                   Q00  =  -0.093173

C          x =  0.071999  y = -0.822046  z =  2.621010 angstrom
           Maximum rank =  0   Radius =  0.650 angstrom
                   Q00  =  -0.078229

H          x =  0.453999  y = -0.148046  z = -1.135990 angstrom
           Maximum rank =  0   Radius =  0.325 angstrom
                   Q00  =   0.052063

H          x =  1.457999  y =  1.387954  z =  0.487010 angstrom
           Maximum rank =  0   Radius =  0.325 angstrom
                   Q00  =   0.064626

H          x = -1.338001  y = -1.727046  z = -1.554990 angstrom
           Maximum rank =  0   Radius =  0.325 angstrom
                   Q00  =   0.098770

H          x = -1.882001  y = -2.805046  z = -0.253990 angstrom
           Maximum rank =  0   Radius =  0.325 angstrom
                   Q00  =   0.097439

H          x = -1.078001  y = -2.539046  z =  2.035010 angstrom
           Maximum rank =  0   Radius =  0.325 angstrom
                   Q00  =   0.056230

H          x =  1.243999  y =  0.943954  z =  2.903010 angstrom
           Maximum rank =  0   Radius =  0.325 angstrom
                   Q00  =   0.059214

H          x = -0.025001  y = -1.019046  z =  3.678010 angstrom
           Maximum rank =  0   Radius =  0.325 angstrom
                   Q00  =   0.064747

H          x = -0.352427  y = -3.145157  z = -1.082340 angstrom
           Maximum rank =  0   Radius =  0.325 angstrom
                   Q00  =   0.106092

C          x =  0.158999  y =  2.634954  z = -2.166990 angstrom
           Maximum rank =  0   Radius =  0.650 angstrom
                   Q00  =  -0.248575

C          x = -0.216001  y =  2.661954  z = -3.640990 angstrom
           Maximum rank =  0   Radius =  0.650 angstrom
                   Q00  =  -0.223735

H          x = -0.113001  y =  3.581954  z = -1.703990 angstrom
           Maximum rank =  0   Radius =  0.325 angstrom
                   Q00  =   0.080218

H          x = -0.388001  y =  1.838954  z = -1.674990 angstrom
           Maximum rank =  0   Radius =  0.325 angstrom
                   Q00  =   0.083379

H          x =  1.221999  y =  2.434954  z = -2.033990 angstrom
           Maximum rank =  0   Radius =  0.325 angstrom
                   Q00  =   0.074092

H          x =  0.140999  y =  1.732954  z = -4.084990 angstrom
           Maximum rank =  0   Radius =  0.325 angstrom
                   Q00  =   0.072496

H          x =  0.252452  y =  3.507194  z = -4.166470 angstrom
           Maximum rank =  0   Radius =  0.325 angstrom
                   Q00  =   0.081085

H          x = -1.309485  y =  2.675794  z = -3.759740 angstrom
           Maximum rank =  0   Radius =  0.325 angstrom
                   Q00  =   0.079733

Total multipoles referred to origin at
           x =   0.000000,  y =    0.000000,  z =    0.000000 angstrom
                   Q00  =  -0.000000

Finished at 22:15:6 on 26 Apr 2020

  DMA results are available in the Python driver through the
	  variable('DMA DISTRIBUTED MULTIPOLES')
  and
	  variable('DMA TOTAL MULTIPOLES')
  commands.

    Psi4 stopped on: Sunday, 26 April 2020 10:15PM
    Psi4 wall time for execution: 0:01:27.21

*** Psi4 exiting successfully. Buy a developer a beer!
