                               Psi4 1.3.2 release

  ==> Input File <==

--------------------------------------------------------------------------
import numpy as np
set {scf_type pk
basis cc-pvdz
d_convergence 10
gdma_switch   0
gdma_limit    0
gdma_origin   [ 0.0,  0.0,  0.0 ]
}
molecule test {
    units Angstrom
    -1 1
    --
    -1 1
    C                0.370324515506575    -2.066735087437935    -1.243430927073616
    C                1.503324515506575    -1.413735087437935    -0.480430927073616
    O                2.025324515506575    -0.365735087437935    -0.931430927073616
    O                1.857324515506575    -1.955735087437935     0.587569072926384
    H               -0.539675484493425    -1.782735087437935    -0.716430927073616
    H                0.482324515506575    -3.154735087437935    -1.222430927073616
    H                0.321064515506575    -1.727720087437935    -2.288730927073615
    C               -2.749675484493425     2.065264912562065     0.530569072926384
    C               -1.385675484493425     1.410264912562065     0.567569072926384
    O               -1.002675484493425     0.805264912562065     1.564569072926384
    N               -0.649675484493425     1.512264912562065    -0.524430927073616
    H                0.242324515506575     1.040264912562065    -0.553430927073616
    H               -0.995675484493425     2.031264912562065    -1.328430927073616
    H               -2.941675484493425     2.367264912562065    -0.494430927073616
    H               -2.765675484493425     2.962264912562065     1.143569072926384
    H               -3.553765484493425     1.374293912562065     0.823819072926384

}
e, wfn = energy('scf', return_wfn=True)
gdma(wfn)
dmavals = variable('DMA DISTRIBUTED MULTIPOLES')
charges = np.array(dmavals)
print(charges)
np.save('SSI-114GLU-144ASN-1-dimer.npy', np.array(charges))--------------------------------------------------------------------------

*** tstart() called on ds3
*** at Tue Apr 28 03:15:38 2020

   => Loading Basis Set <=

    Name: CC-PVDZ
    Role: ORBITAL
    Keyword: BASIS
    atoms 1-2, 8-9   entry C          line   138 file /theoryfs2/ds/metcalf/miniconda2/envs/tf2gpu/share/psi4/basis/cc-pvdz.gbs
    atoms 3-4, 10    entry O          line   198 file /theoryfs2/ds/metcalf/miniconda2/envs/tf2gpu/share/psi4/basis/cc-pvdz.gbs
    atoms 5-7, 12-16 entry H          line    22 file /theoryfs2/ds/metcalf/miniconda2/envs/tf2gpu/share/psi4/basis/cc-pvdz.gbs
    atoms 11         entry N          line   168 file /theoryfs2/ds/metcalf/miniconda2/envs/tf2gpu/share/psi4/basis/cc-pvdz.gbs

         ---------------------------------------------------------
                                   SCF
               by Justin Turney, Rob Parrish, Andy Simmonett
                          and Daniel G. A. Smith
                              RHF Reference
                        1 Threads,    500 MiB Core
         ---------------------------------------------------------

  ==> Geometry <==

    Molecular point group: c1
    Full point group: C1

    Geometry (in Angstrom), charge = -1, multiplicity = 1:

       Center              X                  Y                   Z               Mass
    ------------   -----------------  -----------------  -----------------  -----------------
         C            0.370324515507    -2.066735087438    -1.243430927074    12.000000000000
         C            1.503324515507    -1.413735087438    -0.480430927074    12.000000000000
         O            2.025324515507    -0.365735087438    -0.931430927074    15.994914619570
         O            1.857324515507    -1.955735087438     0.587569072926    15.994914619570
         H           -0.539675484493    -1.782735087438    -0.716430927074     1.007825032230
         H            0.482324515507    -3.154735087438    -1.222430927074     1.007825032230
         H            0.321064515507    -1.727720087438    -2.288730927074     1.007825032230
         C           -2.749675484493     2.065264912562     0.530569072926    12.000000000000
         C           -1.385675484493     1.410264912562     0.567569072926    12.000000000000
         O           -1.002675484493     0.805264912562     1.564569072926    15.994914619570
         N           -0.649675484493     1.512264912562    -0.524430927074    14.003074004430
         H            0.242324515507     1.040264912562    -0.553430927074     1.007825032230
         H           -0.995675484493     2.031264912562    -1.328430927074     1.007825032230
         H           -2.941675484493     2.367264912562    -0.494430927074     1.007825032230
         H           -2.765675484493     2.962264912562     1.143569072926     1.007825032230
         H           -3.553765484493     1.374293912562     0.823819072926     1.007825032230

  Running in c1 symmetry.

  Rotational constants: A =      0.12147  B =      0.02671  C =      0.02572 [cm^-1]
  Rotational constants: A =   3641.51140  B =    800.63398  C =    771.19998 [MHz]
  Nuclear repulsion =  355.424911534644878

  Charge       = -1
  Multiplicity = 1
  Electrons    = 64
  Nalpha       = 32
  Nbeta        = 32

  ==> Algorithm <==

  SCF Algorithm Type is PK.
  DIIS enabled.
  MOM disabled.
  Fractional occupation disabled.
  Guess Type is SAD.
  Energy threshold   = 1.00e-06
  Density threshold  = 1.00e-10
  Integral threshold = 0.00e+00

  ==> Primary Basis <==

  Basis Set: CC-PVDZ
    Blend: CC-PVDZ
    Number of shells: 72
    Number of basis function: 152
    Number of Cartesian functions: 160
    Spherical Harmonics?: true
    Max angular momentum: 2

  ==> Pre-Iterations <==

   -------------------------------------------------------
    Irrep   Nso     Nmo     Nalpha   Nbeta   Ndocc  Nsocc
   -------------------------------------------------------
     A        152     152       0       0       0       0
   -------------------------------------------------------
    Total     152     152      32      32      32       0
   -------------------------------------------------------

  ==> Integral Setup <==

  Using integral reordering PK algorithm.
  Sizing the integral batches needed.
  Building batch lookup table.
   Calculation information:
      Number of atoms:                  16
      Number of AO shells:              72
      Number of primitives:            216
      Number of atomic orbitals:       160
      Number of basis functions:       152

      Integral cutoff                 1.00e-12
      Number of threads:                 1

	Batch   1 pq = [       0,    9405] index = [             0,44231715] size =     44231715
	Batch   2 pq = [    9405,   11628] index = [      44231715,67611006] size =     23379291
  Task number: 7
  Buffer size: 11059200
  Buffer per thread: 2
  We computed 2791480 shell quartets total.
  Whereas there are 3454506 unique shell quartets.

  ==> DiskJK: Disk-Based J/K Matrices <==

    J tasked:                  Yes
    K tasked:                  Yes
    wK tasked:                  No
    Memory [MiB]:              375
    Schwarz Cutoff:          1E-12

    OpenMP threads:              1

  Minimum eigenvalue in the overlap matrix is 4.3805273406E-03.
  Using Symmetric Orthogonalization.

  SCF Guess: Superposition of Atomic Densities via on-the-fly atomic UHF.

  ==> Iterations <==

                        Total Energy        Delta E     RMS |[F,P]|

   @RHF iter SAD:  -433.48221379733451   -4.33482e+02   0.00000e+00
   @RHF iter   1:  -434.90874216141788   -1.42653e+00   5.51786e-03 DIIS
   @RHF iter   2:  -435.14759178344809   -2.38850e-01   3.33798e-03 DIIS
   @RHF iter   3:  -435.23745204671724   -8.98603e-02   5.10599e-04 DIIS
   @RHF iter   4:  -435.24102906270667   -3.57702e-03   2.01371e-04 DIIS
   @RHF iter   5:  -435.24166681609773   -6.37753e-04   4.41576e-05 DIIS
   @RHF iter   6:  -435.24170283808678   -3.60220e-05   2.14570e-05 DIIS
   @RHF iter   7:  -435.24171142305107   -8.58496e-06   6.41404e-06 DIIS
   @RHF iter   8:  -435.24171283803315   -1.41498e-06   2.63863e-06 DIIS
   @RHF iter   9:  -435.24171305125873   -2.13226e-07   1.02074e-06 DIIS
   @RHF iter  10:  -435.24171308030253   -2.90438e-08   2.48578e-07 DIIS
   @RHF iter  11:  -435.24171308183554   -1.53301e-09   1.06155e-07 DIIS
   @RHF iter  12:  -435.24171308197691   -1.41370e-10   2.69138e-08 DIIS
   @RHF iter  13:  -435.24171308199402   -1.71099e-11   6.55469e-09 DIIS
   @RHF iter  14:  -435.24171308199425   -2.27374e-13   1.95963e-09 DIIS
   @RHF iter  15:  -435.24171308199408    1.70530e-13   6.43064e-10 DIIS
   @RHF iter  16:  -435.24171308199573   -1.64846e-12   2.28228e-10 DIIS
   @RHF iter  17:  -435.24171308199351    2.21689e-12   1.03682e-10 DIIS
   @RHF iter  18:  -435.24171308199465   -1.13687e-12   4.71638e-11 DIIS
  Energy and wave function converged.

  ==> Post-Iterations <==

    Orbital Energies [Eh]
    ---------------------

    Doubly Occupied:

       1A    -20.377969     2A    -20.266138     3A    -20.255576
       4A    -15.455327     5A    -11.225972     6A    -11.142821
       7A    -11.115965     8A    -11.048449     9A     -1.243728
      10A     -1.149724    11A     -1.088270    12A     -1.037168
      13A     -0.896381    14A     -0.796761    15A     -0.673608
      16A     -0.598639    17A     -0.537609    18A     -0.507979
      19A     -0.499749    20A     -0.455244    21A     -0.448567
      22A     -0.415513    23A     -0.408744    24A     -0.405635
      25A     -0.402153    26A     -0.342190    27A     -0.303471
      28A     -0.286062    29A     -0.273613    30A     -0.184585
      31A     -0.172373    32A     -0.162536

    Virtual:

      33A      0.268562    34A      0.305852    35A      0.314814
      36A      0.353733    37A      0.373898    38A      0.382409
      39A      0.403284    40A      0.414535    41A      0.453804
      42A      0.483940    43A      0.495285    44A      0.572796
      45A      0.596610    46A      0.685947    47A      0.705104
      48A      0.740078    49A      0.745334    50A      0.770646
      51A      0.806466    52A      0.812305    53A      0.834142
      54A      0.850620    55A      0.869372    56A      0.916082
      57A      0.937910    58A      0.952954    59A      0.970733
      60A      0.976986    61A      0.992198    62A      1.029385
      63A      1.032311    64A      1.044764    65A      1.051994
      66A      1.064905    67A      1.088037    68A      1.131312
      69A      1.149558    70A      1.178074    71A      1.196885
      72A      1.229319    73A      1.242796    74A      1.263125
      75A      1.341171    76A      1.349146    77A      1.397500
      78A      1.466493    79A      1.482727    80A      1.502127
      81A      1.511587    82A      1.532626    83A      1.560729
      84A      1.570124    85A      1.579221    86A      1.588138
      87A      1.612467    88A      1.624502    89A      1.677702
      90A      1.716533    91A      1.732905    92A      1.749057
      93A      1.759513    94A      1.827220    95A      1.853318
      96A      1.879797    97A      1.961906    98A      1.972581
      99A      1.986565   100A      2.008510   101A      2.028127
     102A      2.040187   103A      2.052622   104A      2.088900
     105A      2.094577   106A      2.121434   107A      2.146212
     108A      2.198301   109A      2.211140   110A      2.229617
     111A      2.250126   112A      2.261686   113A      2.339138
     114A      2.370363   115A      2.395279   116A      2.418852
     117A      2.463196   118A      2.528775   119A      2.565658
     120A      2.578998   121A      2.588062   122A      2.659984
     123A      2.678982   124A      2.697721   125A      2.724377
     126A      2.764571   127A      2.771398   128A      2.847368
     129A      2.888091   130A      2.909126   131A      2.923514
     132A      2.964931   133A      2.988632   134A      2.997084
     135A      3.101708   136A      3.219905   137A      3.242490
     138A      3.257805   139A      3.275823   140A      3.293656
     141A      3.363298   142A      3.421912   143A      3.619991
     144A      3.638602   145A      3.656207   146A      3.787794
     147A      3.838694   148A      3.994485   149A      4.036609
     150A      4.062871   151A      4.086732   152A      4.191111

    Final Occupation by Irrep:
              A
    DOCC [    32 ]

  @RHF Final Energy:  -435.24171308199465

   => Energetics <=

    Nuclear Repulsion Energy =            355.4249115346448775
    One-Electron Energy =               -1312.9762088347358713
    Two-Electron Energy =                 522.3095842180962336
    Total Energy =                       -435.2417130819947033

Computation Completed

Properties will be evaluated at   0.000000,   0.000000,   0.000000 [a0]

Properties computed using the SCF density matrix

  Nuclear Dipole Moment: [e a0]
     X:    -9.1253      Y:     2.9040      Z:    -4.3392

  Electronic Dipole Moment: [e a0]
     X:     5.4486      Y:    -0.4559      Z:     3.0775

  Dipole Moment: [e a0]
     X:    -3.6767      Y:     2.4481      Z:    -1.2617     Total:     4.5938

  Dipole Moment: [D]
     X:    -9.3451      Y:     6.2224      Z:    -3.2068     Total:    11.6762

*** tstop() called on ds3 at Tue Apr 28 03:16:12 2020
Module time:
	user time   =      23.41 seconds =       0.39 minutes
	system time =      11.47 seconds =       0.19 minutes
	total time  =         34 seconds =       0.57 minutes
Total time:
	user time   =      23.41 seconds =       0.39 minutes
	system time =      11.47 seconds =       0.19 minutes
	total time  =         34 seconds =       0.57 minutes
                                     G D M A

                                 by Anthony Stone

                           version 2.2.06, 22 June 2011

               Distributed Multipoles from Gaussian wavefunctions

Starting at 3:16:12 on 28 Apr 2020

Using SCF density matrix from file ./SSI/SSI-114GLU-144ASN-1-dimer.test.28000.fchk

                         Distributed Multipole Analysis

Standard DMA

Positions and radii in angstrom
Multipole moments in atomic units, ea_0^k for rank k

C          x =  0.370325  y = -2.066735  z = -1.243431 angstrom
           Maximum rank =  0   Radius =  0.650 angstrom
                   Q00  =  -0.286008

C          x =  1.503325  y = -1.413735  z = -0.480431 angstrom
           Maximum rank =  0   Radius =  0.650 angstrom
                   Q00  =   0.970847

O          x =  2.025325  y = -0.365735  z = -0.931431 angstrom
           Maximum rank =  0   Radius =  0.650 angstrom
                   Q00  =  -0.943400

O          x =  1.857325  y = -1.955735  z =  0.587569 angstrom
           Maximum rank =  0   Radius =  0.650 angstrom
                   Q00  =  -0.910501

H          x = -0.539675  y = -1.782735  z = -0.716431 angstrom
           Maximum rank =  0   Radius =  0.325 angstrom
                   Q00  =   0.088620

H          x =  0.482325  y = -3.154735  z = -1.222431 angstrom
           Maximum rank =  0   Radius =  0.325 angstrom
                   Q00  =   0.065213

H          x =  0.321065  y = -1.727720  z = -2.288731 angstrom
           Maximum rank =  0   Radius =  0.325 angstrom
                   Q00  =   0.037037

C          x = -2.749675  y =  2.065265  z =  0.530569 angstrom
           Maximum rank =  0   Radius =  0.650 angstrom
                   Q00  =  -0.264661

C          x = -1.385675  y =  1.410265  z =  0.567569 angstrom
           Maximum rank =  0   Radius =  0.650 angstrom
                   Q00  =   0.829922

O          x = -1.002675  y =  0.805265  z =  1.564569 angstrom
           Maximum rank =  0   Radius =  0.650 angstrom
                   Q00  =  -0.790797

N          x = -0.649675  y =  1.512265  z = -0.524431 angstrom
           Maximum rank =  0   Radius =  0.650 angstrom
                   Q00  =  -0.524813

H          x =  0.242325  y =  1.040265  z = -0.553431 angstrom
           Maximum rank =  0   Radius =  0.325 angstrom
                   Q00  =   0.260119

H          x = -0.995675  y =  2.031265  z = -1.328431 angstrom
           Maximum rank =  0   Radius =  0.325 angstrom
                   Q00  =   0.181157

H          x = -2.941675  y =  2.367265  z = -0.494431 angstrom
           Maximum rank =  0   Radius =  0.325 angstrom
                   Q00  =   0.053867

H          x = -2.765675  y =  2.962265  z =  1.143569 angstrom
           Maximum rank =  0   Radius =  0.325 angstrom
                   Q00  =   0.115911

H          x = -3.553765  y =  1.374294  z =  0.823819 angstrom
           Maximum rank =  0   Radius =  0.325 angstrom
                   Q00  =   0.117488

Total multipoles referred to origin at
           x =   0.000000,  y =    0.000000,  z =    0.000000 angstrom
                   Q00  =  -1.000000

Finished at 3:16:12 on 28 Apr 2020

  DMA results are available in the Python driver through the
	  variable('DMA DISTRIBUTED MULTIPOLES')
  and
	  variable('DMA TOTAL MULTIPOLES')
  commands.

    Psi4 stopped on: Tuesday, 28 April 2020 03:16AM
    Psi4 wall time for execution: 0:00:34.37

*** Psi4 exiting successfully. Buy a developer a beer!
