                               Psi4 1.3.2 release

  ==> Input File <==

--------------------------------------------------------------------------
import numpy as np
set {scf_type pk
basis cc-pvdz
d_convergence 10
gdma_switch   0
gdma_limit    0
gdma_origin   [ 0.0,  0.0,  0.0 ]
}
molecule test {
    units Angstrom
    0 1
    --
    0 1
    C                2.834326432350923    -0.161575316077629     0.287656791975455
    C                0.214326432350924    -1.366575316077629    -2.151343208024544
    C                1.133326432350924    -0.364575316077629    -1.725343208024545
    C                1.857326432350924    -0.894575316077629    -0.593343208024545
    C                1.376326432350924    -2.151575316077628    -0.399343208024545
    C               -0.659673567649076    -1.179575316077629    -3.226343208024545
    C               -0.620673567649076     0.037424683922371    -3.893343208024545
    C                1.154326432350924     0.860424683922371    -2.415343208024544
    C                0.275326432350924     1.051424683922371    -3.496343208024545
    N                0.395326432350924    -2.440575316077628    -1.319343208024545
    H               -0.151673567649076    -3.300575316077628    -1.308343208024545
    H               -1.345673567649076    -1.959575316077629    -3.521343208024545
    H                1.654326432350924    -2.781575316077629     0.432656791975455
    H               -1.288673567649076     0.211424683922371    -4.729343208024545
    H                1.841326432350924     1.637424683922371    -2.119343208024544
    H                2.798326432350924    -0.589575316077629     1.274656791975455
    H                2.499326432350923     0.872424683922371     0.387656791975455
    H                0.285326432350924     1.989424683922371    -4.031343208024545
    H                3.888206432350924    -0.165165316077629    -0.027503208024545
    C               -1.436673567649076     1.393424683922371     5.040656791975455
    C               -0.978673567649076     0.620424683922371     0.824656791975455
    C               -1.298673567649076     1.904424683922371     1.266656791975455
    C               -0.779673567649076    -0.403575316077629     1.754656791975455
    C               -1.423673567649076     2.156424683922372     2.637656791975456
    C               -0.910673567649076    -0.144575316077629     3.121656791975456
    C               -1.235673567649076     1.133424683922371     3.571656791975455
    H               -0.902673567649076     0.418424683922371    -0.233343208024545
    H               -1.460673567649076     2.698424683922371     0.551656791975455
    H               -0.523673567649076    -1.398575316077629     1.418656791975455
    H               -1.688673567649076     3.145424683922371     2.970656791975455
    H               -0.771673567649076    -0.947575316077629     3.830656791975455
    H               -1.122673567649076     2.416424683922371     5.246656791975455
    H               -0.785673567649076     0.739424683922371     5.622656791975456
    H               -2.479053567649076     1.266534683922371     5.368286791975455

}
e, wfn = energy('scf', return_wfn=True)
gdma(wfn)
dmavals = variable('DMA DISTRIBUTED MULTIPOLES')
charges = np.array(dmavals)
print(charges)
np.save('SSI-030TRP-036PHE-1-dimer.npy', np.array(charges))--------------------------------------------------------------------------

*** tstart() called on ds3
*** at Mon Apr 27 03:24:30 2020

   => Loading Basis Set <=

    Name: CC-PVDZ
    Role: ORBITAL
    Keyword: BASIS
    atoms 1-9, 20-26   entry C          line   138 file /theoryfs2/ds/metcalf/miniconda2/envs/tf2gpu/share/psi4/basis/cc-pvdz.gbs
    atoms 10           entry N          line   168 file /theoryfs2/ds/metcalf/miniconda2/envs/tf2gpu/share/psi4/basis/cc-pvdz.gbs
    atoms 11-19, 27-34 entry H          line    22 file /theoryfs2/ds/metcalf/miniconda2/envs/tf2gpu/share/psi4/basis/cc-pvdz.gbs

         ---------------------------------------------------------
                                   SCF
               by Justin Turney, Rob Parrish, Andy Simmonett
                          and Daniel G. A. Smith
                              RHF Reference
                        1 Threads,    500 MiB Core
         ---------------------------------------------------------

  ==> Geometry <==

    Molecular point group: c1
    Full point group: C1

    Geometry (in Angstrom), charge = 0, multiplicity = 1:

       Center              X                  Y                   Z               Mass
    ------------   -----------------  -----------------  -----------------  -----------------
         C            2.834326432351    -0.161575316078     0.287656791975    12.000000000000
         C            0.214326432351    -1.366575316078    -2.151343208025    12.000000000000
         C            1.133326432351    -0.364575316078    -1.725343208025    12.000000000000
         C            1.857326432351    -0.894575316078    -0.593343208025    12.000000000000
         C            1.376326432351    -2.151575316078    -0.399343208025    12.000000000000
         C           -0.659673567649    -1.179575316078    -3.226343208025    12.000000000000
         C           -0.620673567649     0.037424683922    -3.893343208025    12.000000000000
         C            1.154326432351     0.860424683922    -2.415343208025    12.000000000000
         C            0.275326432351     1.051424683922    -3.496343208025    12.000000000000
         N            0.395326432351    -2.440575316078    -1.319343208025    14.003074004430
         H           -0.151673567649    -3.300575316078    -1.308343208025     1.007825032230
         H           -1.345673567649    -1.959575316078    -3.521343208025     1.007825032230
         H            1.654326432351    -2.781575316078     0.432656791975     1.007825032230
         H           -1.288673567649     0.211424683922    -4.729343208025     1.007825032230
         H            1.841326432351     1.637424683922    -2.119343208025     1.007825032230
         H            2.798326432351    -0.589575316078     1.274656791975     1.007825032230
         H            2.499326432351     0.872424683922     0.387656791975     1.007825032230
         H            0.285326432351     1.989424683922    -4.031343208025     1.007825032230
         H            3.888206432351    -0.165165316078    -0.027503208025     1.007825032230
         C           -1.436673567649     1.393424683922     5.040656791975    12.000000000000
         C           -0.978673567649     0.620424683922     0.824656791975    12.000000000000
         C           -1.298673567649     1.904424683922     1.266656791975    12.000000000000
         C           -0.779673567649    -0.403575316078     1.754656791975    12.000000000000
         C           -1.423673567649     2.156424683922     2.637656791975    12.000000000000
         C           -0.910673567649    -0.144575316078     3.121656791975    12.000000000000
         C           -1.235673567649     1.133424683922     3.571656791975    12.000000000000
         H           -0.902673567649     0.418424683922    -0.233343208025     1.007825032230
         H           -1.460673567649     2.698424683922     0.551656791975     1.007825032230
         H           -0.523673567649    -1.398575316078     1.418656791975     1.007825032230
         H           -1.688673567649     3.145424683922     2.970656791975     1.007825032230
         H           -0.771673567649    -0.947575316078     3.830656791975     1.007825032230
         H           -1.122673567649     2.416424683922     5.246656791975     1.007825032230
         H           -0.785673567649     0.739424683922     5.622656791975     1.007825032230
         H           -2.479053567649     1.266534683922     5.368286791975     1.007825032230

  Running in c1 symmetry.

  Rotational constants: A =      0.02776  B =      0.00869  C =      0.00795 [cm^-1]
  Rotational constants: A =    832.23282  B =    260.41049  C =    238.20499 [MHz]
  Nuclear repulsion = 1097.413670677336995

  Charge       = 0
  Multiplicity = 1
  Electrons    = 120
  Nalpha       = 60
  Nbeta        = 60

  ==> Algorithm <==

  SCF Algorithm Type is PK.
  DIIS enabled.
  MOM disabled.
  Fractional occupation disabled.
  Guess Type is SAD.
  Energy threshold   = 1.00e-06
  Density threshold  = 1.00e-10
  Integral threshold = 0.00e+00

  ==> Primary Basis <==

  Basis Set: CC-PVDZ
    Blend: CC-PVDZ
    Number of shells: 153
    Number of basis function: 323
    Number of Cartesian functions: 340
    Spherical Harmonics?: true
    Max angular momentum: 2

  ==> Pre-Iterations <==

   -------------------------------------------------------
    Irrep   Nso     Nmo     Nalpha   Nbeta   Ndocc  Nsocc
   -------------------------------------------------------
     A        323     323       0       0       0       0
   -------------------------------------------------------
    Total     323     323      60      60      60       0
   -------------------------------------------------------

  ==> Integral Setup <==

  Using integral reordering PK algorithm.
  Sizing the integral batches needed.
  Building batch lookup table.
   Calculation information:
      Number of atoms:                  34
      Number of AO shells:             153
      Number of primitives:            459
      Number of atomic orbitals:       340
      Number of basis functions:       323

      Integral cutoff                 1.00e-12
      Number of threads:                 1

	Batch   1 pq = [       0,    9405] index = [             0,44231715] size =     44231715
	Batch   2 pq = [    9405,   13301] index = [      44231715,88464951] size =     44233236
	Batch   3 pq = [   13301,   16290] index = [      88464951,132690195] size =     44225244
	Batch   4 pq = [   16290,   18810] index = [     132690195,176917455] size =     44227260
	Batch   5 pq = [   18810,   21030] index = [     176917455,221140965] size =     44223510
	Batch   6 pq = [   21030,   23037] index = [     221140965,265363203] size =     44222238
	Batch   7 pq = [   23037,   24883] index = [     265363203,309594286] size =     44231083
	Batch   8 pq = [   24883,   26601] index = [     309594286,353819901] size =     44225615
	Batch   9 pq = [   26601,   28214] index = [     353819901,398029005] size =     44209104
	Batch  10 pq = [   28214,   29740] index = [     398029005,442248670] size =     44219665
	Batch  11 pq = [   29740,   31191] index = [     442248670,486454836] size =     44206166
	Batch  12 pq = [   31191,   32578] index = [     486454836,530679331] size =     44224495
	Batch  13 pq = [   32578,   33908] index = [     530679331,574893186] size =     44213855
	Batch  14 pq = [   33908,   35188] index = [     574893186,619115266] size =     44222080
	Batch  15 pq = [   35188,   36423] index = [     619115266,663335676] size =     44220410
	Batch  16 pq = [   36423,   37617] index = [     663335676,707538153] size =     44202477
	Batch  17 pq = [   37617,   38775] index = [     707538153,751769700] size =     44231547
	Batch  18 pq = [   38775,   39899] index = [     751769700,795985050] size =     44215350
	Batch  19 pq = [   39899,   40992] index = [     795985050,840192528] size =     44207478
	Batch  20 pq = [   40992,   42057] index = [     840192528,884416653] size =     44224125
	Batch  21 pq = [   42057,   43095] index = [     884416653,928611060] size =     44194407
	Batch  22 pq = [   43095,   44109] index = [     928611060,972823995] size =     44212935
	Batch  23 pq = [   44109,   45100] index = [     972823995,1017027550] size =     44203555
	Batch  24 pq = [   45100,   46070] index = [    1017027550,1061245485] size =     44217935
	Batch  25 pq = [   46070,   47020] index = [    1061245485,1105463710] size =     44218225
	Batch  26 pq = [   47020,   47951] index = [    1105463710,1149673176] size =     44209466
	Batch  27 pq = [   47951,   48864] index = [    1149673176,1193869680] size =     44196504
	Batch  28 pq = [   48864,   49761] index = [    1193869680,1238103441] size =     44233761
	Batch  29 pq = [   49761,   50642] index = [    1238103441,1282331403] size =     44227962
	Batch  30 pq = [   50642,   51508] index = [    1282331403,1326562786] size =     44231383
	Batch  31 pq = [   51508,   52326] index = [    1326562786,1369031301] size =     42468515
  Task number: 124
  Buffer size: 11059200
  Buffer per thread: 2
  We computed 80340172 shell quartets total.
  Whereas there are 69401871 unique shell quartets.
    15.76 percent of shell quartets recomputed by reordering.

  ==> DiskJK: Disk-Based J/K Matrices <==

    J tasked:                  Yes
    K tasked:                  Yes
    wK tasked:                  No
    Memory [MiB]:              375
    Schwarz Cutoff:          1E-12

    OpenMP threads:              1

  Minimum eigenvalue in the overlap matrix is 2.4997438479E-04.
  Using Symmetric Orthogonalization.

  SCF Guess: Superposition of Atomic Densities via on-the-fly atomic UHF.

  ==> Iterations <==

                        Total Energy        Delta E     RMS |[F,P]|

   @RHF iter SAD:  -669.44615760306829   -6.69446e+02   0.00000e+00
   @RHF iter   1:  -669.95037225821739   -5.04215e-01   2.13264e-03 DIIS
   @RHF iter   2:  -670.23791995427234   -2.87548e-01   9.22687e-04 DIIS
   @RHF iter   3:  -670.28511719904884   -4.71972e-02   2.58582e-04 DIIS
   @RHF iter   4:  -670.28979112176512   -4.67392e-03   1.16106e-04 DIIS
   @RHF iter   5:  -670.29057598757322   -7.84866e-04   1.66199e-05 DIIS
   @RHF iter   6:  -670.29060770119634   -3.17136e-05   7.53777e-06 DIIS
   @RHF iter   7:  -670.29061429291619   -6.59172e-06   2.86158e-06 DIIS
   @RHF iter   8:  -670.29061590801325   -1.61510e-06   1.19891e-06 DIIS
   @RHF iter   9:  -670.29061624769986   -3.39687e-07   5.30529e-07 DIIS
   @RHF iter  10:  -670.29061631865625   -7.09564e-08   2.36323e-07 DIIS
   @RHF iter  11:  -670.29061633608865   -1.74324e-08   1.02562e-07 DIIS
   @RHF iter  12:  -670.29061633903461   -2.94597e-09   4.33382e-08 DIIS
   @RHF iter  13:  -670.29061633940319   -3.68573e-10   1.29688e-08 DIIS
   @RHF iter  14:  -670.29061633941660   -1.34150e-11   4.85219e-09 DIIS
   @RHF iter  15:  -670.29061633941762   -1.02318e-12   1.95891e-09 DIIS
   @RHF iter  16:  -670.29061633942513   -7.50333e-12   9.35966e-10 DIIS
   @RHF iter  17:  -670.29061633941956    5.57066e-12   5.15433e-10 DIIS
   @RHF iter  18:  -670.29061633944184   -2.22826e-11   1.80589e-10 DIIS
   @RHF iter  19:  -670.29061633942410    1.77351e-11   6.91492e-11 DIIS
  Energy and wave function converged.

  ==> Post-Iterations <==

    Orbital Energies [Eh]
    ---------------------

    Doubly Occupied:

       1A    -15.604940     2A    -11.268163     3A    -11.264277
       4A    -11.234783     5A    -11.234628     6A    -11.233846
       7A    -11.233394     8A    -11.228037     9A    -11.227492
      10A    -11.226181    11A    -11.225039    12A    -11.224261
      13A    -11.224218    14A    -11.224137    15A    -11.222825
      16A    -11.220350    17A    -11.219645    18A     -1.296517
      19A     -1.142399    20A     -1.126121    21A     -1.072005
      22A     -1.035827    23A     -1.002198    24A     -0.995650
      25A     -0.988308    26A     -0.930422    27A     -0.923971
      28A     -0.841218    29A     -0.816835    30A     -0.803934
      31A     -0.786966    32A     -0.753425    33A     -0.720598
      34A     -0.682420    35A     -0.665438    36A     -0.642598
      37A     -0.624109    38A     -0.622115    39A     -0.602457
      40A     -0.593118    41A     -0.589944    42A     -0.574074
      43A     -0.572817    44A     -0.566821    45A     -0.554145
      46A     -0.547672    47A     -0.536982    48A     -0.528751
      49A     -0.527113    50A     -0.495630    51A     -0.479166
      52A     -0.477317    53A     -0.475029    54A     -0.472030
      55A     -0.458101    56A     -0.373976    57A     -0.324108
      58A     -0.312535    59A     -0.295661    60A     -0.276977

    Virtual:

      61A      0.121075    62A      0.140931    63A      0.146779
      64A      0.166845    65A      0.172905    66A      0.186770
      67A      0.195771    68A      0.200917    69A      0.216553
      70A      0.218659    71A      0.231232    72A      0.233866
      73A      0.236765    74A      0.258713    75A      0.264757
      76A      0.266852    77A      0.276792    78A      0.278689
      79A      0.291240    80A      0.297520    81A      0.301160
      82A      0.311124    83A      0.370560    84A      0.376776
      85A      0.379290    86A      0.384979    87A      0.405548
      88A      0.416706    89A      0.440078    90A      0.450958
      91A      0.465453    92A      0.469108    93A      0.483344
      94A      0.485426    95A      0.489403    96A      0.500750
      97A      0.529224    98A      0.562797    99A      0.589943
     100A      0.603256   101A      0.615680   102A      0.632065
     103A      0.638898   104A      0.645573   105A      0.655607
     106A      0.676369   107A      0.684297   108A      0.693057
     109A      0.703606   110A      0.713681   111A      0.714578
     112A      0.721890   113A      0.728012   114A      0.731656
     115A      0.738197   116A      0.740970   117A      0.744265
     118A      0.745816   119A      0.756152   120A      0.759339
     121A      0.761560   122A      0.766798   123A      0.773545
     124A      0.779245   125A      0.783529   126A      0.791689
     127A      0.809089   128A      0.814174   129A      0.835674
     130A      0.837384   131A      0.854162   132A      0.866045
     133A      0.869387   134A      0.877044   135A      0.880977
     136A      0.885544   137A      0.887216   138A      0.893544
     139A      0.900384   140A      0.912792   141A      0.914787
     142A      0.927935   143A      0.930380   144A      0.934846
     145A      0.942257   146A      0.947740   147A      0.950883
     148A      0.964620   149A      0.974626   150A      0.979883
     151A      1.003717   152A      1.005015   153A      1.014440
     154A      1.035379   155A      1.048740   156A      1.062473
     157A      1.078789   158A      1.087244   159A      1.097107
     160A      1.117037   161A      1.125524   162A      1.130774
     163A      1.152235   164A      1.153943   165A      1.162764
     166A      1.168156   167A      1.181295   168A      1.191885
     169A      1.198402   170A      1.202923   171A      1.227832
     172A      1.227948   173A      1.237791   174A      1.246122
     175A      1.256102   176A      1.262610   177A      1.269467
     178A      1.278083   179A      1.288318   180A      1.292539
     181A      1.303631   182A      1.308194   183A      1.316411
     184A      1.324450   185A      1.329769   186A      1.333693
     187A      1.340619   188A      1.377924   189A      1.402851
     190A      1.428485   191A      1.436798   192A      1.455684
     193A      1.504187   194A      1.518017   195A      1.536245
     196A      1.542727   197A      1.567404   198A      1.572415
     199A      1.598891   200A      1.614761   201A      1.627789
     202A      1.652087   203A      1.668199   204A      1.679957
     205A      1.695264   206A      1.707403   207A      1.711374
     208A      1.740940   209A      1.742037   210A      1.754371
     211A      1.757514   212A      1.763275   213A      1.782524
     214A      1.784854   215A      1.795492   216A      1.814988
     217A      1.822917   218A      1.831683   219A      1.852628
     220A      1.871500   221A      1.878482   222A      1.888545
     223A      1.898977   224A      1.900314   225A      1.908175
     226A      1.909415   227A      1.920038   228A      1.924321
     229A      1.929934   230A      1.930915   231A      1.937746
     232A      1.945506   233A      1.956364   234A      1.959354
     235A      1.966280   236A      1.977934   237A      1.989078
     238A      1.994557   239A      1.998949   240A      2.009438
     241A      2.014094   242A      2.034878   243A      2.043184
     244A      2.053974   245A      2.064866   246A      2.070865
     247A      2.076772   248A      2.088396   249A      2.091152
     250A      2.104976   251A      2.111030   252A      2.115773
     253A      2.120824   254A      2.140517   255A      2.155284
     256A      2.156044   257A      2.161313   258A      2.169958
     259A      2.172546   260A      2.183659   261A      2.207867
     262A      2.216014   263A      2.233583   264A      2.247051
     265A      2.269573   266A      2.277079   267A      2.296179
     268A      2.299605   269A      2.305530   270A      2.313603
     271A      2.327442   272A      2.330333   273A      2.337849
     274A      2.362191   275A      2.382954   276A      2.399924
     277A      2.425471   278A      2.447844   279A      2.466659
     280A      2.484070   281A      2.494560   282A      2.499608
     283A      2.542044   284A      2.547174   285A      2.594220
     286A      2.600387   287A      2.624481   288A      2.635780
     289A      2.660379   290A      2.681838   291A      2.712480
     292A      2.753888   293A      2.765126   294A      2.768738
     295A      2.773824   296A      2.781449   297A      2.789390
     298A      2.791942   299A      2.817148   300A      2.828165
     301A      2.842343   302A      2.855945   303A      2.867220
     304A      2.880300   305A      2.907153   306A      2.916243
     307A      2.971875   308A      2.989741   309A      3.016377
     310A      3.025908   311A      3.033140   312A      3.055234
     313A      3.079714   314A      3.120915   315A      3.157230
     316A      3.190766   317A      3.214488   318A      3.285456
     319A      3.304965   320A      3.369366   321A      3.739877
     322A      3.923747   323A      3.966321

    Final Occupation by Irrep:
              A
    DOCC [    60 ]

  @RHF Final Energy:  -670.29061633942410

   => Energetics <=

    Nuclear Repulsion Energy =           1097.4136706773369951
    One-Electron Energy =               -3086.5611441645728519
    Two-Electron Energy =                1318.8568571478117519
    Total Energy =                       -670.2906163394241048

Computation Completed

Properties will be evaluated at   0.000000,   0.000000,   0.000000 [a0]

Properties computed using the SCF density matrix

  Nuclear Dipole Moment: [e a0]
     X:     0.4170      Y:     3.9939      Z:    10.4413

  Electronic Dipole Moment: [e a0]
     X:    -0.5809      Y:    -4.6666      Z:   -10.1018

  Dipole Moment: [e a0]
     X:    -0.1639      Y:    -0.6727      Z:     0.3394     Total:     0.7711

  Dipole Moment: [D]
     X:    -0.4166      Y:    -1.7099      Z:     0.8627     Total:     1.9600

*** tstop() called on ds3 at Mon Apr 27 06:26:21 2020
Module time:
	user time   =     731.40 seconds =      12.19 minutes
	system time =     270.19 seconds =       4.50 minutes
	total time  =      10911 seconds =     181.85 minutes
Total time:
	user time   =     731.40 seconds =      12.19 minutes
	system time =     270.19 seconds =       4.50 minutes
	total time  =      10911 seconds =     181.85 minutes
                                     G D M A

                                 by Anthony Stone

                           version 2.2.06, 22 June 2011

               Distributed Multipoles from Gaussian wavefunctions

Starting at 6:26:21 on 27 Apr 2020

Using SCF density matrix from file ./SSI/SSI-030TRP-036PHE-1-dimer.test.18041.fchk

                         Distributed Multipole Analysis

Standard DMA

Positions and radii in angstrom
Multipole moments in atomic units, ea_0^k for rank k

C          x =  2.834326  y = -0.161575  z =  0.287657 angstrom
           Maximum rank =  0   Radius =  0.650 angstrom
                   Q00  =  -0.218083

C          x =  0.214326  y = -1.366575  z = -2.151343 angstrom
           Maximum rank =  0   Radius =  0.650 angstrom
                   Q00  =   0.279581

C          x =  1.133326  y = -0.364575  z = -1.725343 angstrom
           Maximum rank =  0   Radius =  0.650 angstrom
                   Q00  =  -0.058826

C          x =  1.857326  y = -0.894575  z = -0.593343 angstrom
           Maximum rank =  0   Radius =  0.650 angstrom
                   Q00  =  -0.104910

C          x =  1.376326  y = -2.151575  z = -0.399343 angstrom
           Maximum rank =  0   Radius =  0.650 angstrom
                   Q00  =   0.074698

C          x = -0.659674  y = -1.179575  z = -3.226343 angstrom
           Maximum rank =  0   Radius =  0.650 angstrom
                   Q00  =  -0.117688

C          x = -0.620674  y =  0.037425  z = -3.893343 angstrom
           Maximum rank =  0   Radius =  0.650 angstrom
                   Q00  =  -0.069348

C          x =  1.154326  y =  0.860425  z = -2.415343 angstrom
           Maximum rank =  0   Radius =  0.650 angstrom
                   Q00  =  -0.093311

C          x =  0.275326  y =  1.051425  z = -3.496343 angstrom
           Maximum rank =  0   Radius =  0.650 angstrom
                   Q00  =  -0.091669

N          x =  0.395326  y = -2.440575  z = -1.319343 angstrom
           Maximum rank =  0   Radius =  0.650 angstrom
                   Q00  =  -0.493891

H          x = -0.151674  y = -3.300575  z = -1.308343 angstrom
           Maximum rank =  0   Radius =  0.325 angstrom
                   Q00  =   0.219466

H          x = -1.345674  y = -1.959575  z = -3.521343 angstrom
           Maximum rank =  0   Radius =  0.325 angstrom
                   Q00  =   0.074618

H          x =  1.654326  y = -2.781575  z =  0.432657 angstrom
           Maximum rank =  0   Radius =  0.325 angstrom
                   Q00  =   0.099553

H          x = -1.288674  y =  0.211425  z = -4.729343 angstrom
           Maximum rank =  0   Radius =  0.325 angstrom
                   Q00  =   0.067657

H          x =  1.841326  y =  1.637425  z = -2.119343 angstrom
           Maximum rank =  0   Radius =  0.325 angstrom
                   Q00  =   0.074671

H          x =  2.798326  y = -0.589575  z =  1.274657 angstrom
           Maximum rank =  0   Radius =  0.325 angstrom
                   Q00  =   0.107481

H          x =  2.499326  y =  0.872425  z =  0.387657 angstrom
           Maximum rank =  0   Radius =  0.325 angstrom
                   Q00  =   0.108280

H          x =  0.285326  y =  1.989425  z = -4.031343 angstrom
           Maximum rank =  0   Radius =  0.325 angstrom
                   Q00  =   0.063359

H          x =  3.888206  y = -0.165165  z = -0.027503 angstrom
           Maximum rank =  0   Radius =  0.325 angstrom
                   Q00  =   0.097276

C          x = -1.436674  y =  1.393425  z =  5.040657 angstrom
           Maximum rank =  0   Radius =  0.650 angstrom
                   Q00  =  -0.197760

C          x = -0.978674  y =  0.620425  z =  0.824657 angstrom
           Maximum rank =  0   Radius =  0.650 angstrom
                   Q00  =  -0.099353

C          x = -1.298674  y =  1.904425  z =  1.266657 angstrom
           Maximum rank =  0   Radius =  0.650 angstrom
                   Q00  =  -0.067997

C          x = -0.779674  y = -0.403575  z =  1.754657 angstrom
           Maximum rank =  0   Radius =  0.650 angstrom
                   Q00  =  -0.071079

C          x = -1.423674  y =  2.156425  z =  2.637657 angstrom
           Maximum rank =  0   Radius =  0.650 angstrom
                   Q00  =  -0.015927

C          x = -0.910674  y = -0.144575  z =  3.121657 angstrom
           Maximum rank =  0   Radius =  0.650 angstrom
                   Q00  =  -0.054848

C          x = -1.235674  y =  1.133425  z =  3.571657 angstrom
           Maximum rank =  0   Radius =  0.650 angstrom
                   Q00  =  -0.106530

H          x = -0.902674  y =  0.418425  z = -0.233343 angstrom
           Maximum rank =  0   Radius =  0.325 angstrom
                   Q00  =   0.078750

H          x = -1.460674  y =  2.698425  z =  0.551657 angstrom
           Maximum rank =  0   Radius =  0.325 angstrom
                   Q00  =   0.063063

H          x = -0.523674  y = -1.398575  z =  1.418657 angstrom
           Maximum rank =  0   Radius =  0.325 angstrom
                   Q00  =   0.053333

H          x = -1.688674  y =  3.145425  z =  2.970657 angstrom
           Maximum rank =  0   Radius =  0.325 angstrom
                   Q00  =   0.053686

H          x = -0.771674  y = -0.947575  z =  3.830657 angstrom
           Maximum rank =  0   Radius =  0.325 angstrom
                   Q00  =   0.050412

H          x = -1.122674  y =  2.416425  z =  5.246657 angstrom
           Maximum rank =  0   Radius =  0.325 angstrom
                   Q00  =   0.095401

H          x = -0.785674  y =  0.739425  z =  5.622657 angstrom
           Maximum rank =  0   Radius =  0.325 angstrom
                   Q00  =   0.095848

H          x = -2.479054  y =  1.266535  z =  5.368287 angstrom
           Maximum rank =  0   Radius =  0.325 angstrom
                   Q00  =   0.104085

Total multipoles referred to origin at
           x =   0.000000,  y =    0.000000,  z =    0.000000 angstrom
                   Q00  =  -0.000000

Finished at 6:26:21 on 27 Apr 2020

  DMA results are available in the Python driver through the
	  variable('DMA DISTRIBUTED MULTIPOLES')
  and
	  variable('DMA TOTAL MULTIPOLES')
  commands.

    Psi4 stopped on: Monday, 27 April 2020 06:26AM
    Psi4 wall time for execution: 3:01:51.41

*** Psi4 exiting successfully. Buy a developer a beer!
