                               Psi4 1.3.2 release

  ==> Input File <==

--------------------------------------------------------------------------
import numpy as np
set {scf_type pk
basis cc-pvdz
d_convergence 10
gdma_switch   0
gdma_limit    0
gdma_origin   [ 0.0,  0.0,  0.0 ]
}
molecule test {
    units Angstrom
    0 1
    --
    0 1
    C               -0.589157612797963     1.302111444619625    -0.923276660834248
    C               -0.997157612797963     2.532111444619625    -1.765276660834248
    H               -1.307157612797962     0.494111444619625    -1.060276660834248
    H                0.396842387202037     0.958111444619625    -1.237276660834248
    H               -0.534157612797963     1.565111444619625     0.132723339165752
    H               -0.277157612797963     3.328111444619626    -1.569276660834248
    H               -1.999978612797963     2.864006444619625    -1.458363460834248
    H               -0.956477612797963     2.320723444619625    -2.844007660834248
    C                0.724842387202037    -1.997888555380375     0.576723339165752
    C                0.854842387202037    -1.840888555380375     2.108723339165752
    H               -0.169157612797963    -1.498888555380375     0.206723339165752
    H                1.593842387202037    -1.548888555380375     0.093723339165752
    H                0.691842387202037    -3.055888555380375     0.323723339165752
    H                0.950842387202037    -0.777888555380375     2.333723339165752
    H               -0.046047612797963    -2.232206555380375     2.603963339165752
    H                1.735712387202037    -2.362188555380375     2.511611339165752

}
e, wfn = energy('scf', return_wfn=True)
gdma(wfn)
dmavals = variable('DMA DISTRIBUTED MULTIPOLES')
charges = np.array(dmavals)
print(charges)
np.save('SSI-025VAL-057VAL-1-dimer.npy', np.array(charges))--------------------------------------------------------------------------

*** tstart() called on ds3
*** at Tue Apr 28 20:54:10 2020

   => Loading Basis Set <=

    Name: CC-PVDZ
    Role: ORBITAL
    Keyword: BASIS
    atoms 1-2, 9-10  entry C          line   138 file /theoryfs2/ds/metcalf/miniconda2/envs/tf2gpu/share/psi4/basis/cc-pvdz.gbs
    atoms 3-8, 11-16 entry H          line    22 file /theoryfs2/ds/metcalf/miniconda2/envs/tf2gpu/share/psi4/basis/cc-pvdz.gbs

         ---------------------------------------------------------
                                   SCF
               by Justin Turney, Rob Parrish, Andy Simmonett
                          and Daniel G. A. Smith
                              RHF Reference
                        1 Threads,    500 MiB Core
         ---------------------------------------------------------

  ==> Geometry <==

    Molecular point group: c1
    Full point group: C1

    Geometry (in Angstrom), charge = 0, multiplicity = 1:

       Center              X                  Y                   Z               Mass
    ------------   -----------------  -----------------  -----------------  -----------------
         C           -0.589157612798     1.302111444620    -0.923276660834    12.000000000000
         C           -0.997157612798     2.532111444620    -1.765276660834    12.000000000000
         H           -1.307157612798     0.494111444620    -1.060276660834     1.007825032230
         H            0.396842387202     0.958111444620    -1.237276660834     1.007825032230
         H           -0.534157612798     1.565111444620     0.132723339166     1.007825032230
         H           -0.277157612798     3.328111444620    -1.569276660834     1.007825032230
         H           -1.999978612798     2.864006444620    -1.458363460834     1.007825032230
         H           -0.956477612798     2.320723444620    -2.844007660834     1.007825032230
         C            0.724842387202    -1.997888555380     0.576723339166    12.000000000000
         C            0.854842387202    -1.840888555380     2.108723339166    12.000000000000
         H           -0.169157612798    -1.498888555380     0.206723339166     1.007825032230
         H            1.593842387202    -1.548888555380     0.093723339166     1.007825032230
         H            0.691842387202    -3.055888555380     0.323723339166     1.007825032230
         H            0.950842387202    -0.777888555380     2.333723339166     1.007825032230
         H           -0.046047612798    -2.232206555380     2.603963339166     1.007825032230
         H            1.735712387202    -2.362188555380     2.511611339166     1.007825032230

  Running in c1 symmetry.

  Rotational constants: A =      0.61973  B =      0.04177  C =      0.04034 [cm^-1]
  Rotational constants: A =  18578.89360  B =   1252.11011  C =   1209.27510 [MHz]
  Nuclear repulsion =  119.571440005929148

  Charge       = 0
  Multiplicity = 1
  Electrons    = 36
  Nalpha       = 18
  Nbeta        = 18

  ==> Algorithm <==

  SCF Algorithm Type is PK.
  DIIS enabled.
  MOM disabled.
  Fractional occupation disabled.
  Guess Type is SAD.
  Energy threshold   = 1.00e-06
  Density threshold  = 1.00e-10
  Integral threshold = 0.00e+00

  ==> Primary Basis <==

  Basis Set: CC-PVDZ
    Blend: CC-PVDZ
    Number of shells: 60
    Number of basis function: 116
    Number of Cartesian functions: 120
    Spherical Harmonics?: true
    Max angular momentum: 2

  ==> Pre-Iterations <==

   -------------------------------------------------------
    Irrep   Nso     Nmo     Nalpha   Nbeta   Ndocc  Nsocc
   -------------------------------------------------------
     A        116     116       0       0       0       0
   -------------------------------------------------------
    Total     116     116      18      18      18       0
   -------------------------------------------------------

  ==> Integral Setup <==

  Using integral reordering PK algorithm.
  Sizing the integral batches needed.
  Building batch lookup table.
   Calculation information:
      Number of atoms:                  16
      Number of AO shells:              60
      Number of primitives:            148
      Number of atomic orbitals:       120
      Number of basis functions:       116

      Integral cutoff                 1.00e-12
      Number of threads:                 1

	Batch   1 pq = [       0,    6786] index = [             0,23028291] size =     23028291
  Task number: 3
  Buffer size: 11059200
  Buffer per thread: 2
  We computed 1346097 shell quartets total.
  Whereas there are 1675365 unique shell quartets.

  ==> DiskJK: Disk-Based J/K Matrices <==

    J tasked:                  Yes
    K tasked:                  Yes
    wK tasked:                  No
    Memory [MiB]:              375
    Schwarz Cutoff:          1E-12

    OpenMP threads:              1

  Minimum eigenvalue in the overlap matrix is 6.9601340087E-03.
  Using Symmetric Orthogonalization.

  SCF Guess: Superposition of Atomic Densities via on-the-fly atomic UHF.

  ==> Iterations <==

                        Total Energy        Delta E     RMS |[F,P]|

   @RHF iter SAD:  -157.28265142900858   -1.57283e+02   0.00000e+00
   @RHF iter   1:  -158.31140389380241   -1.02875e+00   4.16104e-03 DIIS
   @RHF iter   2:  -158.44238474924470   -1.30981e-01   1.76595e-03 DIIS
   @RHF iter   3:  -158.46508914986782   -2.27044e-02   3.46531e-04 DIIS
   @RHF iter   4:  -158.46689180455826   -1.80265e-03   3.84858e-05 DIIS
   @RHF iter   5:  -158.46691507641412   -2.32719e-05   6.46865e-06 DIIS
   @RHF iter   6:  -158.46691569774561   -6.21331e-07   1.05078e-06 DIIS
   @RHF iter   7:  -158.46691570886057   -1.11150e-08   3.13984e-07 DIIS
   @RHF iter   8:  -158.46691570973050   -8.69932e-10   4.03183e-08 DIIS
   @RHF iter   9:  -158.46691570975625   -2.57501e-11   7.78728e-09 DIIS
   @RHF iter  10:  -158.46691570975719   -9.37916e-13   1.92684e-09 DIIS
   @RHF iter  11:  -158.46691570975685    3.41061e-13   3.84666e-10 DIIS
   @RHF iter  12:  -158.46691570975730   -4.54747e-13   1.16354e-10 DIIS
   @RHF iter  13:  -158.46691570975722    8.52651e-14   2.49023e-11 DIIS
  Energy and wave function converged.

  ==> Post-Iterations <==

    Orbital Energies [Eh]
    ---------------------

    Doubly Occupied:

       1A    -11.221238     2A    -11.219853     3A    -11.218838
       4A    -11.216885     5A     -1.015031     6A     -1.012607
       7A     -0.840173     8A     -0.836072     9A     -0.598351
      10A     -0.596350    11A     -0.595368    12A     -0.592692
      13A     -0.502536    14A     -0.495606    15A     -0.489142
      16A     -0.487267    17A     -0.484557    18A     -0.482343

    Virtual:

      19A      0.171763    20A      0.193712    21A      0.224077
      22A      0.232400    23A      0.235283    24A      0.260667
      25A      0.266800    26A      0.274259    27A      0.277020
      28A      0.296119    29A      0.310265    30A      0.332384
      31A      0.387238    32A      0.405824    33A      0.576074
      34A      0.588744    35A      0.594825    36A      0.599530
      37A      0.611448    38A      0.633392    39A      0.683194
      40A      0.690635    41A      0.693273    42A      0.742664
      43A      0.836895    44A      0.864761    45A      0.886374
      46A      0.888892    47A      0.892035    48A      0.893289
      49A      0.896189    50A      0.907468    51A      0.912739
      52A      0.918968    53A      0.935247    54A      0.953317
      55A      0.967863    56A      1.002731    57A      1.119941
      58A      1.125987    59A      1.131815    60A      1.134499
      61A      1.232839    62A      1.247605    63A      1.458829
      64A      1.466622    65A      1.480129    66A      1.486475
      67A      1.561909    68A      1.582102    69A      1.678370
      70A      1.684456    71A      1.692651    72A      1.695724
      73A      1.849329    74A      1.863248    75A      1.866399
      76A      1.879150    77A      1.889646    78A      1.905033
      79A      1.928113    80A      1.935337    81A      1.937845
      82A      1.942150    83A      1.945709    84A      1.952512
      85A      1.958954    86A      1.960137    87A      1.970956
      88A      2.038901    89A      2.082450    90A      2.091043
      91A      2.115928    92A      2.128372    93A      2.292880
      94A      2.298362    95A      2.308853    96A      2.328061
      97A      2.446032    98A      2.453990    99A      2.463058
     100A      2.466421   101A      2.545873   102A      2.552408
     103A      2.571933   104A      2.580060   105A      2.757816
     106A      2.759335   107A      2.783653   108A      2.793875
     109A      2.841054   110A      2.843321   111A      2.851603
     112A      2.862955   113A      2.934639   114A      2.947612
     115A      2.957605   116A      2.967031

    Final Occupation by Irrep:
              A
    DOCC [    18 ]

  @RHF Final Energy:  -158.46691570975722

   => Energetics <=

    Nuclear Repulsion Energy =            119.5714400059291478
    One-Electron Energy =                -448.2668930054394423
    Two-Electron Energy =                 170.2285372897530635
    Total Energy =                       -158.4669157097572167

Computation Completed

Properties will be evaluated at   0.000000,   0.000000,   0.000000 [a0]

Properties computed using the SCF density matrix

  Nuclear Dipole Moment: [e a0]
     X:     0.0740      Y:     0.0508      Z:     0.0347

  Electronic Dipole Moment: [e a0]
     X:    -0.0673      Y:    -0.0364      Z:    -0.0449

  Dipole Moment: [e a0]
     X:     0.0067      Y:     0.0144      Z:    -0.0102     Total:     0.0189

  Dipole Moment: [D]
     X:     0.0170      Y:     0.0367      Z:    -0.0259     Total:     0.0480

*** tstop() called on ds3 at Tue Apr 28 20:54:23 2020
Module time:
	user time   =       6.89 seconds =       0.11 minutes
	system time =       2.70 seconds =       0.04 minutes
	total time  =         13 seconds =       0.22 minutes
Total time:
	user time   =       6.89 seconds =       0.11 minutes
	system time =       2.70 seconds =       0.04 minutes
	total time  =         13 seconds =       0.22 minutes
                                     G D M A

                                 by Anthony Stone

                           version 2.2.06, 22 June 2011

               Distributed Multipoles from Gaussian wavefunctions

Starting at 20:54:23 on 28 Apr 2020

Using SCF density matrix from file ./SSI/SSI-025VAL-057VAL-1-dimer.test.2885.fchk

                         Distributed Multipole Analysis

Standard DMA

Positions and radii in angstrom
Multipole moments in atomic units, ea_0^k for rank k

C          x = -0.589158  y =  1.302111  z = -0.923277 angstrom
           Maximum rank =  0   Radius =  0.650 angstrom
                   Q00  =  -0.244928

C          x = -0.997158  y =  2.532111  z = -1.765277 angstrom
           Maximum rank =  0   Radius =  0.650 angstrom
                   Q00  =  -0.239421

H          x = -1.307158  y =  0.494111  z = -1.060277 angstrom
           Maximum rank =  0   Radius =  0.325 angstrom
                   Q00  =   0.079446

H          x =  0.396842  y =  0.958111  z = -1.237277 angstrom
           Maximum rank =  0   Radius =  0.325 angstrom
                   Q00  =   0.080504

H          x = -0.534158  y =  1.565111  z =  0.132723 angstrom
           Maximum rank =  0   Radius =  0.325 angstrom
                   Q00  =   0.081662

H          x = -0.277158  y =  3.328111  z = -1.569277 angstrom
           Maximum rank =  0   Radius =  0.325 angstrom
                   Q00  =   0.079359

H          x = -1.999979  y =  2.864006  z = -1.458363 angstrom
           Maximum rank =  0   Radius =  0.325 angstrom
                   Q00  =   0.081159

H          x = -0.956478  y =  2.320723  z = -2.844008 angstrom
           Maximum rank =  0   Radius =  0.325 angstrom
                   Q00  =   0.082987

C          x =  0.724842  y = -1.997889  z =  0.576723 angstrom
           Maximum rank =  0   Radius =  0.650 angstrom
                   Q00  =  -0.236738

C          x =  0.854842  y = -1.840889  z =  2.108723 angstrom
           Maximum rank =  0   Radius =  0.650 angstrom
                   Q00  =  -0.248758

H          x = -0.169158  y = -1.498889  z =  0.206723 angstrom
           Maximum rank =  0   Radius =  0.325 angstrom
                   Q00  =   0.088006

H          x =  1.593842  y = -1.548889  z =  0.093723 angstrom
           Maximum rank =  0   Radius =  0.325 angstrom
                   Q00  =   0.078674

H          x =  0.691842  y = -3.055889  z =  0.323723 angstrom
           Maximum rank =  0   Radius =  0.325 angstrom
                   Q00  =   0.079068

H          x =  0.950842  y = -0.777889  z =  2.333723 angstrom
           Maximum rank =  0   Radius =  0.325 angstrom
                   Q00  =   0.078340

H          x = -0.046048  y = -2.232207  z =  2.603963 angstrom
           Maximum rank =  0   Radius =  0.325 angstrom
                   Q00  =   0.078669

H          x =  1.735712  y = -2.362189  z =  2.511611 angstrom
           Maximum rank =  0   Radius =  0.325 angstrom
                   Q00  =   0.081970

Total multipoles referred to origin at
           x =   0.000000,  y =    0.000000,  z =    0.000000 angstrom
                   Q00  =  -0.000000

Finished at 20:54:23 on 28 Apr 2020

  DMA results are available in the Python driver through the
	  variable('DMA DISTRIBUTED MULTIPOLES')
  and
	  variable('DMA TOTAL MULTIPOLES')
  commands.

    Psi4 stopped on: Tuesday, 28 April 2020 08:54PM
    Psi4 wall time for execution: 0:00:13.62

*** Psi4 exiting successfully. Buy a developer a beer!
