                               Psi4 1.3.2 release

  ==> Input File <==

--------------------------------------------------------------------------
import numpy as np
set {scf_type pk
basis cc-pvdz
d_convergence 10
gdma_switch   0
gdma_limit    0
gdma_origin   [ 0.0,  0.0,  0.0 ]
}
molecule test {
    units Angstrom
    0 1
    --
    0 1
    C               -4.077696988667356    -1.380620001460879    -0.562455436698648
    C                0.160303011332644    -0.968620001460879     0.142544563301352
    C               -0.427696988667356    -0.365620001460879    -0.964455436698648
    C               -0.614696988667356    -1.721620001460878     1.023544563301352
    C               -1.782696988667356    -0.535620001460879    -1.203455436698648
    C               -1.970696988667356    -1.914620001460879     0.752544563301352
    C               -2.570696988667356    -1.318620001460878    -0.361455436698648
    O                1.479303011332644    -0.753620001460879     0.412544563301352
    H                1.904303011332644    -0.255620001460879    -0.288455436698648
    H                0.160303011332644     0.244379998539121    -1.634455436698648
    H               -0.157696988667356    -2.161620001460879     1.896544563301352
    H               -2.229696988667356    -0.036620001460879    -2.050455436698648
    H               -2.569696988667356    -2.511620001460879     1.418544563301352
    H               -4.429696988667356    -2.323620001460879    -0.142455436698648
    H               -4.308696988667357    -1.401620001460878    -1.625455436698648
    H               -4.629077988667356    -0.565630001460879    -0.070759436698648
    C                2.895303011332643     2.073379998539121     0.290544563301352
    C                1.761303011332644     2.988379998539121    -0.149455436698648
    C                4.067303011332644     3.027379998539121     0.534544563301352
    H                3.130303011332644     1.321379998539121    -0.461455436698648
    H                2.627303011332644     1.595379998539121     1.234544563301352
    H                1.870303011332644     3.243379998539121    -1.202455436698648
    H                0.786303011332644     2.534379998539121     0.025544563301352
    H                4.704303011332644     2.619379998539122     1.317544563301352
    H                1.906545011332644     3.886699998539121     0.468547563301352
    H                3.571383611332644     3.952899998539121     0.862393563301352
    H                4.667023811332644     3.202539998539121    -0.370803436698648

}
e, wfn = energy('scf', return_wfn=True)
gdma(wfn)
dmavals = variable('DMA DISTRIBUTED MULTIPOLES')
charges = np.array(dmavals)
print(charges)
np.save('SSI-004TYR-075PRO-1-dimer.npy', np.array(charges))--------------------------------------------------------------------------

*** tstart() called on ds3
*** at Mon Apr 27 23:17:49 2020

   => Loading Basis Set <=

    Name: CC-PVDZ
    Role: ORBITAL
    Keyword: BASIS
    atoms 1-7, 17-19  entry C          line   138 file /theoryfs2/ds/metcalf/miniconda2/envs/tf2gpu/share/psi4/basis/cc-pvdz.gbs
    atoms 8           entry O          line   198 file /theoryfs2/ds/metcalf/miniconda2/envs/tf2gpu/share/psi4/basis/cc-pvdz.gbs
    atoms 9-16, 20-27 entry H          line    22 file /theoryfs2/ds/metcalf/miniconda2/envs/tf2gpu/share/psi4/basis/cc-pvdz.gbs

         ---------------------------------------------------------
                                   SCF
               by Justin Turney, Rob Parrish, Andy Simmonett
                          and Daniel G. A. Smith
                              RHF Reference
                        1 Threads,    500 MiB Core
         ---------------------------------------------------------

  ==> Geometry <==

    Molecular point group: c1
    Full point group: C1

    Geometry (in Angstrom), charge = 0, multiplicity = 1:

       Center              X                  Y                   Z               Mass
    ------------   -----------------  -----------------  -----------------  -----------------
         C           -4.077696988667    -1.380620001461    -0.562455436699    12.000000000000
         C            0.160303011333    -0.968620001461     0.142544563301    12.000000000000
         C           -0.427696988667    -0.365620001461    -0.964455436699    12.000000000000
         C           -0.614696988667    -1.721620001461     1.023544563301    12.000000000000
         C           -1.782696988667    -0.535620001461    -1.203455436699    12.000000000000
         C           -1.970696988667    -1.914620001461     0.752544563301    12.000000000000
         C           -2.570696988667    -1.318620001461    -0.361455436699    12.000000000000
         O            1.479303011333    -0.753620001461     0.412544563301    15.994914619570
         H            1.904303011333    -0.255620001461    -0.288455436699     1.007825032230
         H            0.160303011333     0.244379998539    -1.634455436699     1.007825032230
         H           -0.157696988667    -2.161620001461     1.896544563301     1.007825032230
         H           -2.229696988667    -0.036620001461    -2.050455436699     1.007825032230
         H           -2.569696988667    -2.511620001461     1.418544563301     1.007825032230
         H           -4.429696988667    -2.323620001461    -0.142455436699     1.007825032230
         H           -4.308696988667    -1.401620001461    -1.625455436699     1.007825032230
         H           -4.629077988667    -0.565630001461    -0.070759436699     1.007825032230
         C            2.895303011333     2.073379998539     0.290544563301    12.000000000000
         C            1.761303011333     2.988379998539    -0.149455436699    12.000000000000
         C            4.067303011333     3.027379998539     0.534544563301    12.000000000000
         H            3.130303011333     1.321379998539    -0.461455436699     1.007825032230
         H            2.627303011333     1.595379998539     1.234544563301     1.007825032230
         H            1.870303011333     3.243379998539    -1.202455436699     1.007825032230
         H            0.786303011333     2.534379998539     0.025544563301     1.007825032230
         H            4.704303011333     2.619379998539     1.317544563301     1.007825032230
         H            1.906545011333     3.886699998539     0.468547563301     1.007825032230
         H            3.571383611333     3.952899998539     0.862393563301     1.007825032230
         H            4.667023811333     3.202539998539    -0.370803436699     1.007825032230

  Running in c1 symmetry.

  Rotational constants: A =      0.08043  B =      0.01278  C =      0.01166 [cm^-1]
  Rotational constants: A =   2411.15447  B =    383.00483  C =    349.52561 [MHz]
  Nuclear repulsion =  573.414488845000164

  Charge       = 0
  Multiplicity = 1
  Electrons    = 84
  Nalpha       = 42
  Nbeta        = 42

  ==> Algorithm <==

  SCF Algorithm Type is PK.
  DIIS enabled.
  MOM disabled.
  Fractional occupation disabled.
  Guess Type is SAD.
  Energy threshold   = 1.00e-06
  Density threshold  = 1.00e-10
  Integral threshold = 0.00e+00

  ==> Primary Basis <==

  Basis Set: CC-PVDZ
    Blend: CC-PVDZ
    Number of shells: 114
    Number of basis function: 234
    Number of Cartesian functions: 245
    Spherical Harmonics?: true
    Max angular momentum: 2

  ==> Pre-Iterations <==

   -------------------------------------------------------
    Irrep   Nso     Nmo     Nalpha   Nbeta   Ndocc  Nsocc
   -------------------------------------------------------
     A        234     234       0       0       0       0
   -------------------------------------------------------
    Total     234     234      42      42      42       0
   -------------------------------------------------------

  ==> Integral Setup <==

  Using integral reordering PK algorithm.
  Sizing the integral batches needed.
  Building batch lookup table.
   Calculation information:
      Number of atoms:                  27
      Number of AO shells:             114
      Number of primitives:            322
      Number of atomic orbitals:       245
      Number of basis functions:       234

      Integral cutoff                 1.00e-12
      Number of threads:                 1

	Batch   1 pq = [       0,    9405] index = [             0,44231715] size =     44231715
	Batch   2 pq = [    9405,   13301] index = [      44231715,88464951] size =     44233236
	Batch   3 pq = [   13301,   16290] index = [      88464951,132690195] size =     44225244
	Batch   4 pq = [   16290,   18810] index = [     132690195,176917455] size =     44227260
	Batch   5 pq = [   18810,   21030] index = [     176917455,221140965] size =     44223510
	Batch   6 pq = [   21030,   23037] index = [     221140965,265363203] size =     44222238
	Batch   7 pq = [   23037,   24883] index = [     265363203,309594286] size =     44231083
	Batch   8 pq = [   24883,   26601] index = [     309594286,353819901] size =     44225615
	Batch   9 pq = [   26601,   27495] index = [     353819901,378001260] size =     24181359
  Task number: 35
  Buffer size: 11059200
  Buffer per thread: 2
  We computed 17073271 shell quartets total.
  Whereas there are 21487290 unique shell quartets.

  ==> DiskJK: Disk-Based J/K Matrices <==

    J tasked:                  Yes
    K tasked:                  Yes
    wK tasked:                  No
    Memory [MiB]:              375
    Schwarz Cutoff:          1E-12

    OpenMP threads:              1

  Minimum eigenvalue in the overlap matrix is 3.2561494097E-04.
  Using Symmetric Orthogonalization.

  SCF Guess: Superposition of Atomic Densities via on-the-fly atomic UHF.

  ==> Iterations <==

                        Total Energy        Delta E     RMS |[F,P]|

   @RHF iter SAD:  -461.80962198901460   -4.61810e+02   0.00000e+00
   @RHF iter   1:  -462.59152516239618   -7.81903e-01   2.82134e-03 DIIS
   @RHF iter   2:  -462.83347442565946   -2.41949e-01   1.19800e-03 DIIS
   @RHF iter   3:  -462.87318472867787   -3.97103e-02   2.68865e-04 DIIS
   @RHF iter   4:  -462.87642495441327   -3.24023e-03   1.02858e-04 DIIS
   @RHF iter   5:  -462.87676292281623   -3.37968e-04   2.04989e-05 DIIS
   @RHF iter   6:  -462.87678277679390   -1.98540e-05   6.38541e-06 DIIS
   @RHF iter   7:  -462.87678484757345   -2.07078e-06   1.94318e-06 DIIS
   @RHF iter   8:  -462.87678512056050   -2.72987e-07   7.49695e-07 DIIS
   @RHF iter   9:  -462.87678516843380   -4.78733e-08   3.38722e-07 DIIS
   @RHF iter  10:  -462.87678517880079   -1.03670e-08   1.47045e-07 DIIS
   @RHF iter  11:  -462.87678518232519   -3.52441e-09   6.00069e-08 DIIS
   @RHF iter  12:  -462.87678518289295   -5.67752e-10   2.50288e-08 DIIS
   @RHF iter  13:  -462.87678518295945   -6.65068e-11   8.29092e-09 DIIS
   @RHF iter  14:  -462.87678518296451   -5.05906e-12   2.01240e-09 DIIS
   @RHF iter  15:  -462.87678518296559   -1.08002e-12   6.26748e-10 DIIS
   @RHF iter  16:  -462.87678518296104    4.54747e-12   2.10193e-10 DIIS
   @RHF iter  17:  -462.87678518296565   -4.60432e-12   8.71822e-11 DIIS
  Energy and wave function converged.

  ==> Post-Iterations <==

    Orbital Energies [Eh]
    ---------------------

    Doubly Occupied:

       1A    -20.581420     2A    -11.298839     3A    -11.238603
       4A    -11.237246     5A    -11.233489     6A    -11.231552
       7A    -11.230493     8A    -11.228496     9A    -11.223107
      10A    -11.218058    11A    -11.217178    12A     -1.399573
      13A     -1.149498    14A     -1.068473    15A     -1.034222
      16A     -1.017981    17A     -0.925314    18A     -0.917967
      19A     -0.843701    20A     -0.808993    21A     -0.799128
      22A     -0.731732    23A     -0.667627    24A     -0.642468
      25A     -0.638939    26A     -0.615090    27A     -0.605929
      28A     -0.587137    29A     -0.584183    30A     -0.571550
      31A     -0.563445    32A     -0.545552    33A     -0.526632
      34A     -0.515868    35A     -0.496559    36A     -0.489188
      37A     -0.483812    38A     -0.475091    39A     -0.465500
      40A     -0.462071    41A     -0.338589    42A     -0.300885

    Virtual:

      43A      0.129605    44A      0.154749    45A      0.165558
      46A      0.188121    47A      0.200588    48A      0.214219
      49A      0.219620    50A      0.229956    51A      0.235074
      52A      0.246949    53A      0.257870    54A      0.267341
      55A      0.283609    56A      0.285395    57A      0.292192
      58A      0.300928    59A      0.324756    60A      0.343388
      61A      0.364821    62A      0.369396    63A      0.377271
      64A      0.429438    65A      0.445427    66A      0.455122
      67A      0.486402    68A      0.497467    69A      0.506833
      70A      0.563069    71A      0.592359    72A      0.609290
      73A      0.628748    74A      0.637482    75A      0.643233
      76A      0.649621    77A      0.654245    78A      0.677522
      79A      0.690756    80A      0.705026    81A      0.708280
      82A      0.733548    83A      0.739314    84A      0.747691
      85A      0.770682    86A      0.775931    87A      0.778326
      88A      0.784981    89A      0.801305    90A      0.817462
      91A      0.832681    92A      0.848311    93A      0.858413
      94A      0.863404    95A      0.871046    96A      0.879997
      97A      0.881696    98A      0.887118    99A      0.893249
     100A      0.896415   101A      0.899921   102A      0.903535
     103A      0.919318   104A      0.922662   105A      0.929432
     106A      0.935463   107A      0.942989   108A      0.943125
     109A      0.959398   110A      0.976812   111A      0.993390
     112A      1.020766   113A      1.056907   114A      1.058983
     115A      1.082507   116A      1.118084   117A      1.125727
     118A      1.136881   119A      1.155219   120A      1.162903
     121A      1.189994   122A      1.217161   123A      1.235562
     124A      1.243859   125A      1.271104   126A      1.292793
     127A      1.303910   128A      1.316697   129A      1.333200
     130A      1.359193   131A      1.370447   132A      1.386608
     133A      1.456239   134A      1.466018   135A      1.469269
     136A      1.489559   137A      1.504078   138A      1.533435
     139A      1.555414   140A      1.599117   141A      1.619792
     142A      1.622099   143A      1.624704   144A      1.669344
     145A      1.680438   146A      1.707405   147A      1.727705
     148A      1.731080   149A      1.743691   150A      1.750383
     151A      1.778258   152A      1.793307   153A      1.801102
     154A      1.813660   155A      1.863105   156A      1.873752
     157A      1.878902   158A      1.888020   159A      1.897447
     160A      1.905771   161A      1.908478   162A      1.915927
     163A      1.917211   164A      1.928960   165A      1.940818
     166A      1.944584   167A      1.953741   168A      1.960400
     169A      1.973746   170A      1.979724   171A      2.003073
     172A      2.004649   173A      2.012399   174A      2.037021
     175A      2.042388   176A      2.057042   177A      2.063240
     178A      2.075779   179A      2.082507   180A      2.123010
     181A      2.139552   182A      2.146820   183A      2.153421
     184A      2.166825   185A      2.181741   186A      2.201103
     187A      2.220946   188A      2.239747   189A      2.261878
     190A      2.282415   191A      2.295263   192A      2.304538
     193A      2.321084   194A      2.348681   195A      2.374600
     196A      2.423565   197A      2.425118   198A      2.451786
     199A      2.475316   200A      2.477250   201A      2.498004
     202A      2.507149   203A      2.529488   204A      2.543388
     205A      2.552200   206A      2.597952   207A      2.628496
     208A      2.649203   209A      2.686615   210A      2.755804
     211A      2.759640   212A      2.769318   213A      2.775848
     214A      2.790801   215A      2.794444   216A      2.812141
     217A      2.833519   218A      2.835233   219A      2.862459
     220A      2.906514   221A      2.925301   222A      2.944385
     223A      2.970678   224A      2.999004   225A      3.045028
     226A      3.088490   227A      3.098923   228A      3.260554
     229A      3.283006   230A      3.362740   231A      3.579895
     232A      3.685648   233A      3.968222   234A      4.216732

    Final Occupation by Irrep:
              A
    DOCC [    42 ]

  @RHF Final Energy:  -462.87678518296565

   => Energetics <=

    Nuclear Repulsion Energy =            573.4144888450001645
    One-Electron Energy =               -1764.1601892045741806
    Two-Electron Energy =                 727.8689151766084251
    Total Energy =                       -462.8767851829657047

Computation Completed

Properties will be evaluated at   0.000000,   0.000000,   0.000000 [a0]

Properties computed using the SCF density matrix

  Nuclear Dipole Moment: [e a0]
     X:     6.5727      Y:    12.5060      Z:    -0.5821

  Electronic Dipole Moment: [e a0]
     X:    -6.7200      Y:   -12.2247      Z:     0.1944

  Dipole Moment: [e a0]
     X:    -0.1473      Y:     0.2813      Z:    -0.3878     Total:     0.5012

  Dipole Moment: [D]
     X:    -0.3744      Y:     0.7151      Z:    -0.9856     Total:     1.2739

*** tstop() called on ds3 at Mon Apr 27 23:20:56 2020
Module time:
	user time   =     132.78 seconds =       2.21 minutes
	system time =      63.84 seconds =       1.06 minutes
	total time  =        187 seconds =       3.12 minutes
Total time:
	user time   =     132.78 seconds =       2.21 minutes
	system time =      63.84 seconds =       1.06 minutes
	total time  =        187 seconds =       3.12 minutes
                                     G D M A

                                 by Anthony Stone

                           version 2.2.06, 22 June 2011

               Distributed Multipoles from Gaussian wavefunctions

Starting at 23:20:56 on 27 Apr 2020

Using SCF density matrix from file ./SSI/SSI-004TYR-075PRO-1-dimer.test.2193.fchk

                         Distributed Multipole Analysis

Standard DMA

Positions and radii in angstrom
Multipole moments in atomic units, ea_0^k for rank k

C          x = -4.077697  y = -1.380620  z = -0.562455 angstrom
           Maximum rank =  0   Radius =  0.650 angstrom
                   Q00  =  -0.201617

C          x =  0.160303  y = -0.968620  z =  0.142545 angstrom
           Maximum rank =  0   Radius =  0.650 angstrom
                   Q00  =   0.307481

C          x = -0.427697  y = -0.365620  z = -0.964455 angstrom
           Maximum rank =  0   Radius =  0.650 angstrom
                   Q00  =  -0.180616

C          x = -0.614697  y = -1.721620  z =  1.023545 angstrom
           Maximum rank =  0   Radius =  0.650 angstrom
                   Q00  =  -0.111622

C          x = -1.782697  y = -0.535620  z = -1.203455 angstrom
           Maximum rank =  0   Radius =  0.650 angstrom
                   Q00  =   0.030360

C          x = -1.970697  y = -1.914620  z =  0.752545 angstrom
           Maximum rank =  0   Radius =  0.650 angstrom
                   Q00  =  -0.015739

C          x = -2.570697  y = -1.318620  z = -0.361455 angstrom
           Maximum rank =  0   Radius =  0.650 angstrom
                   Q00  =  -0.139100

O          x =  1.479303  y = -0.753620  z =  0.412545 angstrom
           Maximum rank =  0   Radius =  0.650 angstrom
                   Q00  =  -0.679762

H          x =  1.904303  y = -0.255620  z = -0.288455 angstrom
           Maximum rank =  0   Radius =  0.325 angstrom
                   Q00  =   0.416276

H          x =  0.160303  y =  0.244380  z = -1.634455 angstrom
           Maximum rank =  0   Radius =  0.325 angstrom
                   Q00  =   0.072079

H          x = -0.157697  y = -2.161620  z =  1.896545 angstrom
           Maximum rank =  0   Radius =  0.325 angstrom
                   Q00  =   0.080708

H          x = -2.229697  y = -0.036620  z = -2.050455 angstrom
           Maximum rank =  0   Radius =  0.325 angstrom
                   Q00  =   0.066857

H          x = -2.569697  y = -2.511620  z =  1.418545 angstrom
           Maximum rank =  0   Radius =  0.325 angstrom
                   Q00  =   0.064042

H          x = -4.429697  y = -2.323620  z = -0.142455 angstrom
           Maximum rank =  0   Radius =  0.325 angstrom
                   Q00  =   0.093779

H          x = -4.308697  y = -1.401620  z = -1.625455 angstrom
           Maximum rank =  0   Radius =  0.325 angstrom
                   Q00  =   0.097678

H          x = -4.629078  y = -0.565630  z = -0.070759 angstrom
           Maximum rank =  0   Radius =  0.325 angstrom
                   Q00  =   0.101363

C          x =  2.895303  y =  2.073380  z =  0.290545 angstrom
           Maximum rank =  0   Radius =  0.650 angstrom
                   Q00  =  -0.123646

C          x =  1.761303  y =  2.988380  z = -0.149455 angstrom
           Maximum rank =  0   Radius =  0.650 angstrom
                   Q00  =  -0.223845

C          x =  4.067303  y =  3.027380  z =  0.534545 angstrom
           Maximum rank =  0   Radius =  0.650 angstrom
                   Q00  =  -0.216028

H          x =  3.130303  y =  1.321380  z = -0.461455 angstrom
           Maximum rank =  0   Radius =  0.325 angstrom
                   Q00  =   0.030466

H          x =  2.627303  y =  1.595380  z =  1.234545 angstrom
           Maximum rank =  0   Radius =  0.325 angstrom
                   Q00  =   0.072460

H          x =  1.870303  y =  3.243380  z = -1.202455 angstrom
           Maximum rank =  0   Radius =  0.325 angstrom
                   Q00  =   0.073336

H          x =  0.786303  y =  2.534380  z =  0.025545 angstrom
           Maximum rank =  0   Radius =  0.325 angstrom
                   Q00  =   0.089416

H          x =  4.704303  y =  2.619380  z =  1.317545 angstrom
           Maximum rank =  0   Radius =  0.325 angstrom
                   Q00  =   0.089249

H          x =  1.906545  y =  3.886700  z =  0.468548 angstrom
           Maximum rank =  0   Radius =  0.325 angstrom
                   Q00  =   0.058846

H          x =  3.571384  y =  3.952900  z =  0.862394 angstrom
           Maximum rank =  0   Radius =  0.325 angstrom
                   Q00  =   0.066158

H          x =  4.667024  y =  3.202540  z = -0.370803 angstrom
           Maximum rank =  0   Radius =  0.325 angstrom
                   Q00  =   0.081420

Total multipoles referred to origin at
           x =   0.000000,  y =    0.000000,  z =    0.000000 angstrom
                   Q00  =  -0.000000

Finished at 23:20:56 on 27 Apr 2020

  DMA results are available in the Python driver through the
	  variable('DMA DISTRIBUTED MULTIPOLES')
  and
	  variable('DMA TOTAL MULTIPOLES')
  commands.

    Psi4 stopped on: Monday, 27 April 2020 11:20PM
    Psi4 wall time for execution: 0:03:07.33

*** Psi4 exiting successfully. Buy a developer a beer!
