                               Psi4 1.3.2 release

  ==> Input File <==

--------------------------------------------------------------------------
import numpy as np
set {scf_type pk
basis cc-pvdz
d_convergence 10
gdma_switch   0
gdma_limit    0
gdma_origin   [ 0.0,  0.0,  0.0 ]
}
molecule test {
    units Angstrom
    -1 1
    --
    -1 1
    C               -0.368695276810452     0.714273000309156     1.620780980235923
    C               -1.806695276810452     0.330273000309156     1.893780980235924
    C                0.588304723189548    -0.003726999690844     2.570780980235924
    H               -0.204695276810452     0.447273000309156     0.625780980235923
    H               -0.244695276810452     1.795273000309156     1.713780980235924
    H               -2.067695276810452     0.704273000309156     2.880780980235924
    H               -1.900695276810452    -0.756726999690844     1.897780980235924
    H                0.466304723189548    -1.082726999690844     2.434780980235923
    H                1.617304723189548     0.250273000309156     2.295780980235924
    H               -2.493755276810452     0.742078000309156     1.139880980235924
    H                0.396764723189548     0.264725000309156     3.620180980235923
    C               -0.158695276810452    -1.528726999690844    -1.868219019764077
    C                0.431304723189548    -0.174726999690844    -1.503219019764076
    O               -0.104695276810452     0.860273000309156    -1.966219019764077
    O                1.429304723189548    -0.159726999690844    -0.748219019764077
    H               -1.203695276810452    -1.553726999690843    -1.553219019764077
    H                0.370304723189548    -2.324726999690844    -1.338219019764076
    H               -0.106715276810452    -1.714278999690843    -2.951209019764077

}
e, wfn = energy('scf', return_wfn=True)
gdma(wfn)
dmavals = variable('DMA DISTRIBUTED MULTIPOLES')
charges = np.array(dmavals)
print(charges)
np.save('SSI-059LYS-135ASP-1-dimer.npy', np.array(charges))--------------------------------------------------------------------------

*** tstart() called on ds3
*** at Sun Apr 26 16:56:48 2020

   => Loading Basis Set <=

    Name: CC-PVDZ
    Role: ORBITAL
    Keyword: BASIS
    atoms 1-3, 12-13  entry C          line   138 file /theoryfs2/ds/metcalf/miniconda2/envs/tf2gpu/share/psi4/basis/cc-pvdz.gbs
    atoms 4-11, 16-18 entry H          line    22 file /theoryfs2/ds/metcalf/miniconda2/envs/tf2gpu/share/psi4/basis/cc-pvdz.gbs
    atoms 14-15       entry O          line   198 file /theoryfs2/ds/metcalf/miniconda2/envs/tf2gpu/share/psi4/basis/cc-pvdz.gbs

         ---------------------------------------------------------
                                   SCF
               by Justin Turney, Rob Parrish, Andy Simmonett
                          and Daniel G. A. Smith
                              RHF Reference
                        1 Threads,    500 MiB Core
         ---------------------------------------------------------

  ==> Geometry <==

    Molecular point group: c1
    Full point group: C1

    Geometry (in Angstrom), charge = -1, multiplicity = 1:

       Center              X                  Y                   Z               Mass
    ------------   -----------------  -----------------  -----------------  -----------------
         C           -0.368695276810     0.714273000309     1.620780980236    12.000000000000
         C           -1.806695276810     0.330273000309     1.893780980236    12.000000000000
         C            0.588304723190    -0.003726999691     2.570780980236    12.000000000000
         H           -0.204695276810     0.447273000309     0.625780980236     1.007825032230
         H           -0.244695276810     1.795273000309     1.713780980236     1.007825032230
         H           -2.067695276810     0.704273000309     2.880780980236     1.007825032230
         H           -1.900695276810    -0.756726999691     1.897780980236     1.007825032230
         H            0.466304723190    -1.082726999691     2.434780980236     1.007825032230
         H            1.617304723190     0.250273000309     2.295780980236     1.007825032230
         H           -2.493755276810     0.742078000309     1.139880980236     1.007825032230
         H            0.396764723190     0.264725000309     3.620180980236     1.007825032230
         C           -0.158695276810    -1.528726999691    -1.868219019764    12.000000000000
         C            0.431304723190    -0.174726999691    -1.503219019764    12.000000000000
         O           -0.104695276810     0.860273000309    -1.966219019764    15.994914619570
         O            1.429304723190    -0.159726999691    -0.748219019764    15.994914619570
         H           -1.203695276810    -1.553726999691    -1.553219019764     1.007825032230
         H            0.370304723190    -2.324726999691    -1.338219019764     1.007825032230
         H           -0.106715276810    -1.714278999691    -2.951209019764     1.007825032230

  Running in c1 symmetry.

  Rotational constants: A =      0.11589  B =      0.03982  C =      0.03696 [cm^-1]
  Rotational constants: A =   3474.22425  B =   1193.74683  C =   1108.17706 [MHz]
  Nuclear repulsion =  302.189182800075912

  Charge       = -1
  Multiplicity = 1
  Electrons    = 58
  Nalpha       = 29
  Nbeta        = 29

  ==> Algorithm <==

  SCF Algorithm Type is PK.
  DIIS enabled.
  MOM disabled.
  Fractional occupation disabled.
  Guess Type is SAD.
  Energy threshold   = 1.00e-06
  Density threshold  = 1.00e-10
  Integral threshold = 0.00e+00

  ==> Primary Basis <==

  Basis Set: CC-PVDZ
    Blend: CC-PVDZ
    Number of shells: 75
    Number of basis function: 153
    Number of Cartesian functions: 160
    Spherical Harmonics?: true
    Max angular momentum: 2

  ==> Pre-Iterations <==

   -------------------------------------------------------
    Irrep   Nso     Nmo     Nalpha   Nbeta   Ndocc  Nsocc
   -------------------------------------------------------
     A        153     153       0       0       0       0
   -------------------------------------------------------
    Total     153     153      29      29      29       0
   -------------------------------------------------------

  ==> Integral Setup <==

  Using integral reordering PK algorithm.
  Sizing the integral batches needed.
  Building batch lookup table.
   Calculation information:
      Number of atoms:                  18
      Number of AO shells:              75
      Number of primitives:            209
      Number of atomic orbitals:       160
      Number of basis functions:       153

      Integral cutoff                 1.00e-12
      Number of threads:                 1

	Batch   1 pq = [       0,    9405] index = [             0,44231715] size =     44231715
	Batch   2 pq = [    9405,   11781] index = [      44231715,69401871] size =     25170156
  Task number: 7
  Buffer size: 11059200
  Buffer per thread: 2
  We computed 3857773 shell quartets total.
  Whereas there are 4062675 unique shell quartets.

  ==> DiskJK: Disk-Based J/K Matrices <==

    J tasked:                  Yes
    K tasked:                  Yes
    wK tasked:                  No
    Memory [MiB]:              375
    Schwarz Cutoff:          1E-12

    OpenMP threads:              1

  Minimum eigenvalue in the overlap matrix is 4.5576042649E-03.
  Using Symmetric Orthogonalization.

  SCF Guess: Superposition of Atomic Densities via on-the-fly atomic UHF.

  ==> Iterations <==

                        Total Energy        Delta E     RMS |[F,P]|

   @RHF iter SAD:  -343.95951679580963   -3.43960e+02   0.00000e+00
   @RHF iter   1:  -345.20558709061100   -1.24607e+00   4.98240e-03 DIIS
   @RHF iter   2:  -345.43794595854047   -2.32359e-01   2.74593e-03 DIIS
   @RHF iter   3:  -345.50466127016500   -6.67153e-02   4.30442e-04 DIIS
   @RHF iter   4:  -345.50764472738859   -2.98346e-03   1.63281e-04 DIIS
   @RHF iter   5:  -345.50806621057166   -4.21483e-04   2.46818e-05 DIIS
   @RHF iter   6:  -345.50807841503530   -1.22045e-05   6.33924e-06 DIIS
   @RHF iter   7:  -345.50807921374098   -7.98706e-07   1.92244e-06 DIIS
   @RHF iter   8:  -345.50807927782637   -6.40854e-08   6.46220e-07 DIIS
   @RHF iter   9:  -345.50807928622658   -8.40021e-09   3.15543e-07 DIIS
   @RHF iter  10:  -345.50807928827714   -2.05057e-09   9.48301e-08 DIIS
   @RHF iter  11:  -345.50807928874576   -4.68617e-10   3.29267e-08 DIIS
   @RHF iter  12:  -345.50807928879431   -4.85443e-11   7.92589e-09 DIIS
   @RHF iter  13:  -345.50807928879539   -1.08002e-12   2.42658e-09 DIIS
   @RHF iter  14:  -345.50807928879630   -9.09495e-13   7.39640e-10 DIIS
   @RHF iter  15:  -345.50807928879686   -5.68434e-13   2.71578e-10 DIIS
   @RHF iter  16:  -345.50807928879760   -7.38964e-13   1.11740e-10 DIIS
   @RHF iter  17:  -345.50807928879715    4.54747e-13   4.93788e-11 DIIS
  Energy and wave function converged.

  ==> Post-Iterations <==

    Orbital Energies [Eh]
    ---------------------

    Doubly Occupied:

       1A    -20.263590     2A    -20.260908     3A    -11.118741
       4A    -11.088061     5A    -11.084661     6A    -11.062389
       7A    -11.052526     8A     -1.151687     9A     -1.038943
      10A     -0.921300    11A     -0.798373    12A     -0.792594
      13A     -0.661534    14A     -0.503563    15A     -0.496715
      16A     -0.464556    17A     -0.416588    18A     -0.414621
      19A     -0.409610    20A     -0.405091    21A     -0.403141
      22A     -0.344368    23A     -0.343230    24A     -0.335954
      25A     -0.331700    26A     -0.293253    27A     -0.185067
      28A     -0.175433    29A     -0.164137

    Virtual:

      30A      0.300768    31A      0.340925    32A      0.353945
      33A      0.369227    34A      0.376212    35A      0.391815
      36A      0.398949    37A      0.413561    38A      0.417078
      39A      0.434089    40A      0.479410    41A      0.493302
      42A      0.538376    43A      0.564178    44A      0.573255
      45A      0.688821    46A      0.706105    47A      0.719549
      48A      0.741399    49A      0.749919    50A      0.787761
      51A      0.818007    52A      0.840451    53A      0.861997
      54A      0.922467    55A      0.936284    56A      0.965592
      57A      0.989773    58A      1.004037    59A      1.013407
      60A      1.017566    61A      1.019609    62A      1.029128
      63A      1.035942    64A      1.043417    65A      1.046279
      66A      1.059525    67A      1.064623    68A      1.079938
      69A      1.095088    70A      1.108188    71A      1.140375
      72A      1.213946    73A      1.250146    74A      1.265058
      75A      1.280223    76A      1.332228    77A      1.361239
      78A      1.398458    79A      1.489269    80A      1.505355
      81A      1.558024    82A      1.565016    83A      1.597099
      84A      1.599875    85A      1.633840    86A      1.643692
      87A      1.676068    88A      1.689280    89A      1.708299
      90A      1.729388    91A      1.799009    92A      1.804447
      93A      1.818284    94A      1.830809    95A      1.838138
      96A      1.870892    97A      1.992273    98A      2.009978
      99A      2.021436   100A      2.052727   101A      2.057754
     102A      2.079228   103A      2.082001   104A      2.085823
     105A      2.105455   106A      2.109356   107A      2.121046
     108A      2.140853   109A      2.153851   110A      2.181263
     111A      2.184210   112A      2.193665   113A      2.222573
     114A      2.283256   115A      2.302571   116A      2.313628
     117A      2.321791   118A      2.425000   119A      2.435121
     120A      2.443224   121A      2.462412   122A      2.483116
     123A      2.510040   124A      2.607082   125A      2.643489
     126A      2.649692   127A      2.701565   128A      2.714691
     129A      2.737446   130A      2.762545   131A      2.792951
     132A      2.817839   133A      2.891106   134A      2.903395
     135A      2.918833   136A      2.925785   137A      2.953079
     138A      2.956646   139A      2.993113   140A      3.078292
     141A      3.104941   142A      3.142358   143A      3.238735
     144A      3.272117   145A      3.304528   146A      3.316190
     147A      3.388658   148A      3.641312   149A      3.786963
     150A      3.832445   151A      4.074518   152A      4.081099
     153A      4.189772

    Final Occupation by Irrep:
              A
    DOCC [    29 ]

  @RHF Final Energy:  -345.50807928879715

   => Energetics <=

    Nuclear Repulsion Energy =            302.1891828000759119
    One-Electron Energy =               -1081.4298577754507278
    Two-Electron Energy =                 433.7325956865776106
    Total Energy =                       -345.5080792887971484

Computation Completed

Properties will be evaluated at   0.000000,   0.000000,   0.000000 [a0]

Properties computed using the SCF density matrix

  Nuclear Dipole Moment: [e a0]
     X:    -5.0290      Y:    -3.0231      Z:    10.0798

  Electronic Dipole Moment: [e a0]
     X:     3.9723      Y:     2.1698      Z:    -8.2387

  Dipole Moment: [e a0]
     X:    -1.0568      Y:    -0.8533      Z:     1.8411     Total:     2.2879

  Dipole Moment: [D]
     X:    -2.6861      Y:    -2.1688      Z:     4.6796     Total:     5.8153

*** tstop() called on ds3 at Sun Apr 26 16:57:33 2020
Module time:
	user time   =      27.34 seconds =       0.46 minutes
	system time =      10.65 seconds =       0.18 minutes
	total time  =         45 seconds =       0.75 minutes
Total time:
	user time   =      27.34 seconds =       0.46 minutes
	system time =      10.65 seconds =       0.18 minutes
	total time  =         45 seconds =       0.75 minutes
                                     G D M A

                                 by Anthony Stone

                           version 2.2.06, 22 June 2011

               Distributed Multipoles from Gaussian wavefunctions

Starting at 16:57:33 on 26 Apr 2020

Using SCF density matrix from file ./SSI/SSI-059LYS-135ASP-1-dimer.test.16985.fchk

                         Distributed Multipole Analysis

Standard DMA

Positions and radii in angstrom
Multipole moments in atomic units, ea_0^k for rank k

C          x = -0.368695  y =  0.714273  z =  1.620781 angstrom
           Maximum rank =  0   Radius =  0.650 angstrom
                   Q00  =  -0.035722

C          x = -1.806695  y =  0.330273  z =  1.893781 angstrom
           Maximum rank =  0   Radius =  0.650 angstrom
                   Q00  =  -0.244541

C          x =  0.588305  y = -0.003727  z =  2.570781 angstrom
           Maximum rank =  0   Radius =  0.650 angstrom
                   Q00  =  -0.251619

H          x = -0.204695  y =  0.447273  z =  0.625781 angstrom
           Maximum rank =  0   Radius =  0.325 angstrom
                   Q00  =   0.136736

H          x = -0.244695  y =  1.795273  z =  1.713781 angstrom
           Maximum rank =  0   Radius =  0.325 angstrom
                   Q00  =   0.018327

H          x = -2.067695  y =  0.704273  z =  2.880781 angstrom
           Maximum rank =  0   Radius =  0.325 angstrom
                   Q00  =   0.030792

H          x = -1.900695  y = -0.756727  z =  1.897781 angstrom
           Maximum rank =  0   Radius =  0.325 angstrom
                   Q00  =   0.057627

H          x =  0.466305  y = -1.082727  z =  2.434781 angstrom
           Maximum rank =  0   Radius =  0.325 angstrom
                   Q00  =   0.067550

H          x =  1.617305  y =  0.250273  z =  2.295781 angstrom
           Maximum rank =  0   Radius =  0.325 angstrom
                   Q00  =   0.099511

H          x = -2.493755  y =  0.742078  z =  1.139881 angstrom
           Maximum rank =  0   Radius =  0.325 angstrom
                   Q00  =   0.077216

H          x =  0.396765  y =  0.264725  z =  3.620181 angstrom
           Maximum rank =  0   Radius =  0.325 angstrom
                   Q00  =   0.025845

C          x = -0.158695  y = -1.528727  z = -1.868219 angstrom
           Maximum rank =  0   Radius =  0.650 angstrom
                   Q00  =  -0.283474

C          x =  0.431305  y = -0.174727  z = -1.503219 angstrom
           Maximum rank =  0   Radius =  0.650 angstrom
                   Q00  =   0.970240

O          x = -0.104695  y =  0.860273  z = -1.966219 angstrom
           Maximum rank =  0   Radius =  0.650 angstrom
                   Q00  =  -0.928708

O          x =  1.429305  y = -0.159727  z = -0.748219 angstrom
           Maximum rank =  0   Radius =  0.650 angstrom
                   Q00  =  -0.924573

H          x = -1.203695  y = -1.553727  z = -1.553219 angstrom
           Maximum rank =  0   Radius =  0.325 angstrom
                   Q00  =   0.062961

H          x =  0.370305  y = -2.324727  z = -1.338219 angstrom
           Maximum rank =  0   Radius =  0.325 angstrom
                   Q00  =   0.050670

H          x = -0.106715  y = -1.714279  z = -2.951209 angstrom
           Maximum rank =  0   Radius =  0.325 angstrom
                   Q00  =   0.071162

Total multipoles referred to origin at
           x =   0.000000,  y =    0.000000,  z =    0.000000 angstrom
                   Q00  =  -1.000000

Finished at 16:57:33 on 26 Apr 2020

  DMA results are available in the Python driver through the
	  variable('DMA DISTRIBUTED MULTIPOLES')
  and
	  variable('DMA TOTAL MULTIPOLES')
  commands.

    Psi4 stopped on: Sunday, 26 April 2020 04:57PM
    Psi4 wall time for execution: 0:00:44.37

*** Psi4 exiting successfully. Buy a developer a beer!
