                               Psi4 1.3.2 release

  ==> Input File <==

--------------------------------------------------------------------------
import numpy as np
set {scf_type pk
basis cc-pvdz
d_convergence 10
gdma_switch   0
gdma_limit    0
gdma_origin   [ 0.0,  0.0,  0.0 ]
}
molecule test {
    units Angstrom
    0 1
    --
    0 1
    C                2.395068393374313    -0.429542351123370     0.250279579395632
    C                3.521068393374313     0.572457648876630     0.492279579395632
    C                2.652068393374313    -1.465542351123370    -0.846720420604368
    H                2.180068393374313    -0.945542351123370     1.186279579395632
    H                1.505068393374313     0.126457648876630    -0.031720420604368
    H                3.817068393374313     1.025457648876630    -0.454720420604368
    H                3.615068393374313    -1.940542351123370    -0.668720420604368
    H                4.394454393374314     0.087747648876630     0.952979579395632
    H                3.130216393374313     1.381417648876630     1.126969579395632
    H                1.870910433374313    -2.238072351123369    -0.792100420604368
    H                2.661493693374313    -1.002252351123370    -1.844350420604368
    C               -1.226931606625687    -1.170542351123370     2.009279579395633
    C               -1.306931606625687    -0.327542351123370     0.783279579395632
    C               -1.876931606625687    -0.832542351123370    -0.380720420604368
    C               -0.830931606625687     0.978457648876630     0.804279579395632
    C               -1.969931606625687    -0.032542351123370    -1.514720420604368
    C               -0.913931606625687     1.768457648876630    -0.327720420604368
    C               -1.491931606625687     1.269457648876630    -1.486720420604368
    H               -0.298931606625687    -0.953542351123370     2.541279579395633
    H               -1.181931606625687    -2.214542351123369     1.696279579395632
    H               -2.243931606625687    -1.848542351123370    -0.409720420604368
    H               -0.387931606625687     1.381457648876630     1.702279579395632
    H               -2.371931606625687    -0.441542351123370    -2.427720420604368
    H               -0.555931606625687     2.777457648876631    -0.301720420604368
    H               -1.555931606625687     1.889457648876630    -2.371720420604368
    H               -2.083800606625687    -1.020992351123370     2.682639579395632

}
e, wfn = energy('scf', return_wfn=True)
gdma(wfn)
dmavals = variable('DMA DISTRIBUTED MULTIPOLES')
charges = np.array(dmavals)
print(charges)
np.save('SSI-052LEU-062PHE-2-dimer.npy', np.array(charges))--------------------------------------------------------------------------

*** tstart() called on ds3
*** at Tue Apr 28 14:35:43 2020

   => Loading Basis Set <=

    Name: CC-PVDZ
    Role: ORBITAL
    Keyword: BASIS
    atoms 1-3, 12-18  entry C          line   138 file /theoryfs2/ds/metcalf/miniconda2/envs/tf2gpu/share/psi4/basis/cc-pvdz.gbs
    atoms 4-11, 19-26 entry H          line    22 file /theoryfs2/ds/metcalf/miniconda2/envs/tf2gpu/share/psi4/basis/cc-pvdz.gbs

         ---------------------------------------------------------
                                   SCF
               by Justin Turney, Rob Parrish, Andy Simmonett
                          and Daniel G. A. Smith
                              RHF Reference
                        1 Threads,    500 MiB Core
         ---------------------------------------------------------

  ==> Geometry <==

    Molecular point group: c1
    Full point group: C1

    Geometry (in Angstrom), charge = 0, multiplicity = 1:

       Center              X                  Y                   Z               Mass
    ------------   -----------------  -----------------  -----------------  -----------------
         C            2.395068393374    -0.429542351123     0.250279579396    12.000000000000
         C            3.521068393374     0.572457648877     0.492279579396    12.000000000000
         C            2.652068393374    -1.465542351123    -0.846720420604    12.000000000000
         H            2.180068393374    -0.945542351123     1.186279579396     1.007825032230
         H            1.505068393374     0.126457648877    -0.031720420604     1.007825032230
         H            3.817068393374     1.025457648877    -0.454720420604     1.007825032230
         H            3.615068393374    -1.940542351123    -0.668720420604     1.007825032230
         H            4.394454393374     0.087747648877     0.952979579396     1.007825032230
         H            3.130216393374     1.381417648877     1.126969579396     1.007825032230
         H            1.870910433374    -2.238072351123    -0.792100420604     1.007825032230
         H            2.661493693374    -1.002252351123    -1.844350420604     1.007825032230
         C           -1.226931606626    -1.170542351123     2.009279579396    12.000000000000
         C           -1.306931606626    -0.327542351123     0.783279579396    12.000000000000
         C           -1.876931606626    -0.832542351123    -0.380720420604    12.000000000000
         C           -0.830931606626     0.978457648877     0.804279579396    12.000000000000
         C           -1.969931606626    -0.032542351123    -1.514720420604    12.000000000000
         C           -0.913931606626     1.768457648877    -0.327720420604    12.000000000000
         C           -1.491931606626     1.269457648877    -1.486720420604    12.000000000000
         H           -0.298931606626    -0.953542351123     2.541279579396     1.007825032230
         H           -1.181931606626    -2.214542351123     1.696279579396     1.007825032230
         H           -2.243931606626    -1.848542351123    -0.409720420604     1.007825032230
         H           -0.387931606626     1.381457648877     1.702279579396     1.007825032230
         H           -2.371931606626    -0.441542351123    -2.427720420604     1.007825032230
         H           -0.555931606626     2.777457648877    -0.301720420604     1.007825032230
         H           -1.555931606626     1.889457648877    -2.371720420604     1.007825032230
         H           -2.083800606626    -1.020992351123     2.682639579396     1.007825032230

  Running in c1 symmetry.

  Rotational constants: A =      0.05124  B =      0.02379  C =      0.02180 [cm^-1]
  Rotational constants: A =   1536.25407  B =    713.12928  C =    653.42383 [MHz]
  Nuclear repulsion =  500.140152586869704

  Charge       = 0
  Multiplicity = 1
  Electrons    = 76
  Nalpha       = 38
  Nbeta        = 38

  ==> Algorithm <==

  SCF Algorithm Type is PK.
  DIIS enabled.
  MOM disabled.
  Fractional occupation disabled.
  Guess Type is SAD.
  Energy threshold   = 1.00e-06
  Density threshold  = 1.00e-10
  Integral threshold = 0.00e+00

  ==> Primary Basis <==

  Basis Set: CC-PVDZ
    Blend: CC-PVDZ
    Number of shells: 108
    Number of basis function: 220
    Number of Cartesian functions: 230
    Spherical Harmonics?: true
    Max angular momentum: 2

  ==> Pre-Iterations <==

   -------------------------------------------------------
    Irrep   Nso     Nmo     Nalpha   Nbeta   Ndocc  Nsocc
   -------------------------------------------------------
     A        220     220       0       0       0       0
   -------------------------------------------------------
    Total     220     220      38      38      38       0
   -------------------------------------------------------

  ==> Integral Setup <==

  Using integral reordering PK algorithm.
  Sizing the integral batches needed.
  Building batch lookup table.
   Calculation information:
      Number of atoms:                  26
      Number of AO shells:             108
      Number of primitives:            300
      Number of atomic orbitals:       230
      Number of basis functions:       220

      Integral cutoff                 1.00e-12
      Number of threads:                 1

	Batch   1 pq = [       0,    9405] index = [             0,44231715] size =     44231715
	Batch   2 pq = [    9405,   13301] index = [      44231715,88464951] size =     44233236
	Batch   3 pq = [   13301,   16290] index = [      88464951,132690195] size =     44225244
	Batch   4 pq = [   16290,   18810] index = [     132690195,176917455] size =     44227260
	Batch   5 pq = [   18810,   21030] index = [     176917455,221140965] size =     44223510
	Batch   6 pq = [   21030,   23037] index = [     221140965,265363203] size =     44222238
	Batch   7 pq = [   23037,   24310] index = [     265363203,295500205] size =     30137002
  Task number: 27
  Buffer size: 11059200
  Buffer per thread: 2
  We computed 17217210 shell quartets total.
  Whereas there are 17325441 unique shell quartets.

  ==> DiskJK: Disk-Based J/K Matrices <==

    J tasked:                  Yes
    K tasked:                  Yes
    wK tasked:                  No
    Memory [MiB]:              375
    Schwarz Cutoff:          1E-12

    OpenMP threads:              1

  Minimum eigenvalue in the overlap matrix is 3.0390599718E-04.
  Using Symmetric Orthogonalization.

  SCF Guess: Superposition of Atomic Densities via on-the-fly atomic UHF.

  ==> Iterations <==

                        Total Energy        Delta E     RMS |[F,P]|

   @RHF iter SAD:  -386.96134952671042   -3.86961e+02   0.00000e+00
   @RHF iter   1:  -387.76755322453806   -8.06204e-01   2.76926e-03 DIIS
   @RHF iter   2:  -387.98847260124421   -2.20919e-01   1.16802e-03 DIIS
   @RHF iter   3:  -388.02430604775151   -3.58334e-02   2.51240e-04 DIIS
   @RHF iter   4:  -388.02719568759579   -2.88964e-03   5.45909e-05 DIIS
   @RHF iter   5:  -388.02729157565614   -9.58881e-05   1.71664e-05 DIIS
   @RHF iter   6:  -388.02730071541970   -9.13976e-06   5.01279e-06 DIIS
   @RHF iter   7:  -388.02730160129693   -8.85877e-07   1.18194e-06 DIIS
   @RHF iter   8:  -388.02730166003892   -5.87420e-08   2.82101e-07 DIIS
   @RHF iter   9:  -388.02730166644562   -6.40671e-09   1.14411e-07 DIIS
   @RHF iter  10:  -388.02730166771920   -1.27358e-09   5.34278e-08 DIIS
   @RHF iter  11:  -388.02730166814598   -4.26780e-10   2.05636e-08 DIIS
   @RHF iter  12:  -388.02730166821993   -7.39533e-11   8.15351e-09 DIIS
   @RHF iter  13:  -388.02730166823108   -1.11413e-11   3.05079e-09 DIIS
   @RHF iter  14:  -388.02730166822852    2.55795e-12   8.61000e-10 DIIS
   @RHF iter  15:  -388.02730166822886   -3.41061e-13   3.51225e-10 DIIS
   @RHF iter  16:  -388.02730166822784    1.02318e-12   1.30107e-10 DIIS
   @RHF iter  17:  -388.02730166822931   -1.47793e-12   6.13490e-11 DIIS
  Energy and wave function converged.

  ==> Post-Iterations <==

    Orbital Energies [Eh]
    ---------------------

    Doubly Occupied:

       1A    -11.238356     2A    -11.235247     3A    -11.233384
       4A    -11.230873     5A    -11.230534     6A    -11.228548
       7A    -11.227769     8A    -11.212650     9A    -11.210670
      10A    -11.208624    11A     -1.156830    12A     -1.048164
      13A     -1.045049    14A     -1.015090    15A     -0.931833
      16A     -0.919555    17A     -0.827238    18A     -0.796767
      19A     -0.787758    20A     -0.692793    21A     -0.634214
      22A     -0.631561    23A     -0.619063    24A     -0.587655
      25A     -0.585654    26A     -0.578135    27A     -0.563532
      28A     -0.544952    29A     -0.534191    30A     -0.529323
      31A     -0.492313    32A     -0.485374    33A     -0.483070
      34A     -0.463940    35A     -0.461855    36A     -0.455153
      37A     -0.333783    38A     -0.322311

    Virtual:

      39A      0.135344    40A      0.139304    41A      0.169208
      42A      0.195754    43A      0.199007    44A      0.206955
      45A      0.234684    46A      0.239454    47A      0.249392
      48A      0.254787    49A      0.260490    50A      0.268041
      51A      0.269969    52A      0.290149    53A      0.295679
      54A      0.301471    55A      0.311208    56A      0.332377
      57A      0.366011    58A      0.378238    59A      0.379486
      60A      0.432987    61A      0.453604    62A      0.462860
      63A      0.487104    64A      0.492702    65A      0.561153
      66A      0.580234    67A      0.593039    68A      0.595867
      69A      0.607114    70A      0.625300    71A      0.627515
      72A      0.675770    73A      0.684983    74A      0.697047
      75A      0.706578    76A      0.730463    77A      0.737466
      78A      0.745023    79A      0.745987    80A      0.755843
      81A      0.769644    82A      0.775893    83A      0.784760
      84A      0.809039    85A      0.832133    86A      0.836629
      87A      0.857820    88A      0.860041    89A      0.869990
      90A      0.876176    91A      0.886227    92A      0.895052
      93A      0.897371    94A      0.902755    95A      0.906723
      96A      0.908511    97A      0.916668    98A      0.918298
      99A      0.927078   100A      0.943119   101A      0.951831
     102A      0.958066   103A      0.977017   104A      0.988071
     105A      0.996966   106A      1.012832   107A      1.042436
     108A      1.087306   109A      1.123818   110A      1.128824
     111A      1.133914   112A      1.154529   113A      1.158704
     114A      1.165497   115A      1.190196   116A      1.239137
     117A      1.239923   118A      1.251481   119A      1.262176
     120A      1.294305   121A      1.309389   122A      1.311283
     123A      1.316895   124A      1.336508   125A      1.394413
     126A      1.415310   127A      1.476219   128A      1.495158
     129A      1.507149   130A      1.519860   131A      1.544933
     132A      1.575240   133A      1.606266   134A      1.644199
     135A      1.676405   136A      1.682834   137A      1.690644
     138A      1.699883   139A      1.718606   140A      1.744263
     141A      1.749100   142A      1.764797   143A      1.795347
     144A      1.822094   145A      1.859948   146A      1.862819
     147A      1.879413   148A      1.880460   149A      1.888988
     150A      1.901002   151A      1.911356   152A      1.914667
     153A      1.922544   154A      1.930489   155A      1.937150
     156A      1.946904   157A      1.950626   158A      1.960531
     159A      1.967762   160A      1.968530   161A      1.984292
     162A      1.995495   163A      2.008047   164A      2.011684
     165A      2.012452   166A      2.034068   167A      2.036630
     168A      2.052607   169A      2.078386   170A      2.093833
     171A      2.114867   172A      2.150848   173A      2.156062
     174A      2.159083   175A      2.165119   176A      2.177418
     177A      2.183936   178A      2.188137   179A      2.262048
     180A      2.282139   181A      2.284642   182A      2.290208
     183A      2.302158   184A      2.307553   185A      2.319200
     186A      2.328648   187A      2.342273   188A      2.356228
     189A      2.474660   190A      2.483398   191A      2.498108
     192A      2.502548   193A      2.536103   194A      2.554057
     195A      2.595936   196A      2.618676   197A      2.631879
     198A      2.653759   199A      2.748755   200A      2.761120
     201A      2.763428   202A      2.773184   203A      2.780021
     204A      2.784061   205A      2.795550   206A      2.814603
     207A      2.824550   208A      2.849919   209A      2.878388
     210A      2.926988   211A      2.959537   212A      2.983473
     213A      3.000451   214A      3.023349   215A      3.046031
     216A      3.114196   217A      3.162023   218A      3.214292
     219A      3.314008   220A      3.993746

    Final Occupation by Irrep:
              A
    DOCC [    38 ]

  @RHF Final Energy:  -388.02730166822931

   => Energetics <=

    Nuclear Repulsion Energy =            500.1401525868697036
    One-Electron Energy =               -1514.7672852721252639
    Two-Electron Energy =                 626.5998310170263039
    Total Energy =                       -388.0273016682292564

Computation Completed

Properties will be evaluated at   0.000000,   0.000000,   0.000000 [a0]

Properties computed using the SCF density matrix

  Nuclear Dipole Moment: [e a0]
     X:    11.7128      Y:    -3.6900      Z:     2.4245

  Electronic Dipole Moment: [e a0]
     X:   -11.8250      Y:     3.6502      Z:    -2.3379

  Dipole Moment: [e a0]
     X:    -0.1123      Y:    -0.0398      Z:     0.0866     Total:     0.1473

  Dipole Moment: [D]
     X:    -0.2854      Y:    -0.1011      Z:     0.2202     Total:     0.3744

*** tstop() called on ds3 at Tue Apr 28 14:38:37 2020
Module time:
	user time   =     128.01 seconds =       2.13 minutes
	system time =      45.93 seconds =       0.77 minutes
	total time  =        174 seconds =       2.90 minutes
Total time:
	user time   =     128.01 seconds =       2.13 minutes
	system time =      45.93 seconds =       0.77 minutes
	total time  =        174 seconds =       2.90 minutes
                                     G D M A

                                 by Anthony Stone

                           version 2.2.06, 22 June 2011

               Distributed Multipoles from Gaussian wavefunctions

Starting at 14:38:37 on 28 Apr 2020

Using SCF density matrix from file ./SSI/SSI-052LEU-062PHE-2-dimer.test.2373.fchk

                         Distributed Multipole Analysis

Standard DMA

Positions and radii in angstrom
Multipole moments in atomic units, ea_0^k for rank k

C          x =  2.395068  y = -0.429542  z =  0.250280 angstrom
           Maximum rank =  0   Radius =  0.650 angstrom
                   Q00  =  -0.061470

C          x =  3.521068  y =  0.572458  z =  0.492280 angstrom
           Maximum rank =  0   Radius =  0.650 angstrom
                   Q00  =  -0.246973

C          x =  2.652068  y = -1.465542  z = -0.846720 angstrom
           Maximum rank =  0   Radius =  0.650 angstrom
                   Q00  =  -0.256154

H          x =  2.180068  y = -0.945542  z =  1.186280 angstrom
           Maximum rank =  0   Radius =  0.325 angstrom
                   Q00  =   0.036821

H          x =  1.505068  y =  0.126458  z = -0.031720 angstrom
           Maximum rank =  0   Radius =  0.325 angstrom
                   Q00  =   0.061085

H          x =  3.817068  y =  1.025458  z = -0.454720 angstrom
           Maximum rank =  0   Radius =  0.325 angstrom
                   Q00  =   0.074734

H          x =  3.615068  y = -1.940542  z = -0.668720 angstrom
           Maximum rank =  0   Radius =  0.325 angstrom
                   Q00  =   0.068804

H          x =  4.394454  y =  0.087748  z =  0.952980 angstrom
           Maximum rank =  0   Radius =  0.325 angstrom
                   Q00  =   0.077310

H          x =  3.130216  y =  1.381418  z =  1.126970 angstrom
           Maximum rank =  0   Radius =  0.325 angstrom
                   Q00  =   0.076761

H          x =  1.870910  y = -2.238072  z = -0.792100 angstrom
           Maximum rank =  0   Radius =  0.325 angstrom
                   Q00  =   0.082238

H          x =  2.661494  y = -1.002252  z = -1.844350 angstrom
           Maximum rank =  0   Radius =  0.325 angstrom
                   Q00  =   0.080429

C          x = -1.226932  y = -1.170542  z =  2.009280 angstrom
           Maximum rank =  0   Radius =  0.650 angstrom
                   Q00  =  -0.195108

C          x = -1.306932  y = -0.327542  z =  0.783280 angstrom
           Maximum rank =  0   Radius =  0.650 angstrom
                   Q00  =  -0.091309

C          x = -1.876932  y = -0.832542  z = -0.380720 angstrom
           Maximum rank =  0   Radius =  0.650 angstrom
                   Q00  =  -0.083465

C          x = -0.830932  y =  0.978458  z =  0.804280 angstrom
           Maximum rank =  0   Radius =  0.650 angstrom
                   Q00  =  -0.015443

C          x = -1.969932  y = -0.032542  z = -1.514720 angstrom
           Maximum rank =  0   Radius =  0.650 angstrom
                   Q00  =  -0.085154

C          x = -0.913932  y =  1.768458  z = -0.327720 angstrom
           Maximum rank =  0   Radius =  0.650 angstrom
                   Q00  =  -0.039667

C          x = -1.491932  y =  1.269458  z = -1.486720 angstrom
           Maximum rank =  0   Radius =  0.650 angstrom
                   Q00  =  -0.081446

H          x = -0.298932  y = -0.953542  z =  2.541280 angstrom
           Maximum rank =  0   Radius =  0.325 angstrom
                   Q00  =   0.097903

H          x = -1.181932  y = -2.214542  z =  1.696280 angstrom
           Maximum rank =  0   Radius =  0.325 angstrom
                   Q00  =   0.094794

H          x = -2.243932  y = -1.848542  z = -0.409720 angstrom
           Maximum rank =  0   Radius =  0.325 angstrom
                   Q00  =   0.057559

H          x = -0.387932  y =  1.381458  z =  1.702280 angstrom
           Maximum rank =  0   Radius =  0.325 angstrom
                   Q00  =   0.054512

H          x = -2.371932  y = -0.441542  z = -2.427720 angstrom
           Maximum rank =  0   Radius =  0.325 angstrom
                   Q00  =   0.065037

H          x = -0.555932  y =  2.777458  z = -0.301720 angstrom
           Maximum rank =  0   Radius =  0.325 angstrom
                   Q00  =   0.062687

H          x = -1.555932  y =  1.889458  z = -2.371720 angstrom
           Maximum rank =  0   Radius =  0.325 angstrom
                   Q00  =   0.060588

H          x = -2.083801  y = -1.020992  z =  2.682640 angstrom
           Maximum rank =  0   Radius =  0.325 angstrom
                   Q00  =   0.104924

Total multipoles referred to origin at
           x =   0.000000,  y =    0.000000,  z =    0.000000 angstrom
                   Q00  =  -0.000000

Finished at 14:38:37 on 28 Apr 2020

  DMA results are available in the Python driver through the
	  variable('DMA DISTRIBUTED MULTIPOLES')
  and
	  variable('DMA TOTAL MULTIPOLES')
  commands.

    Psi4 stopped on: Tuesday, 28 April 2020 02:38PM
    Psi4 wall time for execution: 0:02:53.92

*** Psi4 exiting successfully. Buy a developer a beer!
