                               Psi4 1.3.2 release

  ==> Input File <==

--------------------------------------------------------------------------
import numpy as np
set {scf_type pk
basis cc-pvdz
d_convergence 10
gdma_switch   0
gdma_limit    0
gdma_origin   [ 0.0,  0.0,  0.0 ]
}
molecule test {
    units Angstrom
    0 1
    --
    0 1
    C                1.584540830774714     0.561857891607185     0.127615363249278
    C                2.914540830774714    -0.085142108392814     0.436615363249278
    H                0.783540830774714     0.043857891607186     0.654615363249278
    H                1.617540830774714     1.591857891607185     0.478615363249278
    H                1.391540830774714     0.576857891607185    -0.944384636750722
    H                3.033540830774714    -0.165142108392815     1.518615363249278
    H                3.701540830774714     0.569857891607185     0.067615363249278
    H                3.052920830774714    -1.068121108392815    -0.037308636750722
    C               -1.851459169225286     0.233857891607185    -0.718384636750722
    C               -2.655459169225285    -0.720142108392814     0.147615363249278
    H               -2.371459169225286     0.431857891607186    -1.657384636750722
    H               -1.719459169225286     1.172857891607185    -0.190384636750722
    H               -0.877459169225286    -0.198142108392815    -0.939384636750722
    H               -2.225459169225286    -0.711142108392814     1.149615363249278
    H               -2.593119169225286    -1.746313108392815    -0.243647636750722
    H               -3.700359169225286    -0.384357108392815     0.221271363249278

}
e, wfn = energy('scf', return_wfn=True)
gdma(wfn)
dmavals = variable('DMA DISTRIBUTED MULTIPOLES')
charges = np.array(dmavals)
print(charges)
np.save('SSI-050ILE-079VAL-1-dimer.npy', np.array(charges))--------------------------------------------------------------------------

*** tstart() called on ds3
*** at Mon Apr 27 18:11:01 2020

   => Loading Basis Set <=

    Name: CC-PVDZ
    Role: ORBITAL
    Keyword: BASIS
    atoms 1-2, 9-10  entry C          line   138 file /theoryfs2/ds/metcalf/miniconda2/envs/tf2gpu/share/psi4/basis/cc-pvdz.gbs
    atoms 3-8, 11-16 entry H          line    22 file /theoryfs2/ds/metcalf/miniconda2/envs/tf2gpu/share/psi4/basis/cc-pvdz.gbs

         ---------------------------------------------------------
                                   SCF
               by Justin Turney, Rob Parrish, Andy Simmonett
                          and Daniel G. A. Smith
                              RHF Reference
                        1 Threads,    500 MiB Core
         ---------------------------------------------------------

  ==> Geometry <==

    Molecular point group: c1
    Full point group: C1

    Geometry (in Angstrom), charge = 0, multiplicity = 1:

       Center              X                  Y                   Z               Mass
    ------------   -----------------  -----------------  -----------------  -----------------
         C            1.584540830775     0.561857891607     0.127615363249    12.000000000000
         C            2.914540830775    -0.085142108393     0.436615363249    12.000000000000
         H            0.783540830775     0.043857891607     0.654615363249     1.007825032230
         H            1.617540830775     1.591857891607     0.478615363249     1.007825032230
         H            1.391540830775     0.576857891607    -0.944384636751     1.007825032230
         H            3.033540830775    -0.165142108393     1.518615363249     1.007825032230
         H            3.701540830775     0.569857891607     0.067615363249     1.007825032230
         H            3.052920830775    -1.068121108393    -0.037308636751     1.007825032230
         C           -1.851459169225     0.233857891607    -0.718384636751    12.000000000000
         C           -2.655459169225    -0.720142108393     0.147615363249    12.000000000000
         H           -2.371459169225     0.431857891607    -1.657384636751     1.007825032230
         H           -1.719459169225     1.172857891607    -0.190384636751     1.007825032230
         H           -0.877459169225    -0.198142108393    -0.939384636751     1.007825032230
         H           -2.225459169225    -0.711142108393     1.149615363249     1.007825032230
         H           -2.593119169225    -1.746313108393    -0.243647636751     1.007825032230
         H           -3.700359169225    -0.384357108393     0.221271363249     1.007825032230

  Running in c1 symmetry.

  Rotational constants: A =      0.53911  B =      0.04879  C =      0.04668 [cm^-1]
  Rotational constants: A =  16162.18722  B =   1462.66914  C =   1399.48837 [MHz]
  Nuclear repulsion =  123.057937598499947

  Charge       = 0
  Multiplicity = 1
  Electrons    = 36
  Nalpha       = 18
  Nbeta        = 18

  ==> Algorithm <==

  SCF Algorithm Type is PK.
  DIIS enabled.
  MOM disabled.
  Fractional occupation disabled.
  Guess Type is SAD.
  Energy threshold   = 1.00e-06
  Density threshold  = 1.00e-10
  Integral threshold = 0.00e+00

  ==> Primary Basis <==

  Basis Set: CC-PVDZ
    Blend: CC-PVDZ
    Number of shells: 60
    Number of basis function: 116
    Number of Cartesian functions: 120
    Spherical Harmonics?: true
    Max angular momentum: 2

  ==> Pre-Iterations <==

   -------------------------------------------------------
    Irrep   Nso     Nmo     Nalpha   Nbeta   Ndocc  Nsocc
   -------------------------------------------------------
     A        116     116       0       0       0       0
   -------------------------------------------------------
    Total     116     116      18      18      18       0
   -------------------------------------------------------

  ==> Integral Setup <==

  Using integral reordering PK algorithm.
  Sizing the integral batches needed.
  Building batch lookup table.
   Calculation information:
      Number of atoms:                  16
      Number of AO shells:              60
      Number of primitives:            148
      Number of atomic orbitals:       120
      Number of basis functions:       116

      Integral cutoff                 1.00e-12
      Number of threads:                 1

	Batch   1 pq = [       0,    6786] index = [             0,23028291] size =     23028291
  Task number: 3
  Buffer size: 11059200
  Buffer per thread: 2
  We computed 1428688 shell quartets total.
  Whereas there are 1675365 unique shell quartets.

  ==> DiskJK: Disk-Based J/K Matrices <==

    J tasked:                  Yes
    K tasked:                  Yes
    wK tasked:                  No
    Memory [MiB]:              375
    Schwarz Cutoff:          1E-12

    OpenMP threads:              1

  Minimum eigenvalue in the overlap matrix is 6.7423712684E-03.
  Using Symmetric Orthogonalization.

  SCF Guess: Superposition of Atomic Densities via on-the-fly atomic UHF.

  ==> Iterations <==

                        Total Energy        Delta E     RMS |[F,P]|

   @RHF iter SAD:  -157.41831006043617   -1.57418e+02   0.00000e+00
   @RHF iter   1:  -158.30190405747152   -8.83594e-01   4.26009e-03 DIIS
   @RHF iter   2:  -158.43779737554621   -1.35893e-01   1.81764e-03 DIIS
   @RHF iter   3:  -158.46171615087616   -2.39188e-02   3.53097e-04 DIIS
   @RHF iter   4:  -158.46358276492796   -1.86661e-03   3.95153e-05 DIIS
   @RHF iter   5:  -158.46360713377305   -2.43688e-05   7.07028e-06 DIIS
   @RHF iter   6:  -158.46360782833085   -6.94558e-07   1.42955e-06 DIIS
   @RHF iter   7:  -158.46360784718104   -1.88502e-08   3.16129e-07 DIIS
   @RHF iter   8:  -158.46360784816719   -9.86148e-10   3.83641e-08 DIIS
   @RHF iter   9:  -158.46360784819132   -2.41300e-11   7.01200e-09 DIIS
   @RHF iter  10:  -158.46360784819174   -4.26326e-13   1.88391e-09 DIIS
   @RHF iter  11:  -158.46360784819211   -3.69482e-13   5.68564e-10 DIIS
   @RHF iter  12:  -158.46360784819183    2.84217e-13   1.40689e-10 DIIS
   @RHF iter  13:  -158.46360784819146    3.69482e-13   2.13434e-11 DIIS
  Energy and wave function converged.

  ==> Post-Iterations <==

    Orbital Energies [Eh]
    ---------------------

    Doubly Occupied:

       1A    -11.217506     2A    -11.216517     3A    -11.215287
       4A    -11.212666     5A     -1.024031     6A     -1.019119
       7A     -0.839744     8A     -0.831588     9A     -0.604834
      10A     -0.602747    11A     -0.598031    12A     -0.592700
      13A     -0.509145    14A     -0.498545    15A     -0.490291
      16A     -0.485627    17A     -0.481959    18A     -0.474018

    Virtual:

      19A      0.174547    20A      0.196632    21A      0.223889
      22A      0.232814    23A      0.247833    24A      0.253570
      25A      0.268468    26A      0.274532    27A      0.281414
      28A      0.288127    29A      0.318420    30A      0.332010
      31A      0.394152    32A      0.406702    33A      0.567365
      34A      0.601223    35A      0.602337    36A      0.604572
      37A      0.618278    38A      0.625752    39A      0.677633
      40A      0.690169    41A      0.702300    42A      0.803936
      43A      0.845978    44A      0.875887    45A      0.885217
      46A      0.888782    47A      0.894295    48A      0.897636
      49A      0.902494    50A      0.909118    51A      0.915352
      52A      0.925376    53A      0.943673    54A      0.950005
      55A      0.977495    56A      1.000856    57A      1.121104
      58A      1.124266    59A      1.131238    60A      1.177970
      61A      1.233587    62A      1.253523    63A      1.464559
      64A      1.474986    65A      1.486725    66A      1.494095
      67A      1.577817    68A      1.595122    69A      1.682159
      70A      1.685237    71A      1.692419    72A      1.705238
      73A      1.857008    74A      1.861638    75A      1.883778
      76A      1.886418    77A      1.903041    78A      1.908927
      79A      1.938908    80A      1.939617    81A      1.947866
      82A      1.949541    83A      1.954423    84A      1.964027
      85A      1.968400    86A      1.977779    87A      1.991947
      88A      2.026984    89A      2.098994    90A      2.121299
      91A      2.143311    92A      2.153317    93A      2.299530
      94A      2.306629    95A      2.315863    96A      2.336143
      97A      2.446583    98A      2.452805    99A      2.459747
     100A      2.485530   101A      2.565744   102A      2.580526
     103A      2.585796   104A      2.592145   105A      2.760155
     106A      2.768928   107A      2.789665   108A      2.798564
     109A      2.843305   110A      2.861605   111A      2.863653
     112A      2.869394   113A      2.941607   114A      2.956733
     115A      2.976772   116A      2.989469

    Final Occupation by Irrep:
              A
    DOCC [    18 ]

  @RHF Final Energy:  -158.46360784819146

   => Energetics <=

    Nuclear Repulsion Energy =            123.0579375984999473
    One-Electron Energy =                -455.2143758715650392
    Two-Electron Energy =                 173.6928304248736197
    Total Energy =                       -158.4636078481914581

Computation Completed

Properties will be evaluated at   0.000000,   0.000000,   0.000000 [a0]

Properties computed using the SCF density matrix

  Nuclear Dipole Moment: [e a0]
     X:     0.0875      Y:     0.1068      Z:     0.0730

  Electronic Dipole Moment: [e a0]
     X:    -0.0582      Y:    -0.0788      Z:    -0.0691

  Dipole Moment: [e a0]
     X:     0.0293      Y:     0.0280      Z:     0.0039     Total:     0.0407

  Dipole Moment: [D]
     X:     0.0745      Y:     0.0712      Z:     0.0099     Total:     0.1035

*** tstop() called on ds3 at Mon Apr 27 18:11:13 2020
Module time:
	user time   =       7.97 seconds =       0.13 minutes
	system time =       2.94 seconds =       0.05 minutes
	total time  =         12 seconds =       0.20 minutes
Total time:
	user time   =       7.97 seconds =       0.13 minutes
	system time =       2.94 seconds =       0.05 minutes
	total time  =         12 seconds =       0.20 minutes
                                     G D M A

                                 by Anthony Stone

                           version 2.2.06, 22 June 2011

               Distributed Multipoles from Gaussian wavefunctions

Starting at 18:11:13 on 27 Apr 2020

Using SCF density matrix from file ./SSI/SSI-050ILE-079VAL-1-dimer.test.18962.fchk

                         Distributed Multipole Analysis

Standard DMA

Positions and radii in angstrom
Multipole moments in atomic units, ea_0^k for rank k

C          x =  1.584541  y =  0.561858  z =  0.127615 angstrom
           Maximum rank =  0   Radius =  0.650 angstrom
                   Q00  =  -0.228942

C          x =  2.914541  y = -0.085142  z =  0.436615 angstrom
           Maximum rank =  0   Radius =  0.650 angstrom
                   Q00  =  -0.233037

H          x =  0.783541  y =  0.043858  z =  0.654615 angstrom
           Maximum rank =  0   Radius =  0.325 angstrom
                   Q00  =   0.076206

H          x =  1.617541  y =  1.591858  z =  0.478615 angstrom
           Maximum rank =  0   Radius =  0.325 angstrom
                   Q00  =   0.077306

H          x =  1.391541  y =  0.576858  z = -0.944385 angstrom
           Maximum rank =  0   Radius =  0.325 angstrom
                   Q00  =   0.078440

H          x =  3.033541  y = -0.165142  z =  1.518615 angstrom
           Maximum rank =  0   Radius =  0.325 angstrom
                   Q00  =   0.077692

H          x =  3.701541  y =  0.569858  z =  0.067615 angstrom
           Maximum rank =  0   Radius =  0.325 angstrom
                   Q00  =   0.074092

H          x =  3.052921  y = -1.068121  z = -0.037309 angstrom
           Maximum rank =  0   Radius =  0.325 angstrom
                   Q00  =   0.078711

C          x = -1.851459  y =  0.233858  z = -0.718385 angstrom
           Maximum rank =  0   Radius =  0.650 angstrom
                   Q00  =  -0.223609

C          x = -2.655459  y = -0.720142  z =  0.147615 angstrom
           Maximum rank =  0   Radius =  0.650 angstrom
                   Q00  =  -0.241136

H          x = -2.371459  y =  0.431858  z = -1.657385 angstrom
           Maximum rank =  0   Radius =  0.325 angstrom
                   Q00  =   0.075622

H          x = -1.719459  y =  1.172858  z = -0.190385 angstrom
           Maximum rank =  0   Radius =  0.325 angstrom
                   Q00  =   0.076775

H          x = -0.877459  y = -0.198142  z = -0.939385 angstrom
           Maximum rank =  0   Radius =  0.325 angstrom
                   Q00  =   0.082155

H          x = -2.225459  y = -0.711142  z =  1.149615 angstrom
           Maximum rank =  0   Radius =  0.325 angstrom
                   Q00  =   0.073630

H          x = -2.593119  y = -1.746313  z = -0.243648 angstrom
           Maximum rank =  0   Radius =  0.325 angstrom
                   Q00  =   0.077749

H          x = -3.700359  y = -0.384357  z =  0.221271 angstrom
           Maximum rank =  0   Radius =  0.325 angstrom
                   Q00  =   0.078347

Total multipoles referred to origin at
           x =   0.000000,  y =    0.000000,  z =    0.000000 angstrom
                   Q00  =  -0.000000

Finished at 18:11:13 on 27 Apr 2020

  DMA results are available in the Python driver through the
	  variable('DMA DISTRIBUTED MULTIPOLES')
  and
	  variable('DMA TOTAL MULTIPOLES')
  commands.

    Psi4 stopped on: Monday, 27 April 2020 06:11PM
    Psi4 wall time for execution: 0:00:11.57

*** Psi4 exiting successfully. Buy a developer a beer!
