                               Psi4 1.3.2 release

  ==> Input File <==

--------------------------------------------------------------------------
import numpy as np
set {scf_type pk
basis cc-pvdz
d_convergence 10
gdma_switch   0
gdma_limit    0
gdma_origin   [ 0.0,  0.0,  0.0 ]
}
molecule test {
    units Angstrom
    0 1
    --
    0 1
    C               -1.454398303933923     0.146723243836191    -3.195766156516781
    C               -0.488398303933923     0.137723243836191     0.417233843483220
    C               -0.975398303933923    -0.544276756163809    -0.728766156516780
    C               -1.006398303933923     0.405723243836191    -1.806766156516780
    C               -0.496398303933923     1.564723243836190    -1.314766156516780
    C               -0.401398303933923    -0.473276756163809     1.657233843483220
    C               -0.795398303933923    -1.796276756163810     1.763233843483220
    C               -1.396398303933923    -1.874276756163809    -0.591766156516780
    C               -1.293398303933923    -2.491276756163810     0.652233843483220
    N               -0.194398303933923     1.415723243836191     0.021233843483220
    H                0.188601696066077     2.149723243836190     0.607233843483220
    H               -0.000398303933923     0.052723243836190     2.495233843483220
    H               -0.361398303933923     2.476723243836190    -1.888766156516780
    H               -0.721398303933923    -2.303276756163810     2.715233843483220
    H               -1.802398303933923    -2.410276756163809    -1.438766156516780
    H               -1.576398303933923     1.093723243836191    -3.724766156516780
    H               -2.433398303933923    -0.322276756163810    -3.133766156516780
    H               -1.603398303933923    -3.514276756163810     0.774233843483220
    H               -0.778959303933923    -0.512876756163810    -3.760312156516781
    C                2.974601696066077     1.469723243836190     1.296233843483220
    C                4.449601696066076     1.362723243836190     1.701233843483219
    H                2.717601696066077     2.508723243836191     1.091233843483219
    H                2.808601696066078     0.885723243836191     0.389233843483220
    H                2.330601696066077     1.074723243836191     2.082233843483220
    H                5.026601696066077     1.706723243836191     0.844233843483220
    H                4.681591696066077     2.031653243836190     2.543086843483219
    H                4.743455696066077     0.321603243836190     1.900505843483220

}
e, wfn = energy('scf', return_wfn=True)
gdma(wfn)
dmavals = variable('DMA DISTRIBUTED MULTIPOLES')
charges = np.array(dmavals)
print(charges)
np.save('SSI-051TRP-093VAL-1-dimer.npy', np.array(charges))--------------------------------------------------------------------------

*** tstart() called on ds3
*** at Sun Apr 26 17:28:02 2020

   => Loading Basis Set <=

    Name: CC-PVDZ
    Role: ORBITAL
    Keyword: BASIS
    atoms 1-9, 20-21   entry C          line   138 file /theoryfs2/ds/metcalf/miniconda2/envs/tf2gpu/share/psi4/basis/cc-pvdz.gbs
    atoms 10           entry N          line   168 file /theoryfs2/ds/metcalf/miniconda2/envs/tf2gpu/share/psi4/basis/cc-pvdz.gbs
    atoms 11-19, 22-27 entry H          line    22 file /theoryfs2/ds/metcalf/miniconda2/envs/tf2gpu/share/psi4/basis/cc-pvdz.gbs

         ---------------------------------------------------------
                                   SCF
               by Justin Turney, Rob Parrish, Andy Simmonett
                          and Daniel G. A. Smith
                              RHF Reference
                        1 Threads,    500 MiB Core
         ---------------------------------------------------------

  ==> Geometry <==

    Molecular point group: c1
    Full point group: C1

    Geometry (in Angstrom), charge = 0, multiplicity = 1:

       Center              X                  Y                   Z               Mass
    ------------   -----------------  -----------------  -----------------  -----------------
         C           -1.454398303934     0.146723243836    -3.195766156517    12.000000000000
         C           -0.488398303934     0.137723243836     0.417233843483    12.000000000000
         C           -0.975398303934    -0.544276756164    -0.728766156517    12.000000000000
         C           -1.006398303934     0.405723243836    -1.806766156517    12.000000000000
         C           -0.496398303934     1.564723243836    -1.314766156517    12.000000000000
         C           -0.401398303934    -0.473276756164     1.657233843483    12.000000000000
         C           -0.795398303934    -1.796276756164     1.763233843483    12.000000000000
         C           -1.396398303934    -1.874276756164    -0.591766156517    12.000000000000
         C           -1.293398303934    -2.491276756164     0.652233843483    12.000000000000
         N           -0.194398303934     1.415723243836     0.021233843483    14.003074004430
         H            0.188601696066     2.149723243836     0.607233843483     1.007825032230
         H           -0.000398303934     0.052723243836     2.495233843483     1.007825032230
         H           -0.361398303934     2.476723243836    -1.888766156517     1.007825032230
         H           -0.721398303934    -2.303276756164     2.715233843483     1.007825032230
         H           -1.802398303934    -2.410276756164    -1.438766156517     1.007825032230
         H           -1.576398303934     1.093723243836    -3.724766156517     1.007825032230
         H           -2.433398303934    -0.322276756164    -3.133766156517     1.007825032230
         H           -1.603398303934    -3.514276756164     0.774233843483     1.007825032230
         H           -0.778959303934    -0.512876756164    -3.760312156517     1.007825032230
         C            2.974601696066     1.469723243836     1.296233843483    12.000000000000
         C            4.449601696066     1.362723243836     1.701233843483    12.000000000000
         H            2.717601696066     2.508723243836     1.091233843483     1.007825032230
         H            2.808601696066     0.885723243836     0.389233843483     1.007825032230
         H            2.330601696066     1.074723243836     2.082233843483     1.007825032230
         H            5.026601696066     1.706723243836     0.844233843483     1.007825032230
         H            4.681591696066     2.031653243836     2.543086843483     1.007825032230
         H            4.743455696066     0.321603243836     1.900505843483     1.007825032230

  Running in c1 symmetry.

  Rotational constants: A =      0.03621  B =      0.01902  C =      0.01394 [cm^-1]
  Rotational constants: A =   1085.63859  B =    570.29864  C =    417.85220 [MHz]
  Nuclear repulsion =  653.340225270217957

  Charge       = 0
  Multiplicity = 1
  Electrons    = 88
  Nalpha       = 44
  Nbeta        = 44

  ==> Algorithm <==

  SCF Algorithm Type is PK.
  DIIS enabled.
  MOM disabled.
  Fractional occupation disabled.
  Guess Type is SAD.
  Energy threshold   = 1.00e-06
  Density threshold  = 1.00e-10
  Integral threshold = 0.00e+00

  ==> Primary Basis <==

  Basis Set: CC-PVDZ
    Blend: CC-PVDZ
    Number of shells: 117
    Number of basis function: 243
    Number of Cartesian functions: 255
    Spherical Harmonics?: true
    Max angular momentum: 2

  ==> Pre-Iterations <==

   -------------------------------------------------------
    Irrep   Nso     Nmo     Nalpha   Nbeta   Ndocc  Nsocc
   -------------------------------------------------------
     A        243     243       0       0       0       0
   -------------------------------------------------------
    Total     243     243      44      44      44       0
   -------------------------------------------------------

  ==> Integral Setup <==

  Using integral reordering PK algorithm.
  Sizing the integral batches needed.
  Building batch lookup table.
   Calculation information:
      Number of atoms:                  27
      Number of AO shells:             117
      Number of primitives:            339
      Number of atomic orbitals:       255
      Number of basis functions:       243

      Integral cutoff                 1.00e-12
      Number of threads:                 1

	Batch   1 pq = [       0,    9405] index = [             0,44231715] size =     44231715
	Batch   2 pq = [    9405,   13301] index = [      44231715,88464951] size =     44233236
	Batch   3 pq = [   13301,   16290] index = [      88464951,132690195] size =     44225244
	Batch   4 pq = [   16290,   18810] index = [     132690195,176917455] size =     44227260
	Batch   5 pq = [   18810,   21030] index = [     176917455,221140965] size =     44223510
	Batch   6 pq = [   21030,   23037] index = [     221140965,265363203] size =     44222238
	Batch   7 pq = [   23037,   24883] index = [     265363203,309594286] size =     44231083
	Batch   8 pq = [   24883,   26601] index = [     309594286,353819901] size =     44225615
	Batch   9 pq = [   26601,   28214] index = [     353819901,398029005] size =     44209104
	Batch  10 pq = [   28214,   29646] index = [     398029005,439457481] size =     41428476
  Task number: 40
  Buffer size: 11059200
  Buffer per thread: 2
  We computed 21274296 shell quartets total.
  Whereas there are 23829156 unique shell quartets.

  ==> DiskJK: Disk-Based J/K Matrices <==

    J tasked:                  Yes
    K tasked:                  Yes
    wK tasked:                  No
    Memory [MiB]:              375
    Schwarz Cutoff:          1E-12

    OpenMP threads:              1

  Minimum eigenvalue in the overlap matrix is 2.4412890487E-04.
  Using Symmetric Orthogonalization.

  SCF Guess: Superposition of Atomic Densities via on-the-fly atomic UHF.

  ==> Iterations <==

                        Total Energy        Delta E     RMS |[F,P]|

   @RHF iter SAD:  -479.07062380036712   -4.79071e+02   0.00000e+00
   @RHF iter   1:  -479.48896095457962   -4.18337e-01   2.61081e-03 DIIS
   @RHF iter   2:  -479.72157213049911   -2.32611e-01   1.16592e-03 DIIS
   @RHF iter   3:  -479.76388333298570   -4.23112e-02   3.05557e-04 DIIS
   @RHF iter   4:  -479.76772885022405   -3.84552e-03   1.41237e-04 DIIS
   @RHF iter   5:  -479.76839306911648   -6.64219e-04   1.99552e-05 DIIS
   @RHF iter   6:  -479.76842224686800   -2.91778e-05   9.16420e-06 DIIS
   @RHF iter   7:  -479.76842811105450   -5.86419e-06   3.77203e-06 DIIS
   @RHF iter   8:  -479.76842969877993   -1.58773e-06   1.45973e-06 DIIS
   @RHF iter   9:  -479.76843000052520   -3.01745e-07   6.38232e-07 DIIS
   @RHF iter  10:  -479.76843005989411   -5.93689e-08   2.93211e-07 DIIS
   @RHF iter  11:  -479.76843007512673   -1.52326e-08   1.13506e-07 DIIS
   @RHF iter  12:  -479.76843007739888   -2.27215e-09   3.68274e-08 DIIS
   @RHF iter  13:  -479.76843007755883   -1.59957e-10   9.53455e-09 DIIS
   @RHF iter  14:  -479.76843007757640   -1.75646e-11   3.65728e-09 DIIS
   @RHF iter  15:  -479.76843007757901   -2.61480e-12   1.81617e-09 DIIS
   @RHF iter  16:  -479.76843007757566    3.35376e-12   9.45627e-10 DIIS
   @RHF iter  17:  -479.76843007757543    2.27374e-13   3.49165e-10 DIIS
   @RHF iter  18:  -479.76843007757304    2.38742e-12   1.56938e-10 DIIS
   @RHF iter  19:  -479.76843007757736   -4.32010e-12   5.11670e-11 DIIS
  Energy and wave function converged.

  ==> Post-Iterations <==

    Orbital Energies [Eh]
    ---------------------

    Doubly Occupied:

       1A    -15.598988     2A    -11.262671     3A    -11.262216
       4A    -11.230264     5A    -11.228475     6A    -11.226588
       7A    -11.224551     8A    -11.222096     9A    -11.221449
      10A    -11.219680    11A    -11.219092    12A    -11.215320
      13A     -1.293045    14A     -1.127416    15A     -1.074709
      16A     -1.020705    17A     -0.997264    18A     -0.987139
      19A     -0.931097    20A     -0.841956    21A     -0.838192
      22A     -0.803198    23A     -0.751468    24A     -0.718260
      25A     -0.662377    26A     -0.642722    27A     -0.603642
      28A     -0.602569    29A     -0.598876    30A     -0.591183
      31A     -0.589480    32A     -0.567879    33A     -0.552558
      34A     -0.537831    35A     -0.527456    36A     -0.502913
      37A     -0.494617    38A     -0.492416    39A     -0.485638
      40A     -0.469705    41A     -0.460219    42A     -0.370913
      43A     -0.294243    44A     -0.274780

    Virtual:

      45A      0.126153    46A      0.169328    47A      0.172230
      48A      0.189542    49A      0.192797    50A      0.201867
      51A      0.223242    52A      0.226543    53A      0.230817
      54A      0.250913    55A      0.255771    56A      0.268610
      57A      0.274283    58A      0.277234    59A      0.283933
      60A      0.291590    61A      0.292094    62A      0.334515
      63A      0.377066    64A      0.388136    65A      0.389472
      66A      0.411354    67A      0.427227    68A      0.444809
      69A      0.476358    70A      0.483447    71A      0.503771
      72A      0.513677    73A      0.590704    74A      0.593062
      75A      0.596630    76A      0.606578    77A      0.619633
      78A      0.632704    79A      0.640338    80A      0.666442
      81A      0.674623    82A      0.686527    83A      0.705149
      84A      0.710748    85A      0.722826    86A      0.733550
      87A      0.743679    88A      0.745372    89A      0.746949
      90A      0.760336    91A      0.770561    92A      0.779536
      93A      0.792792    94A      0.799904    95A      0.806627
      96A      0.821541    97A      0.847731    98A      0.870097
      99A      0.876121   100A      0.881454   101A      0.889884
     102A      0.890302   103A      0.893329   104A      0.901261
     105A      0.903110   106A      0.904693   107A      0.914582
     108A      0.916470   109A      0.948333   110A      0.951090
     111A      0.959593   112A      0.969093   113A      0.983892
     114A      0.987157   115A      0.998918   116A      1.023503
     117A      1.060245   118A      1.095340   119A      1.117340
     120A      1.117808   121A      1.122896   122A      1.132831
     123A      1.139026   124A      1.155584   125A      1.163914
     126A      1.170153   127A      1.210935   128A      1.222077
     129A      1.227333   130A      1.246119   131A      1.251754
     132A      1.260249   133A      1.286797   134A      1.295602
     135A      1.314267   136A      1.331712   137A      1.332574
     138A      1.364819   139A      1.374981   140A      1.402691
     141A      1.445039   142A      1.464608   143A      1.480190
     144A      1.528889   145A      1.565340   146A      1.579411
     147A      1.593721   148A      1.599078   149A      1.631915
     150A      1.645602   151A      1.655261   152A      1.677111
     153A      1.684980   154A      1.690297   155A      1.694341
     156A      1.741269   157A      1.766800   158A      1.776913
     159A      1.790687   160A      1.804986   161A      1.824804
     162A      1.832073   163A      1.861264   164A      1.868965
     165A      1.888697   166A      1.889967   167A      1.897944
     168A      1.907448   169A      1.910489   170A      1.929102
     171A      1.934348   172A      1.938306   173A      1.946851
     174A      1.950264   175A      1.951641   176A      1.958557
     177A      1.968506   178A      1.983223   179A      2.005391
     180A      2.013129   181A      2.021112   182A      2.040581
     183A      2.053648   184A      2.075922   185A      2.084284
     186A      2.094563   187A      2.102478   188A      2.104682
     189A      2.123103   190A      2.124640   191A      2.127645
     192A      2.148732   193A      2.163372   194A      2.175128
     195A      2.183249   196A      2.227520   197A      2.242845
     198A      2.289138   199A      2.296148   200A      2.309988
     201A      2.322310   202A      2.330274   203A      2.340650
     204A      2.360948   205A      2.396372   206A      2.425060
     207A      2.444796   208A      2.455689   209A      2.465630
     210A      2.472772   211A      2.538270   212A      2.556660
     213A      2.572934   214A      2.597127   215A      2.620021
     216A      2.646387   217A      2.666661   218A      2.691606
     219A      2.700523   220A      2.756738   221A      2.773237
     222A      2.776634   223A      2.781042   224A      2.804213
     225A      2.817897   226A      2.827987   227A      2.840256
     228A      2.862358   229A      2.879877   230A      2.883532
     231A      2.910704   232A      2.934691   233A      2.966617
     234A      2.976927   235A      3.042613   236A      3.055696
     237A      3.085524   238A      3.127882   239A      3.210624
     240A      3.317028   241A      3.387034   242A      3.748221
     243A      3.960303

    Final Occupation by Irrep:
              A
    DOCC [    44 ]

  @RHF Final Energy:  -479.76843007757736

   => Energetics <=

    Nuclear Repulsion Energy =            653.3402252702179567
    One-Electron Energy =               -1944.5416005713477716
    Two-Electron Energy =                 811.4329452235523377
    Total Energy =                       -479.7684300775773636

Computation Completed

Properties will be evaluated at   0.000000,   0.000000,   0.000000 [a0]

Properties computed using the SCF density matrix

  Nuclear Dipole Moment: [e a0]
     X:    12.3933      Y:     4.9073      Z:     1.4025

  Electronic Dipole Moment: [e a0]
     X:   -12.1267      Y:    -4.1934      Z:    -1.3812

  Dipole Moment: [e a0]
     X:     0.2666      Y:     0.7139      Z:     0.0213     Total:     0.7624

  Dipole Moment: [D]
     X:     0.6776      Y:     1.8147      Z:     0.0541     Total:     1.9378

*** tstop() called on ds3 at Sun Apr 26 17:35:06 2020
Module time:
	user time   =     177.50 seconds =       2.96 minutes
	system time =      72.14 seconds =       1.20 minutes
	total time  =        424 seconds =       7.07 minutes
Total time:
	user time   =     177.50 seconds =       2.96 minutes
	system time =      72.14 seconds =       1.20 minutes
	total time  =        424 seconds =       7.07 minutes
                                     G D M A

                                 by Anthony Stone

                           version 2.2.06, 22 June 2011

               Distributed Multipoles from Gaussian wavefunctions

Starting at 17:35:6 on 26 Apr 2020

Using SCF density matrix from file ./SSI/SSI-051TRP-093VAL-1-dimer.test.18610.fchk

                         Distributed Multipole Analysis

Standard DMA

Positions and radii in angstrom
Multipole moments in atomic units, ea_0^k for rank k

C          x = -1.454398  y =  0.146723  z = -3.195766 angstrom
           Maximum rank =  0   Radius =  0.650 angstrom
                   Q00  =  -0.203970

C          x = -0.488398  y =  0.137723  z =  0.417234 angstrom
           Maximum rank =  0   Radius =  0.650 angstrom
                   Q00  =   0.277777

C          x = -0.975398  y = -0.544277  z = -0.728766 angstrom
           Maximum rank =  0   Radius =  0.650 angstrom
                   Q00  =  -0.055599

C          x = -1.006398  y =  0.405723  z = -1.806766 angstrom
           Maximum rank =  0   Radius =  0.650 angstrom
                   Q00  =  -0.116680

C          x = -0.496398  y =  1.564723  z = -1.314766 angstrom
           Maximum rank =  0   Radius =  0.650 angstrom
                   Q00  =   0.071953

C          x = -0.401398  y = -0.473277  z =  1.657234 angstrom
           Maximum rank =  0   Radius =  0.650 angstrom
                   Q00  =  -0.121501

C          x = -0.795398  y = -1.796277  z =  1.763234 angstrom
           Maximum rank =  0   Radius =  0.650 angstrom
                   Q00  =  -0.032044

C          x = -1.396398  y = -1.874277  z = -0.591766 angstrom
           Maximum rank =  0   Radius =  0.650 angstrom
                   Q00  =  -0.098493

C          x = -1.293398  y = -2.491277  z =  0.652234 angstrom
           Maximum rank =  0   Radius =  0.650 angstrom
                   Q00  =  -0.104878

N          x = -0.194398  y =  1.415723  z =  0.021234 angstrom
           Maximum rank =  0   Radius =  0.650 angstrom
                   Q00  =  -0.500250

H          x =  0.188602  y =  2.149723  z =  0.607234 angstrom
           Maximum rank =  0   Radius =  0.325 angstrom
                   Q00  =   0.221161

H          x = -0.000398  y =  0.052723  z =  2.495234 angstrom
           Maximum rank =  0   Radius =  0.325 angstrom
                   Q00  =   0.073234

H          x = -0.361398  y =  2.476723  z = -1.888766 angstrom
           Maximum rank =  0   Radius =  0.325 angstrom
                   Q00  =   0.100744

H          x = -0.721398  y = -2.303277  z =  2.715234 angstrom
           Maximum rank =  0   Radius =  0.325 angstrom
                   Q00  =   0.064207

H          x = -1.802398  y = -2.410277  z = -1.438766 angstrom
           Maximum rank =  0   Radius =  0.325 angstrom
                   Q00  =   0.069661

H          x = -1.576398  y =  1.093723  z = -3.724766 angstrom
           Maximum rank =  0   Radius =  0.325 angstrom
                   Q00  =   0.103081

H          x = -2.433398  y = -0.322277  z = -3.133766 angstrom
           Maximum rank =  0   Radius =  0.325 angstrom
                   Q00  =   0.097353

H          x = -1.603398  y = -3.514277  z =  0.774234 angstrom
           Maximum rank =  0   Radius =  0.325 angstrom
                   Q00  =   0.059550

H          x = -0.778959  y = -0.512877  z = -3.760312 angstrom
           Maximum rank =  0   Radius =  0.325 angstrom
                   Q00  =   0.096584

C          x =  2.974602  y =  1.469723  z =  1.296234 angstrom
           Maximum rank =  0   Radius =  0.650 angstrom
                   Q00  =  -0.252215

C          x =  4.449602  y =  1.362723  z =  1.701234 angstrom
           Maximum rank =  0   Radius =  0.650 angstrom
                   Q00  =  -0.231085

H          x =  2.717602  y =  2.508723  z =  1.091234 angstrom
           Maximum rank =  0   Radius =  0.325 angstrom
                   Q00  =   0.067740

H          x =  2.808602  y =  0.885723  z =  0.389234 angstrom
           Maximum rank =  0   Radius =  0.325 angstrom
                   Q00  =   0.093112

H          x =  2.330602  y =  1.074723  z =  2.082234 angstrom
           Maximum rank =  0   Radius =  0.325 angstrom
                   Q00  =   0.077473

H          x =  5.026602  y =  1.706723  z =  0.844234 angstrom
           Maximum rank =  0   Radius =  0.325 angstrom
                   Q00  =   0.076440

H          x =  4.681592  y =  2.031653  z =  2.543087 angstrom
           Maximum rank =  0   Radius =  0.325 angstrom
                   Q00  =   0.079492

H          x =  4.743456  y =  0.321603  z =  1.900506 angstrom
           Maximum rank =  0   Radius =  0.325 angstrom
                   Q00  =   0.087154

Total multipoles referred to origin at
           x =   0.000000,  y =    0.000000,  z =    0.000000 angstrom
                   Q00  =  -0.000000

Finished at 17:35:6 on 26 Apr 2020

  DMA results are available in the Python driver through the
	  variable('DMA DISTRIBUTED MULTIPOLES')
  and
	  variable('DMA TOTAL MULTIPOLES')
  commands.

    Psi4 stopped on: Sunday, 26 April 2020 05:35PM
    Psi4 wall time for execution: 0:07:04.49

*** Psi4 exiting successfully. Buy a developer a beer!
