                               Psi4 1.3.2 release

  ==> Input File <==

--------------------------------------------------------------------------
import numpy as np
set {scf_type pk
basis cc-pvdz
d_convergence 10
gdma_switch   0
gdma_limit    0
gdma_origin   [ 0.0,  0.0,  0.0 ]
}
molecule test {
    units Angstrom
    0 1
    --
    0 1
    C               -1.360567370489478     2.510390988437998     1.682467497353982
    C               -1.979567370489477     3.824390988437998     2.228467497353982
    C               -0.670567370489477     1.702390988437998     2.778467497353982
    C               -2.382567370489478     1.659390988437998     0.933467497353982
    H               -0.582567370489477     2.788390988437998     0.971467497353982
    H               -1.213567370489477     4.330390988437998     2.801467497353982
    H               -1.400567370489477     1.354390988437998     3.507467497353982
    H               -0.166567370489478     0.843390988437998     2.336467497353982
    H                0.071432629510522     2.325390988437998     3.279467497353982
    H               -2.745567370489478     2.193390988437998     0.056467497353982
    H               -1.907567370489478     0.738390988437998     0.601467497353982
    H               -3.221567370489478     1.400390988437998     1.579467497353982
    H               -2.844127370489478     3.652530988437998     2.886497497353982
    H               -2.237207370489477     4.482240988437997     1.385347497353982
    C                1.022432629510523     1.609390988437998    -1.170532502646018
    C                1.734432629510523     1.920390988437998    -2.490532502646018
    C                1.247432629510522     0.202390988437998    -0.680532502646018
    C                2.378432629510522    -0.297609011562002    -0.101532502646018
    C                0.319432629510522    -0.906609011562002    -0.752532502646018
    C                0.963432629510522    -2.042609011562002    -0.185532502646018
    C               -0.988567370489478    -1.057609011562002    -1.244532502646018
    C                0.346432629510522    -3.285609011562002    -0.094532502646018
    C               -1.610567370489478    -2.303609011562002    -1.139532502646018
    C               -0.948567370489477    -3.402609011562002    -0.571532502646018
    N                2.209432629510522    -1.628609011562002     0.213467497353982
    H                1.355432629510523     2.301390988437998    -0.408532502646018
    H               -0.050567370489478     1.756390988437998    -1.300532502646018
    H                2.812432629510522     1.863390988437998    -2.332532502646018
    H                3.283432629510522     0.265390988437998     0.078467497353982
    H                2.925432629510522    -2.209609011562002     0.647467497353982
    H               -1.505567370489478    -0.214609011562002    -1.676532502646018
    H                0.854432629510522    -4.125609011562003     0.353467497353982
    H               -2.623567370489478    -2.426609011562002    -1.499532502646018
    H               -1.456567370489477    -4.352609011562001    -0.492532502646018
    H                1.463582629510523     2.916520988437997    -2.870477502646018
    H                1.458362629510522     1.168180988437998    -3.244171502646018

}
e, wfn = energy('scf', return_wfn=True)
gdma(wfn)
dmavals = variable('DMA DISTRIBUTED MULTIPOLES')
charges = np.array(dmavals)
print(charges)
np.save('SSI-069VAL-073TRP-1-dimer.npy', np.array(charges))--------------------------------------------------------------------------

*** tstart() called on ds3
*** at Tue Apr 28 16:41:51 2020

   => Loading Basis Set <=

    Name: CC-PVDZ
    Role: ORBITAL
    Keyword: BASIS
    atoms 1-4, 15-24  entry C          line   138 file /theoryfs2/ds/metcalf/miniconda2/envs/tf2gpu/share/psi4/basis/cc-pvdz.gbs
    atoms 5-14, 26-36 entry H          line    22 file /theoryfs2/ds/metcalf/miniconda2/envs/tf2gpu/share/psi4/basis/cc-pvdz.gbs
    atoms 25          entry N          line   168 file /theoryfs2/ds/metcalf/miniconda2/envs/tf2gpu/share/psi4/basis/cc-pvdz.gbs

         ---------------------------------------------------------
                                   SCF
               by Justin Turney, Rob Parrish, Andy Simmonett
                          and Daniel G. A. Smith
                              RHF Reference
                        1 Threads,    500 MiB Core
         ---------------------------------------------------------

  ==> Geometry <==

    Molecular point group: c1
    Full point group: C1

    Geometry (in Angstrom), charge = 0, multiplicity = 1:

       Center              X                  Y                   Z               Mass
    ------------   -----------------  -----------------  -----------------  -----------------
         C           -1.360567370489     2.510390988438     1.682467497354    12.000000000000
         C           -1.979567370489     3.824390988438     2.228467497354    12.000000000000
         C           -0.670567370489     1.702390988438     2.778467497354    12.000000000000
         C           -2.382567370489     1.659390988438     0.933467497354    12.000000000000
         H           -0.582567370489     2.788390988438     0.971467497354     1.007825032230
         H           -1.213567370489     4.330390988438     2.801467497354     1.007825032230
         H           -1.400567370489     1.354390988438     3.507467497354     1.007825032230
         H           -0.166567370489     0.843390988438     2.336467497354     1.007825032230
         H            0.071432629511     2.325390988438     3.279467497354     1.007825032230
         H           -2.745567370489     2.193390988438     0.056467497354     1.007825032230
         H           -1.907567370489     0.738390988438     0.601467497354     1.007825032230
         H           -3.221567370489     1.400390988438     1.579467497354     1.007825032230
         H           -2.844127370489     3.652530988438     2.886497497354     1.007825032230
         H           -2.237207370489     4.482240988438     1.385347497354     1.007825032230
         C            1.022432629511     1.609390988438    -1.170532502646    12.000000000000
         C            1.734432629511     1.920390988438    -2.490532502646    12.000000000000
         C            1.247432629511     0.202390988438    -0.680532502646    12.000000000000
         C            2.378432629511    -0.297609011562    -0.101532502646    12.000000000000
         C            0.319432629511    -0.906609011562    -0.752532502646    12.000000000000
         C            0.963432629511    -2.042609011562    -0.185532502646    12.000000000000
         C           -0.988567370489    -1.057609011562    -1.244532502646    12.000000000000
         C            0.346432629511    -3.285609011562    -0.094532502646    12.000000000000
         C           -1.610567370489    -2.303609011562    -1.139532502646    12.000000000000
         C           -0.948567370489    -3.402609011562    -0.571532502646    12.000000000000
         N            2.209432629511    -1.628609011562     0.213467497354    14.003074004430
         H            1.355432629511     2.301390988438    -0.408532502646     1.007825032230
         H           -0.050567370489     1.756390988438    -1.300532502646     1.007825032230
         H            2.812432629511     1.863390988438    -2.332532502646     1.007825032230
         H            3.283432629511     0.265390988438     0.078467497354     1.007825032230
         H            2.925432629511    -2.209609011562     0.647467497354     1.007825032230
         H           -1.505567370489    -0.214609011562    -1.676532502646     1.007825032230
         H            0.854432629511    -4.125609011562     0.353467497354     1.007825032230
         H           -2.623567370489    -2.426609011562    -1.499532502646     1.007825032230
         H           -1.456567370489    -4.352609011562    -0.492532502646     1.007825032230
         H            1.463582629511     2.916520988438    -2.870477502646     1.007825032230
         H            1.458362629511     1.168180988438    -3.244171502646     1.007825032230

  Running in c1 symmetry.

  Rotational constants: A =      0.02269  B =      0.01203  C =      0.01013 [cm^-1]
  Rotational constants: A =    680.15183  B =    360.73983  C =    303.74849 [MHz]
  Nuclear repulsion =  968.945731210406848

  Charge       = 0
  Multiplicity = 1
  Electrons    = 112
  Nalpha       = 56
  Nbeta        = 56

  ==> Algorithm <==

  SCF Algorithm Type is PK.
  DIIS enabled.
  MOM disabled.
  Fractional occupation disabled.
  Guess Type is SAD.
  Energy threshold   = 1.00e-06
  Density threshold  = 1.00e-10
  Integral threshold = 0.00e+00

  ==> Primary Basis <==

  Basis Set: CC-PVDZ
    Blend: CC-PVDZ
    Number of shells: 153
    Number of basis function: 315
    Number of Cartesian functions: 330
    Spherical Harmonics?: true
    Max angular momentum: 2

  ==> Pre-Iterations <==

   -------------------------------------------------------
    Irrep   Nso     Nmo     Nalpha   Nbeta   Ndocc  Nsocc
   -------------------------------------------------------
     A        315     315       0       0       0       0
   -------------------------------------------------------
    Total     315     315      56      56      56       0
   -------------------------------------------------------

  ==> Integral Setup <==

  Using integral reordering PK algorithm.
  Sizing the integral batches needed.
  Building batch lookup table.
   Calculation information:
      Number of atoms:                  36
      Number of AO shells:             153
      Number of primitives:            435
      Number of atomic orbitals:       330
      Number of basis functions:       315

      Integral cutoff                 1.00e-12
      Number of threads:                 1

	Batch   1 pq = [       0,    9405] index = [             0,44231715] size =     44231715
	Batch   2 pq = [    9405,   13301] index = [      44231715,88464951] size =     44233236
	Batch   3 pq = [   13301,   16290] index = [      88464951,132690195] size =     44225244
	Batch   4 pq = [   16290,   18810] index = [     132690195,176917455] size =     44227260
	Batch   5 pq = [   18810,   21030] index = [     176917455,221140965] size =     44223510
	Batch   6 pq = [   21030,   23037] index = [     221140965,265363203] size =     44222238
	Batch   7 pq = [   23037,   24883] index = [     265363203,309594286] size =     44231083
	Batch   8 pq = [   24883,   26601] index = [     309594286,353819901] size =     44225615
	Batch   9 pq = [   26601,   28214] index = [     353819901,398029005] size =     44209104
	Batch  10 pq = [   28214,   29740] index = [     398029005,442248670] size =     44219665
	Batch  11 pq = [   29740,   31191] index = [     442248670,486454836] size =     44206166
	Batch  12 pq = [   31191,   32578] index = [     486454836,530679331] size =     44224495
	Batch  13 pq = [   32578,   33908] index = [     530679331,574893186] size =     44213855
	Batch  14 pq = [   33908,   35188] index = [     574893186,619115266] size =     44222080
	Batch  15 pq = [   35188,   36423] index = [     619115266,663335676] size =     44220410
	Batch  16 pq = [   36423,   37617] index = [     663335676,707538153] size =     44202477
	Batch  17 pq = [   37617,   38775] index = [     707538153,751769700] size =     44231547
	Batch  18 pq = [   38775,   39899] index = [     751769700,795985050] size =     44215350
	Batch  19 pq = [   39899,   40992] index = [     795985050,840192528] size =     44207478
	Batch  20 pq = [   40992,   42057] index = [     840192528,884416653] size =     44224125
	Batch  21 pq = [   42057,   43095] index = [     884416653,928611060] size =     44194407
	Batch  22 pq = [   43095,   44109] index = [     928611060,972823995] size =     44212935
	Batch  23 pq = [   44109,   45100] index = [     972823995,1017027550] size =     44203555
	Batch  24 pq = [   45100,   46070] index = [    1017027550,1061245485] size =     44217935
	Batch  25 pq = [   46070,   47020] index = [    1061245485,1105463710] size =     44218225
	Batch  26 pq = [   47020,   47951] index = [    1105463710,1149673176] size =     44209466
	Batch  27 pq = [   47951,   48864] index = [    1149673176,1193869680] size =     44196504
	Batch  28 pq = [   48864,   49770] index = [    1193869680,1238551335] size =     44681655
  Task number: 112
  Buffer size: 11059200
  Buffer per thread: 2
  We computed 78659434 shell quartets total.
  Whereas there are 69401871 unique shell quartets.
    13.34 percent of shell quartets recomputed by reordering.

  ==> DiskJK: Disk-Based J/K Matrices <==

    J tasked:                  Yes
    K tasked:                  Yes
    wK tasked:                  No
    Memory [MiB]:              375
    Schwarz Cutoff:          1E-12

    OpenMP threads:              1

  Minimum eigenvalue in the overlap matrix is 2.3834045142E-04.
  Using Symmetric Orthogonalization.

  SCF Guess: Superposition of Atomic Densities via on-the-fly atomic UHF.

  ==> Iterations <==

                        Total Energy        Delta E     RMS |[F,P]|

   @RHF iter SAD:  -596.01075605566552   -5.96011e+02   0.00000e+00
   @RHF iter   1:  -596.50468841941779   -4.93932e-01   2.31660e-03 DIIS
   @RHF iter   2:  -596.81519796069824   -3.10510e-01   1.03253e-03 DIIS
   @RHF iter   3:  -596.87123009828485   -5.60321e-02   2.68112e-04 DIIS
   @RHF iter   4:  -596.87627987191672   -5.04977e-03   1.23078e-04 DIIS
   @RHF iter   5:  -596.87711285508533   -8.32983e-04   1.85731e-05 DIIS
   @RHF iter   6:  -596.87714893919974   -3.60841e-05   8.23704e-06 DIIS
   @RHF iter   7:  -596.87715668321368   -7.74401e-06   3.15355e-06 DIIS
   @RHF iter   8:  -596.87715861620234   -1.93299e-06   1.39701e-06 DIIS
   @RHF iter   9:  -596.87715907742461   -4.61222e-07   6.30210e-07 DIIS
   @RHF iter  10:  -596.87715917949095   -1.02066e-07   2.72437e-07 DIIS
   @RHF iter  11:  -596.87715920125936   -2.17684e-08   1.05532e-07 DIIS
   @RHF iter  12:  -596.87715920441804   -3.15868e-09   4.37583e-08 DIIS
   @RHF iter  13:  -596.87715920471351   -2.95472e-10   1.45413e-08 DIIS
   @RHF iter  14:  -596.87715920474238   -2.88765e-11   4.04879e-09 DIIS
   @RHF iter  15:  -596.87715920474875   -6.36646e-12   1.85787e-09 DIIS
   @RHF iter  16:  -596.87715920474545    3.29692e-12   8.70023e-10 DIIS
   @RHF iter  17:  -596.87715920473647    8.98126e-12   4.33878e-10 DIIS
   @RHF iter  18:  -596.87715920475250   -1.60298e-11   1.83820e-10 DIIS
   @RHF iter  19:  -596.87715920475136    1.13687e-12   7.09196e-11 DIIS
  Energy and wave function converged.

  ==> Post-Iterations <==

    Orbital Energies [Eh]
    ---------------------

    Doubly Occupied:

       1A    -15.603905     2A    -11.266334     3A    -11.266003
       4A    -11.232729     5A    -11.231544     6A    -11.230028
       7A    -11.228267     8A    -11.224707     9A    -11.222987
      10A    -11.220217    11A    -11.219091    12A    -11.216220
      13A    -11.210833    14A    -11.204064    15A    -11.202805
      16A     -1.293947    17A     -1.127797    18A     -1.082435
      19A     -1.070801    20A     -1.015572    21A     -0.992626
      22A     -0.967256    23A     -0.920291    24A     -0.918095
      25A     -0.858750    26A     -0.839904    27A     -0.803177
      28A     -0.755805    29A     -0.747233    30A     -0.719909
      31A     -0.664797    32A     -0.644553    33A     -0.621556
      34A     -0.616865    35A     -0.595219    36A     -0.588362
      37A     -0.586195    38A     -0.581403    39A     -0.577991
      40A     -0.574203    41A     -0.547869    42A     -0.532251
      43A     -0.527622    44A     -0.518508    45A     -0.505999
      46A     -0.501476    47A     -0.499940    48A     -0.480573
      49A     -0.465277    50A     -0.462074    51A     -0.450853
      52A     -0.447721    53A     -0.445427    54A     -0.372915
      55A     -0.295878    56A     -0.275715

    Virtual:

      57A      0.123060    58A      0.167701    59A      0.171300
      60A      0.179081    61A      0.192709    62A      0.198843
      63A      0.213463    64A      0.215876    65A      0.228522
      66A      0.235305    67A      0.239101    68A      0.245054
      69A      0.254918    70A      0.262421    71A      0.264156
      72A      0.269758    73A      0.278737    74A      0.285177
      75A      0.295147    76A      0.308090    77A      0.314834
      78A      0.321075    79A      0.336472    80A      0.350337
      81A      0.368555    82A      0.382290    83A      0.395848
      84A      0.398030    85A      0.411662    86A      0.417524
      87A      0.424307    88A      0.432532    89A      0.443332
      90A      0.470312    91A      0.482698    92A      0.514227
      93A      0.520343    94A      0.566584    95A      0.579893
      96A      0.593700    97A      0.603646    98A      0.612759
      99A      0.615737   100A      0.625983   101A      0.637679
     102A      0.649353   103A      0.652051   104A      0.677648
     105A      0.696676   106A      0.715035   107A      0.718349
     108A      0.720576   109A      0.731474   110A      0.739377
     111A      0.749712   112A      0.754015   113A      0.755773
     114A      0.764738   115A      0.780563   116A      0.781949
     117A      0.786845   118A      0.790301   119A      0.791639
     120A      0.812212   121A      0.830726   122A      0.835950
     123A      0.854662   124A      0.870826   125A      0.874556
     126A      0.879870   127A      0.884756   128A      0.889363
     129A      0.894019   130A      0.898578   131A      0.900909
     132A      0.906272   133A      0.909571   134A      0.913656
     135A      0.924993   136A      0.926425   137A      0.931019
     138A      0.935802   139A      0.945298   140A      0.948993
     141A      0.956305   142A      0.966750   143A      0.967231
     144A      0.974810   145A      0.983314   146A      0.988460
     147A      0.995795   148A      1.013614   149A      1.024632
     150A      1.040915   151A      1.048555   152A      1.062787
     153A      1.079403   154A      1.091947   155A      1.107752
     156A      1.134026   157A      1.135717   158A      1.140218
     159A      1.143546   160A      1.149318   161A      1.167864
     162A      1.177620   163A      1.205053   164A      1.222459
     165A      1.228072   166A      1.238138   167A      1.241849
     168A      1.273267   169A      1.279626   170A      1.290134
     171A      1.295747   172A      1.323837   173A      1.334753
     174A      1.359020   175A      1.360728   176A      1.378978
     177A      1.388625   178A      1.411133   179A      1.420151
     180A      1.426609   181A      1.440460   182A      1.469292
     183A      1.503882   184A      1.531344   185A      1.549799
     186A      1.565812   187A      1.582495   188A      1.606388
     189A      1.638114   190A      1.645537   191A      1.651713
     192A      1.668163   193A      1.684179   194A      1.689242
     195A      1.702990   196A      1.706395   197A      1.709848
     198A      1.712958   199A      1.741276   200A      1.744147
     201A      1.745435   202A      1.759443   203A      1.777448
     204A      1.790376   205A      1.798034   206A      1.826944
     207A      1.834862   208A      1.847855   209A      1.863066
     210A      1.866633   211A      1.869113   212A      1.883261
     213A      1.884673   214A      1.896466   215A      1.906899
     216A      1.912252   217A      1.921849   218A      1.928099
     219A      1.933360   220A      1.942355   221A      1.948841
     222A      1.959831   223A      1.964586   224A      1.966387
     225A      1.975998   226A      1.981664   227A      1.983145
     228A      1.992917   229A      2.005053   230A      2.005478
     231A      2.007104   232A      2.016146   233A      2.022421
     234A      2.041683   235A      2.049137   236A      2.058783
     237A      2.068333   238A      2.078998   239A      2.082075
     240A      2.094676   241A      2.099461   242A      2.111210
     243A      2.114961   244A      2.135846   245A      2.145296
     246A      2.147614   247A      2.153141   248A      2.157454
     249A      2.163051   250A      2.170441   251A      2.190922
     252A      2.227054   253A      2.249442   254A      2.261859
     255A      2.262502   256A      2.273284   257A      2.287150
     258A      2.311614   259A      2.314991   260A      2.321263
     261A      2.332882   262A      2.346697   263A      2.351819
     264A      2.364972   265A      2.372384   266A      2.379485
     267A      2.409602   268A      2.411510   269A      2.451996
     270A      2.477799   271A      2.494001   272A      2.515583
     273A      2.544869   274A      2.566513   275A      2.577762
     276A      2.595799   277A      2.604704   278A      2.613984
     279A      2.630516   280A      2.646091   281A      2.670685
     282A      2.694338   283A      2.720461   284A      2.722434
     285A      2.745436   286A      2.764990   287A      2.769744
     288A      2.774722   289A      2.780883   290A      2.786200
     291A      2.801723   292A      2.805716   293A      2.811443
     294A      2.818613   295A      2.835003   296A      2.855978
     297A      2.857572   298A      2.890578   299A      2.903284
     300A      2.905817   301A      2.932637   302A      2.956570
     303A      3.002500   304A      3.030309   305A      3.043929
     306A      3.059220   307A      3.065615   308A      3.093584
     309A      3.124369   310A      3.128310   311A      3.210385
     312A      3.296291   313A      3.373521   314A      3.731745
     315A      3.942213

    Final Occupation by Irrep:
              A
    DOCC [    56 ]

  @RHF Final Energy:  -596.87715920475136

   => Energetics <=

    Nuclear Repulsion Energy =            968.9457312104068478
    One-Electron Energy =               -2731.0966282894578399
    Two-Electron Energy =                1165.2737378742995134
    Total Energy =                       -596.8771592047514787

Computation Completed

Properties will be evaluated at   0.000000,   0.000000,   0.000000 [a0]

Properties computed using the SCF density matrix

  Nuclear Dipole Moment: [e a0]
     X:    -7.2540      Y:    19.7395      Z:     6.2431

  Electronic Dipole Moment: [e a0]
     X:     8.0932      Y:   -19.9038      Z:    -6.0175

  Dipole Moment: [e a0]
     X:     0.8392      Y:    -0.1643      Z:     0.2256     Total:     0.8843

  Dipole Moment: [D]
     X:     2.1329      Y:    -0.4176      Z:     0.5733     Total:     2.2478

*** tstop() called on ds3 at Tue Apr 28 17:06:18 2020
Module time:
	user time   =     633.95 seconds =      10.57 minutes
	system time =     203.31 seconds =       3.39 minutes
	total time  =       1467 seconds =      24.45 minutes
Total time:
	user time   =     633.95 seconds =      10.57 minutes
	system time =     203.31 seconds =       3.39 minutes
	total time  =       1467 seconds =      24.45 minutes
                                     G D M A

                                 by Anthony Stone

                           version 2.2.06, 22 June 2011

               Distributed Multipoles from Gaussian wavefunctions

Starting at 17:6:18 on 28 Apr 2020

Using SCF density matrix from file ./SSI/SSI-069VAL-073TRP-1-dimer.test.17143.fchk

                         Distributed Multipole Analysis

Standard DMA

Positions and radii in angstrom
Multipole moments in atomic units, ea_0^k for rank k

C          x = -1.360567  y =  2.510391  z =  1.682467 angstrom
           Maximum rank =  0   Radius =  0.650 angstrom
                   Q00  =   0.023179

C          x = -1.979567  y =  3.824391  z =  2.228467 angstrom
           Maximum rank =  0   Radius =  0.650 angstrom
                   Q00  =  -0.264309

C          x = -0.670567  y =  1.702391  z =  2.778467 angstrom
           Maximum rank =  0   Radius =  0.650 angstrom
                   Q00  =  -0.245709

C          x = -2.382567  y =  1.659391  z =  0.933467 angstrom
           Maximum rank =  0   Radius =  0.650 angstrom
                   Q00  =  -0.251778

H          x = -0.582567  y =  2.788391  z =  0.971467 angstrom
           Maximum rank =  0   Radius =  0.325 angstrom
                   Q00  =   0.007249

H          x = -1.213567  y =  4.330391  z =  2.801467 angstrom
           Maximum rank =  0   Radius =  0.325 angstrom
                   Q00  =   0.078812

H          x = -1.400567  y =  1.354391  z =  3.507467 angstrom
           Maximum rank =  0   Radius =  0.325 angstrom
                   Q00  =   0.072440

H          x = -0.166567  y =  0.843391  z =  2.336467 angstrom
           Maximum rank =  0   Radius =  0.325 angstrom
                   Q00  =   0.094606

H          x =  0.071433  y =  2.325391  z =  3.279468 angstrom
           Maximum rank =  0   Radius =  0.325 angstrom
                   Q00  =   0.073726

H          x = -2.745567  y =  2.193391  z =  0.056467 angstrom
           Maximum rank =  0   Radius =  0.325 angstrom
                   Q00  =   0.072583

H          x = -1.907567  y =  0.738391  z =  0.601467 angstrom
           Maximum rank =  0   Radius =  0.325 angstrom
                   Q00  =   0.099880

H          x = -3.221567  y =  1.400391  z =  1.579467 angstrom
           Maximum rank =  0   Radius =  0.325 angstrom
                   Q00  =   0.076405

H          x = -2.844127  y =  3.652531  z =  2.886497 angstrom
           Maximum rank =  0   Radius =  0.325 angstrom
                   Q00  =   0.080542

H          x = -2.237207  y =  4.482241  z =  1.385347 angstrom
           Maximum rank =  0   Radius =  0.325 angstrom
                   Q00  =   0.079926

C          x =  1.022433  y =  1.609391  z = -1.170533 angstrom
           Maximum rank =  0   Radius =  0.650 angstrom
                   Q00  =  -0.058679

C          x =  1.734433  y =  1.920391  z = -2.490533 angstrom
           Maximum rank =  0   Radius =  0.650 angstrom
                   Q00  =  -0.231558

C          x =  1.247433  y =  0.202391  z = -0.680533 angstrom
           Maximum rank =  0   Radius =  0.650 angstrom
                   Q00  =  -0.125319

C          x =  2.378433  y = -0.297609  z = -0.101533 angstrom
           Maximum rank =  0   Radius =  0.650 angstrom
                   Q00  =   0.066428

C          x =  0.319433  y = -0.906609  z = -0.752533 angstrom
           Maximum rank =  0   Radius =  0.650 angstrom
                   Q00  =  -0.054867

C          x =  0.963433  y = -2.042609  z = -0.185533 angstrom
           Maximum rank =  0   Radius =  0.650 angstrom
                   Q00  =   0.294296

C          x = -0.988567  y = -1.057609  z = -1.244533 angstrom
           Maximum rank =  0   Radius =  0.650 angstrom
                   Q00  =  -0.102967

C          x =  0.346433  y = -3.285609  z = -0.094533 angstrom
           Maximum rank =  0   Radius =  0.650 angstrom
                   Q00  =  -0.118486

C          x = -1.610567  y = -2.303609  z = -1.139533 angstrom
           Maximum rank =  0   Radius =  0.650 angstrom
                   Q00  =  -0.087371

C          x = -0.948567  y = -3.402609  z = -0.571533 angstrom
           Maximum rank =  0   Radius =  0.650 angstrom
                   Q00  =  -0.066722

N          x =  2.209433  y = -1.628609  z =  0.213467 angstrom
           Maximum rank =  0   Radius =  0.650 angstrom
                   Q00  =  -0.501526

H          x =  1.355433  y =  2.301391  z = -0.408533 angstrom
           Maximum rank =  0   Radius =  0.325 angstrom
                   Q00  =   0.076718

H          x = -0.050567  y =  1.756391  z = -1.300533 angstrom
           Maximum rank =  0   Radius =  0.325 angstrom
                   Q00  =   0.076508

H          x =  2.812433  y =  1.863391  z = -2.332533 angstrom
           Maximum rank =  0   Radius =  0.325 angstrom
                   Q00  =   0.077249

H          x =  3.283433  y =  0.265391  z =  0.078467 angstrom
           Maximum rank =  0   Radius =  0.325 angstrom
                   Q00  =   0.100635

H          x =  2.925433  y = -2.209609  z =  0.647468 angstrom
           Maximum rank =  0   Radius =  0.325 angstrom
                   Q00  =   0.218662

H          x = -1.505567  y = -0.214609  z = -1.676533 angstrom
           Maximum rank =  0   Radius =  0.325 angstrom
                   Q00  =   0.072558

H          x =  0.854433  y = -4.125609  z =  0.353467 angstrom
           Maximum rank =  0   Radius =  0.325 angstrom
                   Q00  =   0.073729

H          x = -2.623567  y = -2.426609  z = -1.499533 angstrom
           Maximum rank =  0   Radius =  0.325 angstrom
                   Q00  =   0.061314

H          x = -1.456567  y = -4.352609  z = -0.492533 angstrom
           Maximum rank =  0   Radius =  0.325 angstrom
                   Q00  =   0.065714

H          x =  1.463583  y =  2.916521  z = -2.870478 angstrom
           Maximum rank =  0   Radius =  0.325 angstrom
                   Q00  =   0.079813

H          x =  1.458363  y =  1.168181  z = -3.244172 angstrom
           Maximum rank =  0   Radius =  0.325 angstrom
                   Q00  =   0.086321

Total multipoles referred to origin at
           x =   0.000000,  y =    0.000000,  z =    0.000000 angstrom
                   Q00  =  -0.000000

Finished at 17:6:19 on 28 Apr 2020

  DMA results are available in the Python driver through the
	  variable('DMA DISTRIBUTED MULTIPOLES')
  and
	  variable('DMA TOTAL MULTIPOLES')
  commands.

    Psi4 stopped on: Tuesday, 28 April 2020 05:06PM
    Psi4 wall time for execution: 0:24:27.72

*** Psi4 exiting successfully. Buy a developer a beer!
