                               Psi4 1.3.2 release

  ==> Input File <==

--------------------------------------------------------------------------
import numpy as np
set {scf_type pk
basis cc-pvdz
d_convergence 10
gdma_switch   0
gdma_limit    0
gdma_origin   [ 0.0,  0.0,  0.0 ]
}
molecule test {
    units Angstrom
    1 1
    --
    1 1
    C               -2.419640216093225    -2.183434431461763    -0.629525408523503
    C               -1.234640216093225    -1.666434431461764    -1.452525408523503
    O               -0.366640216093225    -0.929434431461763    -0.963525408523503
    N               -1.220640216093225    -2.024434431461763    -2.730525408523503
    H               -2.697640216093225    -3.178434431461764    -0.979525408523503
    H               -3.262640216093225    -1.532434431461763    -0.838525408523503
    H               -0.508640216093225    -1.638434431461763    -3.340525408523503
    H               -1.948640216093225    -2.624434431461764    -3.098525408523503
    H               -2.215500216093225    -2.210124431461764     0.451036591476497
    C                0.636359783906775     0.129565568538236     2.706474591476496
    C                1.137359783906775     1.661565568538237     0.797474591476497
    N                0.558359783906775     0.582565568538237     1.307474591476497
    N                1.861359783906775     2.481565568538236     1.523474591476497
    N                1.004359783906775     1.900565568538237    -0.481525408523503
    H                0.074359783906775    -0.013434431461764     0.639474591476497
    H                1.553359783906775     0.481565568538237     3.183474591476497
    H                0.666359783906775    -0.962434431461764     2.721474591476497
    H                1.970359783906775     2.329565568538237     2.513474591476497
    H                2.291359783906775     3.288565568538237     1.093474591476497
    H                0.444359783906775     1.291565568538237    -1.064525408523503
    H                1.462359783906775     2.713565568538236    -0.912525408523503
    H               -0.234450216093225     0.465705568538237     3.288449691476496

}
e, wfn = energy('scf', return_wfn=True)
gdma(wfn)
dmavals = variable('DMA DISTRIBUTED MULTIPOLES')
charges = np.array(dmavals)
print(charges)
np.save('SSI-024ASN-027ARG-1-dimer.npy', np.array(charges))--------------------------------------------------------------------------

*** tstart() called on ds3
*** at Mon Apr 27 07:34:26 2020

   => Loading Basis Set <=

    Name: CC-PVDZ
    Role: ORBITAL
    Keyword: BASIS
    atoms 1-2, 10-11 entry C          line   138 file /theoryfs2/ds/metcalf/miniconda2/envs/tf2gpu/share/psi4/basis/cc-pvdz.gbs
    atoms 3          entry O          line   198 file /theoryfs2/ds/metcalf/miniconda2/envs/tf2gpu/share/psi4/basis/cc-pvdz.gbs
    atoms 4, 12-14   entry N          line   168 file /theoryfs2/ds/metcalf/miniconda2/envs/tf2gpu/share/psi4/basis/cc-pvdz.gbs
    atoms 5-9, 15-22 entry H          line    22 file /theoryfs2/ds/metcalf/miniconda2/envs/tf2gpu/share/psi4/basis/cc-pvdz.gbs

         ---------------------------------------------------------
                                   SCF
               by Justin Turney, Rob Parrish, Andy Simmonett
                          and Daniel G. A. Smith
                              RHF Reference
                        1 Threads,    500 MiB Core
         ---------------------------------------------------------

  ==> Geometry <==

    Molecular point group: c1
    Full point group: C1

    Geometry (in Angstrom), charge = 1, multiplicity = 1:

       Center              X                  Y                   Z               Mass
    ------------   -----------------  -----------------  -----------------  -----------------
         C           -2.419640216093    -2.183434431462    -0.629525408524    12.000000000000
         C           -1.234640216093    -1.666434431462    -1.452525408524    12.000000000000
         O           -0.366640216093    -0.929434431462    -0.963525408524    15.994914619570
         N           -1.220640216093    -2.024434431462    -2.730525408524    14.003074004430
         H           -2.697640216093    -3.178434431462    -0.979525408524     1.007825032230
         H           -3.262640216093    -1.532434431462    -0.838525408524     1.007825032230
         H           -0.508640216093    -1.638434431462    -3.340525408524     1.007825032230
         H           -1.948640216093    -2.624434431462    -3.098525408524     1.007825032230
         H           -2.215500216093    -2.210124431462     0.451036591476     1.007825032230
         C            0.636359783907     0.129565568538     2.706474591476    12.000000000000
         C            1.137359783907     1.661565568538     0.797474591476    12.000000000000
         N            0.558359783907     0.582565568538     1.307474591476    14.003074004430
         N            1.861359783907     2.481565568538     1.523474591476    14.003074004430
         N            1.004359783907     1.900565568538    -0.481525408524    14.003074004430
         H            0.074359783907    -0.013434431462     0.639474591476     1.007825032230
         H            1.553359783907     0.481565568538     3.183474591476     1.007825032230
         H            0.666359783907    -0.962434431462     2.721474591476     1.007825032230
         H            1.970359783907     2.329565568538     2.513474591476     1.007825032230
         H            2.291359783907     3.288565568538     1.093474591476     1.007825032230
         H            0.444359783907     1.291565568538    -1.064525408524     1.007825032230
         H            1.462359783907     2.713565568538    -0.912525408524     1.007825032230
         H           -0.234450216093     0.465705568538     3.288449691476     1.007825032230

  Running in c1 symmetry.

  Rotational constants: A =      0.09242  B =      0.02029  C =      0.01719 [cm^-1]
  Rotational constants: A =   2770.64120  B =    608.13391  C =    515.34616 [MHz]
  Nuclear repulsion =  462.644343373461254

  Charge       = 1
  Multiplicity = 1
  Electrons    = 72
  Nalpha       = 36
  Nbeta        = 36

  ==> Algorithm <==

  SCF Algorithm Type is PK.
  DIIS enabled.
  MOM disabled.
  Fractional occupation disabled.
  Guess Type is SAD.
  Energy threshold   = 1.00e-06
  Density threshold  = 1.00e-10
  Integral threshold = 0.00e+00

  ==> Primary Basis <==

  Basis Set: CC-PVDZ
    Blend: CC-PVDZ
    Number of shells: 93
    Number of basis function: 191
    Number of Cartesian functions: 200
    Spherical Harmonics?: true
    Max angular momentum: 2

  ==> Pre-Iterations <==

   -------------------------------------------------------
    Irrep   Nso     Nmo     Nalpha   Nbeta   Ndocc  Nsocc
   -------------------------------------------------------
     A        191     191       0       0       0       0
   -------------------------------------------------------
    Total     191     191      36      36      36       0
   -------------------------------------------------------

  ==> Integral Setup <==

  Using integral reordering PK algorithm.
  Sizing the integral batches needed.
  Building batch lookup table.
   Calculation information:
      Number of atoms:                  22
      Number of AO shells:              93
      Number of primitives:            263
      Number of atomic orbitals:       200
      Number of basis functions:       191

      Integral cutoff                 1.00e-12
      Number of threads:                 1

	Batch   1 pq = [       0,    9405] index = [             0,44231715] size =     44231715
	Batch   2 pq = [    9405,   13301] index = [      44231715,88464951] size =     44233236
	Batch   3 pq = [   13301,   16290] index = [      88464951,132690195] size =     44225244
	Batch   4 pq = [   16290,   18336] index = [     132690195,168113616] size =     35423421
  Task number: 16
  Buffer size: 11059200
  Buffer per thread: 2
  We computed 7498264 shell quartets total.
  Whereas there are 9555006 unique shell quartets.

  ==> DiskJK: Disk-Based J/K Matrices <==

    J tasked:                  Yes
    K tasked:                  Yes
    wK tasked:                  No
    Memory [MiB]:              375
    Schwarz Cutoff:          1E-12

    OpenMP threads:              1

  Minimum eigenvalue in the overlap matrix is 3.7775186195E-03.
  Using Symmetric Orthogonalization.

  SCF Guess: Superposition of Atomic Densities via on-the-fly atomic UHF.

  ==> Iterations <==

                        Total Energy        Delta E     RMS |[F,P]|

   @RHF iter SAD:  -450.70435200785698   -4.50704e+02   0.00000e+00
   @RHF iter   1:  -451.36786983911026   -6.63518e-01   3.56190e-03 DIIS
   @RHF iter   2:  -451.56711638964919   -1.99247e-01   1.71189e-03 DIIS
   @RHF iter   3:  -451.60840873924406   -4.12923e-02   4.29249e-04 DIIS
   @RHF iter   4:  -451.61211389709462   -3.70516e-03   1.60108e-04 DIIS
   @RHF iter   5:  -451.61262315327838   -5.09256e-04   2.67997e-05 DIIS
   @RHF iter   6:  -451.61265135082692   -2.81975e-05   1.09217e-05 DIIS
   @RHF iter   7:  -451.61265489302428   -3.54220e-06   3.11166e-06 DIIS
   @RHF iter   8:  -451.61265541300719   -5.19983e-07   1.01561e-06 DIIS
   @RHF iter   9:  -451.61265546216072   -4.91535e-08   3.68680e-07 DIIS
   @RHF iter  10:  -451.61265546937324   -7.21252e-09   1.44458e-07 DIIS
   @RHF iter  11:  -451.61265547035629   -9.83050e-10   3.29066e-08 DIIS
   @RHF iter  12:  -451.61265547040762   -5.13296e-11   1.05775e-08 DIIS
   @RHF iter  13:  -451.61265547040932   -1.70530e-12   3.70824e-09 DIIS
   @RHF iter  14:  -451.61265547041069   -1.36424e-12   1.06848e-09 DIIS
   @RHF iter  15:  -451.61265547041313   -2.44427e-12   3.93868e-10 DIIS
   @RHF iter  16:  -451.61265547041501   -1.87583e-12   1.76448e-10 DIIS
   @RHF iter  17:  -451.61265547041307    1.93268e-12   6.30072e-11 DIIS
  Energy and wave function converged.

  ==> Post-Iterations <==

    Orbital Energies [Eh]
    ---------------------

    Doubly Occupied:

       1A    -20.649528     2A    -15.760143     3A    -15.750539
       4A    -15.738605     5A    -15.712753     6A    -11.552087
       7A    -11.486780     8A    -11.415357     9A    -11.358299
      10A     -1.512981    11A     -1.504112    12A     -1.365097
      13A     -1.356586    14A     -1.341700    15A     -1.115224
      16A     -1.108531    17A     -1.006128    18A     -0.943985
      19A     -0.922983    20A     -0.904851    21A     -0.848641
      22A     -0.826619    23A     -0.823018    24A     -0.791890
      25A     -0.785326    26A     -0.757254    27A     -0.732850
      28A     -0.716577    29A     -0.708112    30A     -0.685664
      31A     -0.675323    32A     -0.645729    33A     -0.587387
      34A     -0.552452    35A     -0.546200    36A     -0.539623

    Virtual:

      37A      0.020467    38A      0.047279    39A      0.058290
      40A      0.064418    41A      0.069435    42A      0.091885
      43A      0.096401    44A      0.111357    45A      0.126112
      46A      0.134907    47A      0.139228    48A      0.160882
      49A      0.169091    50A      0.175053    51A      0.184400
      52A      0.244193    53A      0.274073    54A      0.306867
      55A      0.359972    56A      0.367268    57A      0.384218
      58A      0.429617    59A      0.467968    60A      0.477712
      61A      0.517140    62A      0.527066    63A      0.544475
      64A      0.560120    65A      0.564568    66A      0.573833
      67A      0.578113    68A      0.586101    69A      0.596846
      70A      0.616098    71A      0.623830    72A      0.628635
      73A      0.694299    74A      0.700988    75A      0.708734
      76A      0.733407    77A      0.738392    78A      0.753842
      79A      0.765350    80A      0.776223    81A      0.792846
      82A      0.804210    83A      0.821053    84A      0.826851
      85A      0.843740    86A      0.857768    87A      0.882055
      88A      0.892376    89A      0.918073    90A      0.926203
      91A      0.940333    92A      0.950366    93A      1.006218
      94A      1.017620    95A      1.020935    96A      1.090106
      97A      1.115042    98A      1.148789    99A      1.168956
     100A      1.187882   101A      1.211271   102A      1.220176
     103A      1.234024   104A      1.250085   105A      1.263902
     106A      1.282943   107A      1.305432   108A      1.318107
     109A      1.330578   110A      1.359548   111A      1.410478
     112A      1.437375   113A      1.488507   114A      1.519041
     115A      1.524974   116A      1.541737   117A      1.559576
     118A      1.562576   119A      1.605518   120A      1.609906
     121A      1.677339   122A      1.681639   123A      1.695957
     124A      1.727098   125A      1.737866   126A      1.753850
     127A      1.759257   128A      1.765835   129A      1.773239
     130A      1.778620   131A      1.784236   132A      1.809769
     133A      1.819212   134A      1.833910   135A      1.846341
     136A      1.849232   137A      1.867446   138A      1.901746
     139A      1.913535   140A      1.927608   141A      1.947324
     142A      2.028563   143A      2.042078   144A      2.047230
     145A      2.085584   146A      2.101452   147A      2.145318
     148A      2.163847   149A      2.180294   150A      2.189167
     151A      2.264839   152A      2.288300   153A      2.299945
     154A      2.326833   155A      2.335303   156A      2.341894
     157A      2.366955   158A      2.402318   159A      2.403369
     160A      2.438411   161A      2.461297   162A      2.463388
     163A      2.492460   164A      2.499123   165A      2.585270
     166A      2.595964   167A      2.612956   168A      2.619476
     169A      2.638841   170A      2.669384   171A      2.691773
     172A      2.741577   173A      2.760761   174A      2.793568
     175A      2.815989   176A      2.852680   177A      2.866100
     178A      2.868779   179A      2.928041   180A      2.954879
     181A      2.984261   182A      3.093823   183A      3.129572
     184A      3.156769   185A      3.173140   186A      3.352550
     187A      3.381572   188A      3.617763   189A      3.690258
     190A      3.717586   191A      3.805198

    Final Occupation by Irrep:
              A
    DOCC [    36 ]

  @RHF Final Energy:  -451.61265547041307

   => Energetics <=

    Nuclear Repulsion Energy =            462.6443433734612540
    One-Electron Energy =               -1521.0561257182991994
    Two-Electron Energy =                 606.7991268744249282
    Total Energy =                       -451.6126554704130740

Computation Completed

Properties will be evaluated at   0.000000,   0.000000,   0.000000 [a0]

Properties computed using the SCF density matrix

  Nuclear Dipole Moment: [e a0]
     X:    -2.2628      Y:    -1.5028      Z:     3.4245

  Electronic Dipole Moment: [e a0]
     X:     2.7619      Y:     2.7904      Z:    -3.2738

  Dipole Moment: [e a0]
     X:     0.4991      Y:     1.2875      Z:     0.1507     Total:     1.3891

  Dipole Moment: [D]
     X:     1.2686      Y:     3.2726      Z:     0.3830     Total:     3.5307

*** tstop() called on ds3 at Mon Apr 27 07:36:14 2020
Module time:
	user time   =      52.89 seconds =       0.88 minutes
	system time =      24.84 seconds =       0.41 minutes
	total time  =        108 seconds =       1.80 minutes
Total time:
	user time   =      52.89 seconds =       0.88 minutes
	system time =      24.84 seconds =       0.41 minutes
	total time  =        108 seconds =       1.80 minutes
                                     G D M A

                                 by Anthony Stone

                           version 2.2.06, 22 June 2011

               Distributed Multipoles from Gaussian wavefunctions

Starting at 7:36:14 on 27 Apr 2020

Using SCF density matrix from file ./SSI/SSI-024ASN-027ARG-1-dimer.test.25696.fchk

                         Distributed Multipole Analysis

Standard DMA

Positions and radii in angstrom
Multipole moments in atomic units, ea_0^k for rank k

C          x = -2.419640  y = -2.183434  z = -0.629525 angstrom
           Maximum rank =  0   Radius =  0.650 angstrom
                   Q00  =  -0.264677

C          x = -1.234640  y = -1.666434  z = -1.452525 angstrom
           Maximum rank =  0   Radius =  0.650 angstrom
                   Q00  =   0.798120

O          x = -0.366640  y = -0.929434  z = -0.963525 angstrom
           Maximum rank =  0   Radius =  0.650 angstrom
                   Q00  =  -0.828064

N          x = -1.220640  y = -2.024434  z = -2.730525 angstrom
           Maximum rank =  0   Radius =  0.650 angstrom
                   Q00  =  -0.534082

H          x = -2.697640  y = -3.178434  z = -0.979525 angstrom
           Maximum rank =  0   Radius =  0.325 angstrom
                   Q00  =   0.114364

H          x = -3.262640  y = -1.532434  z = -0.838525 angstrom
           Maximum rank =  0   Radius =  0.325 angstrom
                   Q00  =   0.140247

H          x = -0.508640  y = -1.638434  z = -3.340525 angstrom
           Maximum rank =  0   Radius =  0.325 angstrom
                   Q00  =   0.238018

H          x = -1.948640  y = -2.624434  z = -3.098525 angstrom
           Maximum rank =  0   Radius =  0.325 angstrom
                   Q00  =   0.236879

H          x = -2.215500  y = -2.210124  z =  0.451037 angstrom
           Maximum rank =  0   Radius =  0.325 angstrom
                   Q00  =   0.131148

C          x =  0.636360  y =  0.129566  z =  2.706475 angstrom
           Maximum rank =  0   Radius =  0.650 angstrom
                   Q00  =  -0.115813

C          x =  1.137360  y =  1.661566  z =  0.797475 angstrom
           Maximum rank =  0   Radius =  0.650 angstrom
                   Q00  =   1.090028

N          x =  0.558360  y =  0.582566  z =  1.307475 angstrom
           Maximum rank =  0   Radius =  0.650 angstrom
                   Q00  =  -0.529493

N          x =  1.861360  y =  2.481566  z =  1.523475 angstrom
           Maximum rank =  0   Radius =  0.650 angstrom
                   Q00  =  -0.589996

N          x =  1.004360  y =  1.900566  z = -0.481525 angstrom
           Maximum rank =  0   Radius =  0.650 angstrom
                   Q00  =  -0.592956

H          x =  0.074360  y = -0.013434  z =  0.639475 angstrom
           Maximum rank =  0   Radius =  0.325 angstrom
                   Q00  =   0.277124

H          x =  1.553360  y =  0.481566  z =  3.183475 angstrom
           Maximum rank =  0   Radius =  0.325 angstrom
                   Q00  =   0.104063

H          x =  0.666360  y = -0.962434  z =  2.721475 angstrom
           Maximum rank =  0   Radius =  0.325 angstrom
                   Q00  =   0.148231

H          x =  1.970360  y =  2.329566  z =  2.513475 angstrom
           Maximum rank =  0   Radius =  0.325 angstrom
                   Q00  =   0.263621

H          x =  2.291360  y =  3.288566  z =  1.093475 angstrom
           Maximum rank =  0   Radius =  0.325 angstrom
                   Q00  =   0.258367

H          x =  0.444360  y =  1.291566  z = -1.064525 angstrom
           Maximum rank =  0   Radius =  0.325 angstrom
                   Q00  =   0.278980

H          x =  1.462360  y =  2.713566  z = -0.912525 angstrom
           Maximum rank =  0   Radius =  0.325 angstrom
                   Q00  =   0.254138

H          x = -0.234450  y =  0.465706  z =  3.288450 angstrom
           Maximum rank =  0   Radius =  0.325 angstrom
                   Q00  =   0.121753

Total multipoles referred to origin at
           x =   0.000000,  y =    0.000000,  z =    0.000000 angstrom
                   Q00  =   1.000000

Finished at 7:36:14 on 27 Apr 2020

  DMA results are available in the Python driver through the
	  variable('DMA DISTRIBUTED MULTIPOLES')
  and
	  variable('DMA TOTAL MULTIPOLES')
  commands.

    Psi4 stopped on: Monday, 27 April 2020 07:36AM
    Psi4 wall time for execution: 0:01:47.82

*** Psi4 exiting successfully. Buy a developer a beer!
