                               Psi4 1.3.2 release

  ==> Input File <==

--------------------------------------------------------------------------
import numpy as np
set {scf_type pk
basis cc-pvdz
d_convergence 10
gdma_switch   0
gdma_limit    0
gdma_origin   [ 0.0,  0.0,  0.0 ]
}
molecule test {
    units Angstrom
    0 1
    --
    0 1
    C               -0.153855517046442     1.067006820045829    -0.981595216523899
    C               -0.717855517046442     1.974006820045829    -2.037595216523899
    C                0.613144482953558     0.001006820045829    -1.721595216523899
    H               -0.991855517046442     0.610006820045829    -0.458595216523899
    H                0.479144482953558     1.610006820045829    -0.278595216523899
    H               -1.701855517046442     2.337006820045829    -1.738595216523899
    H               -0.037855517046442     2.808006820045829    -2.212595216523898
    H                0.646144482953558    -0.933993179954171    -1.160595216523899
    H                1.629144482953558     0.354006820045829    -1.891595216523899
    H               -0.766573517046442     1.343666820045829    -2.937760216523898
    H                0.097652482953558    -0.102663179954171    -2.687783216523898
    C               -0.276855517046442    -1.482993179954171     1.699404783476101
    C                0.521144482953558    -1.485993179954171     2.987404783476101
    H               -0.191855517046442    -0.507993179954171     1.234404783476101
    H                0.132144482953558    -2.226993179954171     1.012404783476101
    H               -1.323855517046442    -1.704993179954171     1.879404783476101
    H                1.531144482953558    -1.144993179954171     2.765404783476102
    H                0.078371482953558    -0.803203179954171     3.727504783476101
    H                0.590105482953558    -2.507473179954171     3.389674783476102

}
e, wfn = energy('scf', return_wfn=True)
gdma(wfn)
dmavals = variable('DMA DISTRIBUTED MULTIPOLES')
charges = np.array(dmavals)
print(charges)
np.save('SSI-090PRO-154VAL-1-dimer.npy', np.array(charges))--------------------------------------------------------------------------

*** tstart() called on ds3
*** at Tue Apr 28 04:54:36 2020

   => Loading Basis Set <=

    Name: CC-PVDZ
    Role: ORBITAL
    Keyword: BASIS
    atoms 1-3, 12-13  entry C          line   138 file /theoryfs2/ds/metcalf/miniconda2/envs/tf2gpu/share/psi4/basis/cc-pvdz.gbs
    atoms 4-11, 14-19 entry H          line    22 file /theoryfs2/ds/metcalf/miniconda2/envs/tf2gpu/share/psi4/basis/cc-pvdz.gbs

         ---------------------------------------------------------
                                   SCF
               by Justin Turney, Rob Parrish, Andy Simmonett
                          and Daniel G. A. Smith
                              RHF Reference
                        1 Threads,    500 MiB Core
         ---------------------------------------------------------

  ==> Geometry <==

    Molecular point group: c1
    Full point group: C1

    Geometry (in Angstrom), charge = 0, multiplicity = 1:

       Center              X                  Y                   Z               Mass
    ------------   -----------------  -----------------  -----------------  -----------------
         C           -0.153855517046     1.067006820046    -0.981595216524    12.000000000000
         C           -0.717855517046     1.974006820046    -2.037595216524    12.000000000000
         C            0.613144482954     0.001006820046    -1.721595216524    12.000000000000
         H           -0.991855517046     0.610006820046    -0.458595216524     1.007825032230
         H            0.479144482954     1.610006820046    -0.278595216524     1.007825032230
         H           -1.701855517046     2.337006820046    -1.738595216524     1.007825032230
         H           -0.037855517046     2.808006820046    -2.212595216524     1.007825032230
         H            0.646144482954    -0.933993179954    -1.160595216524     1.007825032230
         H            1.629144482954     0.354006820046    -1.891595216524     1.007825032230
         H           -0.766573517046     1.343666820046    -2.937760216524     1.007825032230
         H            0.097652482954    -0.102663179954    -2.687783216524     1.007825032230
         C           -0.276855517046    -1.482993179954     1.699404783476    12.000000000000
         C            0.521144482954    -1.485993179954     2.987404783476    12.000000000000
         H           -0.191855517046    -0.507993179954     1.234404783476     1.007825032230
         H            0.132144482954    -2.226993179954     1.012404783476     1.007825032230
         H           -1.323855517046    -1.704993179954     1.879404783476     1.007825032230
         H            1.531144482954    -1.144993179954     2.765404783476     1.007825032230
         H            0.078371482954    -0.803203179954     3.727504783476     1.007825032230
         H            0.590105482954    -2.507473179954     3.389674783476     1.007825032230

  Running in c1 symmetry.

  Rotational constants: A =      0.30122  B =      0.03794  C =      0.03605 [cm^-1]
  Rotational constants: A =   9030.30317  B =   1137.38877  C =   1080.76686 [MHz]
  Nuclear repulsion =  180.330891239104204

  Charge       = 0
  Multiplicity = 1
  Electrons    = 44
  Nalpha       = 22
  Nbeta        = 22

  ==> Algorithm <==

  SCF Algorithm Type is PK.
  DIIS enabled.
  MOM disabled.
  Fractional occupation disabled.
  Guess Type is SAD.
  Energy threshold   = 1.00e-06
  Density threshold  = 1.00e-10
  Integral threshold = 0.00e+00

  ==> Primary Basis <==

  Basis Set: CC-PVDZ
    Blend: CC-PVDZ
    Number of shells: 72
    Number of basis function: 140
    Number of Cartesian functions: 145
    Spherical Harmonics?: true
    Max angular momentum: 2

  ==> Pre-Iterations <==

   -------------------------------------------------------
    Irrep   Nso     Nmo     Nalpha   Nbeta   Ndocc  Nsocc
   -------------------------------------------------------
     A        140     140       0       0       0       0
   -------------------------------------------------------
    Total     140     140      22      22      22       0
   -------------------------------------------------------

  ==> Integral Setup <==

  Using integral reordering PK algorithm.
  Sizing the integral batches needed.
  Building batch lookup table.
   Calculation information:
      Number of atoms:                  19
      Number of AO shells:              72
      Number of primitives:            180
      Number of atomic orbitals:       145
      Number of basis functions:       140

      Integral cutoff                 1.00e-12
      Number of threads:                 1

	Batch   1 pq = [       0,    9405] index = [             0,44231715] size =     44231715
	Batch   2 pq = [    9405,    9870] index = [      44231715,48713385] size =      4481670
  Task number: 5
  Buffer size: 11059200
  Buffer per thread: 2
  We computed 2855579 shell quartets total.
  Whereas there are 3454506 unique shell quartets.

  ==> DiskJK: Disk-Based J/K Matrices <==

    J tasked:                  Yes
    K tasked:                  Yes
    wK tasked:                  No
    Memory [MiB]:              375
    Schwarz Cutoff:          1E-12

    OpenMP threads:              1

  Minimum eigenvalue in the overlap matrix is 4.3045800752E-03.
  Using Symmetric Orthogonalization.

  SCF Guess: Superposition of Atomic Densities via on-the-fly atomic UHF.

  ==> Iterations <==

                        Total Energy        Delta E     RMS |[F,P]|

   @RHF iter SAD:  -196.59089017896389   -1.96591e+02   0.00000e+00
   @RHF iter   1:  -197.28571117787945   -6.94821e-01   3.90124e-03 DIIS
   @RHF iter   2:  -197.45053436540115   -1.64823e-01   1.70213e-03 DIIS
   @RHF iter   3:  -197.48089984784121   -3.03655e-02   3.32262e-04 DIIS
   @RHF iter   4:  -197.48316474993797   -2.26490e-03   5.16324e-05 DIIS
   @RHF iter   5:  -197.48320808666892   -4.33367e-05   1.57976e-05 DIIS
   @RHF iter   6:  -197.48321202644044   -3.93977e-06   2.62143e-06 DIIS
   @RHF iter   7:  -197.48321215415197   -1.27712e-07   5.00528e-07 DIIS
   @RHF iter   8:  -197.48321215900299   -4.85102e-09   1.18103e-07 DIIS
   @RHF iter   9:  -197.48321215926549   -2.62503e-10   3.50021e-08 DIIS
   @RHF iter  10:  -197.48321215929229   -2.68017e-11   7.47718e-09 DIIS
   @RHF iter  11:  -197.48321215929360   -1.30740e-12   1.52009e-09 DIIS
   @RHF iter  12:  -197.48321215929346    1.42109e-13   3.26529e-10 DIIS
   @RHF iter  13:  -197.48321215929349   -2.84217e-14   6.92950e-11 DIIS
  Energy and wave function converged.

  ==> Post-Iterations <==

    Orbital Energies [Eh]
    ---------------------

    Doubly Occupied:

       1A    -11.217599     2A    -11.213312     3A    -11.212256
       4A    -11.211287     5A    -11.210630     6A     -1.070290
       7A     -1.021542     8A     -0.917293     9A     -0.836168
      10A     -0.797135    11A     -0.637188    12A     -0.617859
      13A     -0.599527    14A     -0.597932    15A     -0.542958
      16A     -0.516347    17A     -0.502290    18A     -0.489592
      19A     -0.484326    20A     -0.478942    21A     -0.462139
      22A     -0.460355

    Virtual:

      23A      0.176582    24A      0.196322    25A      0.214657
      26A      0.227505    27A      0.230511    28A      0.247085
      29A      0.252639    30A      0.267661    31A      0.275738
      32A      0.287301    33A      0.303903    34A      0.319902
      35A      0.334909    36A      0.350490    37A      0.386078
      38A      0.405732    39A      0.453804    40A      0.564048
      41A      0.588616    42A      0.601166    43A      0.606783
      44A      0.611302    45A      0.643037    46A      0.656522
      47A      0.670041    48A      0.721090    49A      0.766816
      50A      0.782635    51A      0.809970    52A      0.853598
      53A      0.859538    54A      0.876567    55A      0.879151
      56A      0.891974    57A      0.895234    58A      0.900440
      59A      0.907989    60A      0.909737    61A      0.916942
      62A      0.921436    63A      0.932831    64A      0.949187
      65A      0.956239    66A      0.980574    67A      0.985107
      68A      1.039411    69A      1.086388    70A      1.106176
      71A      1.130607    72A      1.162115    73A      1.202833
      74A      1.270754    75A      1.430718    76A      1.476242
      77A      1.480529    78A      1.487505    79A      1.499609
      80A      1.588640    81A      1.615309    82A      1.627982
      83A      1.637905    84A      1.682095    85A      1.700879
      86A      1.715561    87A      1.738157    88A      1.802743
      89A      1.858898    90A      1.866261    91A      1.873352
      92A      1.895981    93A      1.914839    94A      1.920873
      95A      1.933348    96A      1.937005    97A      1.947882
      98A      1.951924    99A      1.962894   100A      1.964886
     101A      1.970410   102A      1.985890   103A      1.995788
     104A      2.020050   105A      2.040964   106A      2.077273
     107A      2.093592   108A      2.114952   109A      2.138610
     110A      2.152718   111A      2.245218   112A      2.250716
     113A      2.309927   114A      2.318016   115A      2.321004
     116A      2.364326   117A      2.443415   118A      2.448967
     119A      2.474279   120A      2.481192   121A      2.497609
     122A      2.565267   123A      2.571710   124A      2.594013
     125A      2.641879   126A      2.704850   127A      2.759000
     128A      2.763810   129A      2.791200   130A      2.799952
     131A      2.808419   132A      2.842036   133A      2.858204
     134A      2.863655   135A      2.873923   136A      2.919168
     137A      2.946554   138A      2.965009   139A      2.992520
     140A      3.060325

    Final Occupation by Irrep:
              A
    DOCC [    22 ]

  @RHF Final Energy:  -197.48321215929349

   => Energetics <=

    Nuclear Repulsion Energy =            180.3308912391042043
    One-Electron Energy =                -621.4342756172313784
    Two-Electron Energy =                 243.6201722188337158
    Total Energy =                       -197.4832121592934868

Computation Completed

Properties will be evaluated at   0.000000,   0.000000,   0.000000 [a0]

Properties computed using the SCF density matrix

  Nuclear Dipole Moment: [e a0]
     X:     0.1594      Y:    -0.8152      Z:     0.6025

  Electronic Dipole Moment: [e a0]
     X:    -0.1580      Y:     0.8343      Z:    -0.5800

  Dipole Moment: [e a0]
     X:     0.0013      Y:     0.0190      Z:     0.0225     Total:     0.0295

  Dipole Moment: [D]
     X:     0.0034      Y:     0.0484      Z:     0.0572     Total:     0.0750

*** tstop() called on ds3 at Tue Apr 28 04:55:43 2020
Module time:
	user time   =      14.29 seconds =       0.24 minutes
	system time =       5.25 seconds =       0.09 minutes
	total time  =         67 seconds =       1.12 minutes
Total time:
	user time   =      14.29 seconds =       0.24 minutes
	system time =       5.25 seconds =       0.09 minutes
	total time  =         67 seconds =       1.12 minutes
                                     G D M A

                                 by Anthony Stone

                           version 2.2.06, 22 June 2011

               Distributed Multipoles from Gaussian wavefunctions

Starting at 4:55:43 on 28 Apr 2020

Using SCF density matrix from file ./SSI/SSI-090PRO-154VAL-1-dimer.test.27880.fchk

                         Distributed Multipole Analysis

Standard DMA

Positions and radii in angstrom
Multipole moments in atomic units, ea_0^k for rank k

C          x = -0.153856  y =  1.067007  z = -0.981595 angstrom
           Maximum rank =  0   Radius =  0.650 angstrom
                   Q00  =  -0.113382

C          x = -0.717856  y =  1.974007  z = -2.037595 angstrom
           Maximum rank =  0   Radius =  0.650 angstrom
                   Q00  =  -0.223517

C          x =  0.613144  y =  0.001007  z = -1.721595 angstrom
           Maximum rank =  0   Radius =  0.650 angstrom
                   Q00  =  -0.201387

H          x = -0.991856  y =  0.610007  z = -0.458595 angstrom
           Maximum rank =  0   Radius =  0.325 angstrom
                   Q00  =   0.047275

H          x =  0.479144  y =  1.610007  z = -0.278595 angstrom
           Maximum rank =  0   Radius =  0.325 angstrom
                   Q00  =   0.049945

H          x = -1.701856  y =  2.337007  z = -1.738595 angstrom
           Maximum rank =  0   Radius =  0.325 angstrom
                   Q00  =   0.086561

H          x = -0.037856  y =  2.808007  z = -2.212595 angstrom
           Maximum rank =  0   Radius =  0.325 angstrom
                   Q00  =   0.082540

H          x =  0.646144  y = -0.933993  z = -1.160595 angstrom
           Maximum rank =  0   Radius =  0.325 angstrom
                   Q00  =   0.086117

H          x =  1.629144  y =  0.354007  z = -1.891595 angstrom
           Maximum rank =  0   Radius =  0.325 angstrom
                   Q00  =   0.074558

H          x = -0.766574  y =  1.343667  z = -2.937760 angstrom
           Maximum rank =  0   Radius =  0.325 angstrom
                   Q00  =   0.062669

H          x =  0.097652  y = -0.102663  z = -2.687783 angstrom
           Maximum rank =  0   Radius =  0.325 angstrom
                   Q00  =   0.052809

C          x = -0.276856  y = -1.482993  z =  1.699405 angstrom
           Maximum rank =  0   Radius =  0.650 angstrom
                   Q00  =  -0.229521

C          x =  0.521144  y = -1.485993  z =  2.987405 angstrom
           Maximum rank =  0   Radius =  0.650 angstrom
                   Q00  =  -0.242815

H          x = -0.191856  y = -0.507993  z =  1.234405 angstrom
           Maximum rank =  0   Radius =  0.325 angstrom
                   Q00  =   0.082663

H          x =  0.132144  y = -2.226993  z =  1.012405 angstrom
           Maximum rank =  0   Radius =  0.325 angstrom
                   Q00  =   0.076115

H          x = -1.323856  y = -1.704993  z =  1.879405 angstrom
           Maximum rank =  0   Radius =  0.325 angstrom
                   Q00  =   0.078756

H          x =  1.531144  y = -1.144993  z =  2.765405 angstrom
           Maximum rank =  0   Radius =  0.325 angstrom
                   Q00  =   0.075911

H          x =  0.078371  y = -0.803203  z =  3.727505 angstrom
           Maximum rank =  0   Radius =  0.325 angstrom
                   Q00  =   0.078263

H          x =  0.590105  y = -2.507473  z =  3.389675 angstrom
           Maximum rank =  0   Radius =  0.325 angstrom
                   Q00  =   0.076439

Total multipoles referred to origin at
           x =   0.000000,  y =    0.000000,  z =    0.000000 angstrom
                   Q00  =  -0.000000

Finished at 4:55:43 on 28 Apr 2020

  DMA results are available in the Python driver through the
	  variable('DMA DISTRIBUTED MULTIPOLES')
  and
	  variable('DMA TOTAL MULTIPOLES')
  commands.

    Psi4 stopped on: Tuesday, 28 April 2020 04:55AM
    Psi4 wall time for execution: 0:01:06.62

*** Psi4 exiting successfully. Buy a developer a beer!
