                               Psi4 1.3.2 release

  ==> Input File <==

--------------------------------------------------------------------------
import numpy as np
set {scf_type pk
basis cc-pvdz
d_convergence 10
gdma_switch   0
gdma_limit    0
gdma_origin   [ 0.0,  0.0,  0.0 ]
}
molecule test {
    units Angstrom
    0 1
    --
    0 1
    C               -1.472817005709779     0.970844657011386    -0.453573101207085
    C               -2.075817005709779     2.120844657011386    -1.236573101207085
    H               -2.151817005709779     0.119844657011386    -0.431573101207085
    H               -0.535817005709779     0.672844657011386    -0.924573101207085
    H               -1.266817005709779     1.281844657011386     0.570426898792915
    H               -2.201817005709779     1.820844657011386    -2.278573101207085
    H               -1.351817005709779     2.934844657011386    -1.216573101207085
    H               -3.043097005709779     2.454484657011386    -0.832766101207085
    C                1.300182994290221    -0.953155342988614     0.778426898792915
    C                2.240182994290221    -2.143155342988615     0.912426898792915
    H                0.336182994290221    -1.273155342988614     0.381426898792915
    H                1.150182994290221    -0.491155342988614     1.754426898792915
    H                1.736182994290221    -0.213155342988614     0.104426898792915
    H                3.183182994290221    -1.794155342988614     1.338426898792915
    H                2.437012994290221    -2.578285342988614    -0.078492101207085
    H                1.806882994290221    -2.879775342988614     1.604990898792915

}
e, wfn = energy('scf', return_wfn=True)
gdma(wfn)
dmavals = variable('DMA DISTRIBUTED MULTIPOLES')
charges = np.array(dmavals)
print(charges)
np.save('SSI-013ILE-105ALA-1-dimer.npy', np.array(charges))--------------------------------------------------------------------------

*** tstart() called on ds3
*** at Mon Apr 27 07:22:44 2020

   => Loading Basis Set <=

    Name: CC-PVDZ
    Role: ORBITAL
    Keyword: BASIS
    atoms 1-2, 9-10  entry C          line   138 file /theoryfs2/ds/metcalf/miniconda2/envs/tf2gpu/share/psi4/basis/cc-pvdz.gbs
    atoms 3-8, 11-16 entry H          line    22 file /theoryfs2/ds/metcalf/miniconda2/envs/tf2gpu/share/psi4/basis/cc-pvdz.gbs

         ---------------------------------------------------------
                                   SCF
               by Justin Turney, Rob Parrish, Andy Simmonett
                          and Daniel G. A. Smith
                              RHF Reference
                        1 Threads,    500 MiB Core
         ---------------------------------------------------------

  ==> Geometry <==

    Molecular point group: c1
    Full point group: C1

    Geometry (in Angstrom), charge = 0, multiplicity = 1:

       Center              X                  Y                   Z               Mass
    ------------   -----------------  -----------------  -----------------  -----------------
         C           -1.472817005710     0.970844657011    -0.453573101207    12.000000000000
         C           -2.075817005710     2.120844657011    -1.236573101207    12.000000000000
         H           -2.151817005710     0.119844657011    -0.431573101207     1.007825032230
         H           -0.535817005710     0.672844657011    -0.924573101207     1.007825032230
         H           -1.266817005710     1.281844657011     0.570426898793     1.007825032230
         H           -2.201817005710     1.820844657011    -2.278573101207     1.007825032230
         H           -1.351817005710     2.934844657011    -1.216573101207     1.007825032230
         H           -3.043097005710     2.454484657011    -0.832766101207     1.007825032230
         C            1.300182994290    -0.953155342989     0.778426898793    12.000000000000
         C            2.240182994290    -2.143155342989     0.912426898793    12.000000000000
         H            0.336182994290    -1.273155342989     0.381426898793     1.007825032230
         H            1.150182994290    -0.491155342989     1.754426898793     1.007825032230
         H            1.736182994290    -0.213155342989     0.104426898793     1.007825032230
         H            3.183182994290    -1.794155342989     1.338426898793     1.007825032230
         H            2.437012994290    -2.578285342989    -0.078492101207     1.007825032230
         H            1.806882994290    -2.879775342989     1.604990898793     1.007825032230

  Running in c1 symmetry.

  Rotational constants: A =      0.99454  B =      0.03993  C =      0.03984 [cm^-1]
  Rotational constants: A =  29815.41274  B =   1197.03511  C =   1194.30544 [MHz]
  Nuclear repulsion =  120.626319285355862

  Charge       = 0
  Multiplicity = 1
  Electrons    = 36
  Nalpha       = 18
  Nbeta        = 18

  ==> Algorithm <==

  SCF Algorithm Type is PK.
  DIIS enabled.
  MOM disabled.
  Fractional occupation disabled.
  Guess Type is SAD.
  Energy threshold   = 1.00e-06
  Density threshold  = 1.00e-10
  Integral threshold = 0.00e+00

  ==> Primary Basis <==

  Basis Set: CC-PVDZ
    Blend: CC-PVDZ
    Number of shells: 60
    Number of basis function: 116
    Number of Cartesian functions: 120
    Spherical Harmonics?: true
    Max angular momentum: 2

  ==> Pre-Iterations <==

   -------------------------------------------------------
    Irrep   Nso     Nmo     Nalpha   Nbeta   Ndocc  Nsocc
   -------------------------------------------------------
     A        116     116       0       0       0       0
   -------------------------------------------------------
    Total     116     116      18      18      18       0
   -------------------------------------------------------

  ==> Integral Setup <==

  Using integral reordering PK algorithm.
  Sizing the integral batches needed.
  Building batch lookup table.
   Calculation information:
      Number of atoms:                  16
      Number of AO shells:              60
      Number of primitives:            148
      Number of atomic orbitals:       120
      Number of basis functions:       116

      Integral cutoff                 1.00e-12
      Number of threads:                 1

	Batch   1 pq = [       0,    6786] index = [             0,23028291] size =     23028291
  Task number: 3
  Buffer size: 11059200
  Buffer per thread: 2
  We computed 1342206 shell quartets total.
  Whereas there are 1675365 unique shell quartets.

  ==> DiskJK: Disk-Based J/K Matrices <==

    J tasked:                  Yes
    K tasked:                  Yes
    wK tasked:                  No
    Memory [MiB]:              375
    Schwarz Cutoff:          1E-12

    OpenMP threads:              1

  Minimum eigenvalue in the overlap matrix is 5.7708586833E-03.
  Using Symmetric Orthogonalization.

  SCF Guess: Superposition of Atomic Densities via on-the-fly atomic UHF.

  ==> Iterations <==

                        Total Energy        Delta E     RMS |[F,P]|

   @RHF iter SAD:  -157.38533915244602   -1.57385e+02   0.00000e+00
   @RHF iter   1:  -158.30498263514022   -9.19643e-01   4.24630e-03 DIIS
   @RHF iter   2:  -158.44014379932904   -1.35161e-01   1.81243e-03 DIIS
   @RHF iter   3:  -158.46394536193665   -2.38016e-02   3.52407e-04 DIIS
   @RHF iter   4:  -158.46580374633749   -1.85838e-03   3.93631e-05 DIIS
   @RHF iter   5:  -158.46582804580640   -2.42995e-05   6.94946e-06 DIIS
   @RHF iter   6:  -158.46582873943296   -6.93627e-07   1.25021e-06 DIIS
   @RHF iter   7:  -158.46582875404755   -1.46146e-08   3.25088e-07 DIIS
   @RHF iter   8:  -158.46582875504023   -9.92685e-10   4.05223e-08 DIIS
   @RHF iter   9:  -158.46582875506763   -2.73985e-11   7.25385e-09 DIIS
   @RHF iter  10:  -158.46582875506860   -9.66338e-13   1.80575e-09 DIIS
   @RHF iter  11:  -158.46582875506869   -8.52651e-14   3.61361e-10 DIIS
   @RHF iter  12:  -158.46582875506832    3.69482e-13   9.59872e-11 DIIS
  Energy and wave function converged.

  ==> Post-Iterations <==

    Orbital Energies [Eh]
    ---------------------

    Doubly Occupied:

       1A    -11.218400     2A    -11.216323     3A    -11.215323
       4A    -11.214181     5A     -1.021435     6A     -1.018636
       7A     -0.838573     8A     -0.830679     9A     -0.602262
      10A     -0.599022    11A     -0.597666    12A     -0.595921
      13A     -0.508506    14A     -0.494154    15A     -0.489067
      16A     -0.483270    17A     -0.482289    18A     -0.479589

    Virtual:

      19A      0.177645    20A      0.193730    21A      0.222583
      22A      0.236654    23A      0.239248    24A      0.265037
      25A      0.265761    26A      0.277599    27A      0.279322
      28A      0.293178    29A      0.305551    30A      0.314477
      31A      0.382025    32A      0.421757    33A      0.565176
      34A      0.596550    35A      0.601171    36A      0.605171
      37A      0.607021    38A      0.648091    39A      0.672558
      40A      0.697993    41A      0.699785    42A      0.754280
      43A      0.846733    44A      0.882117    45A      0.891990
      46A      0.894019    47A      0.895127    48A      0.897433
      49A      0.901372    50A      0.912330    51A      0.918376
      52A      0.922700    53A      0.929762    54A      0.949832
      55A      0.961142    56A      1.000660    57A      1.127258
      58A      1.130655    59A      1.133776    60A      1.154255
      61A      1.221714    62A      1.260103    63A      1.462733
      64A      1.479689    65A      1.487477    66A      1.488542
      67A      1.579650    68A      1.587382    69A      1.676453
      70A      1.682333    71A      1.692569    72A      1.696342
      73A      1.842439    74A      1.858599    75A      1.871191
      76A      1.876431    77A      1.895581    78A      1.928739
      79A      1.935382    80A      1.945683    81A      1.948601
      82A      1.951165    83A      1.954849    84A      1.961677
      85A      1.964737    86A      1.977582    87A      2.010444
      88A      2.061478    89A      2.092417    90A      2.107773
      91A      2.115050    92A      2.127838    93A      2.298382
      94A      2.306912    95A      2.320003    96A      2.343900
      97A      2.452617    98A      2.460634    99A      2.462567
     100A      2.489212   101A      2.562237   102A      2.567927
     103A      2.572709   104A      2.582319   105A      2.757163
     106A      2.768045   107A      2.785331   108A      2.799613
     109A      2.846187   110A      2.847852   111A      2.853466
     112A      2.871384   113A      2.936694   114A      2.949142
     115A      2.964075   116A      2.971618

    Final Occupation by Irrep:
              A
    DOCC [    18 ]

  @RHF Final Energy:  -158.46582875506832

   => Energetics <=

    Nuclear Repulsion Energy =            120.6263192853558621
    One-Electron Energy =                -450.3737042509371236
    Two-Electron Energy =                 171.2815562105129459
    Total Energy =                       -158.4658287550683156

Computation Completed

Properties will be evaluated at   0.000000,   0.000000,   0.000000 [a0]

Properties computed using the SCF density matrix

  Nuclear Dipole Moment: [e a0]
     X:     0.0923      Y:     0.0516      Z:    -0.0079

  Electronic Dipole Moment: [e a0]
     X:    -0.0785      Y:    -0.0480      Z:     0.0114

  Dipole Moment: [e a0]
     X:     0.0138      Y:     0.0036      Z:     0.0035     Total:     0.0147

  Dipole Moment: [D]
     X:     0.0350      Y:     0.0092      Z:     0.0090     Total:     0.0373

*** tstop() called on ds3 at Mon Apr 27 07:22:55 2020
Module time:
	user time   =       7.42 seconds =       0.12 minutes
	system time =       2.95 seconds =       0.05 minutes
	total time  =         11 seconds =       0.18 minutes
Total time:
	user time   =       7.42 seconds =       0.12 minutes
	system time =       2.95 seconds =       0.05 minutes
	total time  =         11 seconds =       0.18 minutes
                                     G D M A

                                 by Anthony Stone

                           version 2.2.06, 22 June 2011

               Distributed Multipoles from Gaussian wavefunctions

Starting at 7:22:55 on 27 Apr 2020

Using SCF density matrix from file ./SSI/SSI-013ILE-105ALA-1-dimer.test.5758.fchk

                         Distributed Multipole Analysis

Standard DMA

Positions and radii in angstrom
Multipole moments in atomic units, ea_0^k for rank k

C          x = -1.472817  y =  0.970845  z = -0.453573 angstrom
           Maximum rank =  0   Radius =  0.650 angstrom
                   Q00  =  -0.240671

C          x = -2.075817  y =  2.120845  z = -1.236573 angstrom
           Maximum rank =  0   Radius =  0.650 angstrom
                   Q00  =  -0.225612

H          x = -2.151817  y =  0.119845  z = -0.431573 angstrom
           Maximum rank =  0   Radius =  0.325 angstrom
                   Q00  =   0.076532

H          x = -0.535817  y =  0.672845  z = -0.924573 angstrom
           Maximum rank =  0   Radius =  0.325 angstrom
                   Q00  =   0.079352

H          x = -1.266817  y =  1.281845  z =  0.570427 angstrom
           Maximum rank =  0   Radius =  0.325 angstrom
                   Q00  =   0.077491

H          x = -2.201817  y =  1.820845  z = -2.278573 angstrom
           Maximum rank =  0   Radius =  0.325 angstrom
                   Q00  =   0.076608

H          x = -1.351817  y =  2.934845  z = -1.216573 angstrom
           Maximum rank =  0   Radius =  0.325 angstrom
                   Q00  =   0.075928

H          x = -3.043097  y =  2.454485  z = -0.832766 angstrom
           Maximum rank =  0   Radius =  0.325 angstrom
                   Q00  =   0.080582

C          x =  1.300183  y = -0.953155  z =  0.778427 angstrom
           Maximum rank =  0   Radius =  0.650 angstrom
                   Q00  =  -0.226908

C          x =  2.240183  y = -2.143155  z =  0.912427 angstrom
           Maximum rank =  0   Radius =  0.650 angstrom
                   Q00  =  -0.242312

H          x =  0.336183  y = -1.273155  z =  0.381427 angstrom
           Maximum rank =  0   Radius =  0.325 angstrom
                   Q00  =   0.080040

H          x =  1.150183  y = -0.491155  z =  1.754427 angstrom
           Maximum rank =  0   Radius =  0.325 angstrom
                   Q00  =   0.078782

H          x =  1.736183  y = -0.213155  z =  0.104427 angstrom
           Maximum rank =  0   Radius =  0.325 angstrom
                   Q00  =   0.075542

H          x =  3.183183  y = -1.794155  z =  1.338427 angstrom
           Maximum rank =  0   Radius =  0.325 angstrom
                   Q00  =   0.076896

H          x =  2.437013  y = -2.578285  z = -0.078492 angstrom
           Maximum rank =  0   Radius =  0.325 angstrom
                   Q00  =   0.078996

H          x =  1.806883  y = -2.879775  z =  1.604991 angstrom
           Maximum rank =  0   Radius =  0.325 angstrom
                   Q00  =   0.078755

Total multipoles referred to origin at
           x =   0.000000,  y =    0.000000,  z =    0.000000 angstrom
                   Q00  =  -0.000000

Finished at 7:22:55 on 27 Apr 2020

  DMA results are available in the Python driver through the
	  variable('DMA DISTRIBUTED MULTIPOLES')
  and
	  variable('DMA TOTAL MULTIPOLES')
  commands.

    Psi4 stopped on: Monday, 27 April 2020 07:22AM
    Psi4 wall time for execution: 0:00:11.07

*** Psi4 exiting successfully. Buy a developer a beer!
