                               Psi4 1.3.2 release

  ==> Input File <==

--------------------------------------------------------------------------
import numpy as np
set {scf_type pk
basis cc-pvdz
d_convergence 10
gdma_switch   0
gdma_limit    0
gdma_origin   [ 0.0,  0.0,  0.0 ]
}
molecule test {
    units Angstrom
    0 1
    --
    0 1
    C                1.543239554166370     2.117756711578382    -0.547263500598751
    C                0.842239554166370    -0.301243288421619    -0.413263500598750
    C                1.220239554166370     0.873756711578381     0.240736499401249
    C                0.634239554166370    -1.472243288421619     0.303736499401249
    C                0.810239554166370    -1.473243288421619     1.670736499401249
    C                1.371239554166370     0.860756711578381     1.623736499401250
    C                1.173239554166370    -0.319243288421619     2.343736499401250
    H                0.725239554166370    -0.304243288421619    -1.488263500598751
    H                0.346239554166370    -2.383243288421619    -0.201263500598751
    H                2.005239554166370     1.812756711578381    -1.488263500598751
    H                2.298239554166369     2.684756711578382    -0.000263500598751
    H                0.639239554166370    -2.381243288421618     2.225736499401250
    H                1.669239554166370     1.757756711578381     2.145736499401250
    H                1.303239554166370    -0.334243288421619     3.417736499401250
    H                0.693419554166370     2.776976711578381    -0.777993500598751
    C               -2.712760445833630    -0.073243288421619    -1.845263500598751
    C               -4.005760445833630    -0.397243288421619    -2.580263500598750
    H               -2.902760445833631     0.648756711578381    -1.054263500598750
    H               -2.282760445833631    -0.978243288421619    -1.417263500598750
    H               -1.993760445833630     0.360756711578381    -2.538263500598750
    H               -3.767760445833630    -1.030243288421619    -3.436263500598750
    H               -4.477149445833630     0.528946711578381    -2.940783500598750
    H               -4.688144445833630    -0.966133288421619    -1.931643500598751

}
e, wfn = energy('scf', return_wfn=True)
gdma(wfn)
dmavals = variable('DMA DISTRIBUTED MULTIPOLES')
charges = np.array(dmavals)
print(charges)
np.save('SSI-022PHE-099ALA-1-dimer.npy', np.array(charges))--------------------------------------------------------------------------

*** tstart() called on ds3
*** at Sun Apr 26 22:26:09 2020

   => Loading Basis Set <=

    Name: CC-PVDZ
    Role: ORBITAL
    Keyword: BASIS
    atoms 1-7, 16-17  entry C          line   138 file /theoryfs2/ds/metcalf/miniconda2/envs/tf2gpu/share/psi4/basis/cc-pvdz.gbs
    atoms 8-15, 18-23 entry H          line    22 file /theoryfs2/ds/metcalf/miniconda2/envs/tf2gpu/share/psi4/basis/cc-pvdz.gbs

         ---------------------------------------------------------
                                   SCF
               by Justin Turney, Rob Parrish, Andy Simmonett
                          and Daniel G. A. Smith
                              RHF Reference
                        1 Threads,    500 MiB Core
         ---------------------------------------------------------

  ==> Geometry <==

    Molecular point group: c1
    Full point group: C1

    Geometry (in Angstrom), charge = 0, multiplicity = 1:

       Center              X                  Y                   Z               Mass
    ------------   -----------------  -----------------  -----------------  -----------------
         C            1.543239554166     2.117756711578    -0.547263500599    12.000000000000
         C            0.842239554166    -0.301243288422    -0.413263500599    12.000000000000
         C            1.220239554166     0.873756711578     0.240736499401    12.000000000000
         C            0.634239554166    -1.472243288422     0.303736499401    12.000000000000
         C            0.810239554166    -1.473243288422     1.670736499401    12.000000000000
         C            1.371239554166     0.860756711578     1.623736499401    12.000000000000
         C            1.173239554166    -0.319243288422     2.343736499401    12.000000000000
         H            0.725239554166    -0.304243288422    -1.488263500599     1.007825032230
         H            0.346239554166    -2.383243288422    -0.201263500599     1.007825032230
         H            2.005239554166     1.812756711578    -1.488263500599     1.007825032230
         H            2.298239554166     2.684756711578    -0.000263500599     1.007825032230
         H            0.639239554166    -2.381243288422     2.225736499401     1.007825032230
         H            1.669239554166     1.757756711578     2.145736499401     1.007825032230
         H            1.303239554166    -0.334243288422     3.417736499401     1.007825032230
         H            0.693419554166     2.776976711578    -0.777993500599     1.007825032230
         C           -2.712760445834    -0.073243288422    -1.845263500599    12.000000000000
         C           -4.005760445834    -0.397243288422    -2.580263500599    12.000000000000
         H           -2.902760445834     0.648756711578    -1.054263500599     1.007825032230
         H           -2.282760445834    -0.978243288422    -1.417263500599     1.007825032230
         H           -1.993760445834     0.360756711578    -2.538263500599     1.007825032230
         H           -3.767760445834    -1.030243288422    -3.436263500599     1.007825032230
         H           -4.477149445834     0.528946711578    -2.940783500599     1.007825032230
         H           -4.688144445834    -0.966133288422    -1.931643500599     1.007825032230

  Running in c1 symmetry.

  Rotational constants: A =      0.06818  B =      0.02208  C =      0.01845 [cm^-1]
  Rotational constants: A =   2043.92496  B =    661.79905  C =    553.04047 [MHz]
  Nuclear repulsion =  400.466924872454626

  Charge       = 0
  Multiplicity = 1
  Electrons    = 68
  Nalpha       = 34
  Nbeta        = 34

  ==> Algorithm <==

  SCF Algorithm Type is PK.
  DIIS enabled.
  MOM disabled.
  Fractional occupation disabled.
  Guess Type is SAD.
  Energy threshold   = 1.00e-06
  Density threshold  = 1.00e-10
  Integral threshold = 0.00e+00

  ==> Primary Basis <==

  Basis Set: CC-PVDZ
    Blend: CC-PVDZ
    Number of shells: 96
    Number of basis function: 196
    Number of Cartesian functions: 205
    Spherical Harmonics?: true
    Max angular momentum: 2

  ==> Pre-Iterations <==

   -------------------------------------------------------
    Irrep   Nso     Nmo     Nalpha   Nbeta   Ndocc  Nsocc
   -------------------------------------------------------
     A        196     196       0       0       0       0
   -------------------------------------------------------
    Total     196     196      34      34      34       0
   -------------------------------------------------------

  ==> Integral Setup <==

  Using integral reordering PK algorithm.
  Sizing the integral batches needed.
  Building batch lookup table.
   Calculation information:
      Number of atoms:                  23
      Number of AO shells:              96
      Number of primitives:            268
      Number of atomic orbitals:       205
      Number of basis functions:       196

      Integral cutoff                 1.00e-12
      Number of threads:                 1

	Batch   1 pq = [       0,    9405] index = [             0,44231715] size =     44231715
	Batch   2 pq = [    9405,   13301] index = [      44231715,88464951] size =     44233236
	Batch   3 pq = [   13301,   16290] index = [      88464951,132690195] size =     44225244
	Batch   4 pq = [   16290,   18810] index = [     132690195,176917455] size =     44227260
	Batch   5 pq = [   18810,   19306] index = [     176917455,186370471] size =      9453016
  Task number: 17
  Buffer size: 11059200
  Buffer per thread: 2
  We computed 8818246 shell quartets total.
  Whereas there are 10841496 unique shell quartets.

  ==> DiskJK: Disk-Based J/K Matrices <==

    J tasked:                  Yes
    K tasked:                  Yes
    wK tasked:                  No
    Memory [MiB]:              375
    Schwarz Cutoff:          1E-12

    OpenMP threads:              1

  Minimum eigenvalue in the overlap matrix is 3.0528800927E-04.
  Using Symmetric Orthogonalization.

  SCF Guess: Superposition of Atomic Densities via on-the-fly atomic UHF.

  ==> Iterations <==

                        Total Energy        Delta E     RMS |[F,P]|

   @RHF iter SAD:  -347.89560534579249   -3.47896e+02   0.00000e+00
   @RHF iter   1:  -348.76516831680044   -8.69563e-01   2.91473e-03 DIIS
   @RHF iter   2:  -348.95945241465682   -1.94284e-01   1.21628e-03 DIIS
   @RHF iter   3:  -348.99029733836335   -3.08449e-02   2.58193e-04 DIIS
   @RHF iter   4:  -348.99277945911331   -2.48212e-03   5.05638e-05 DIIS
   @RHF iter   5:  -348.99284886602675   -6.94069e-05   1.63693e-05 DIIS
   @RHF iter   6:  -348.99285558794503   -6.72192e-06   4.42398e-06 DIIS
   @RHF iter   7:  -348.99285615560143   -5.67656e-07   1.37358e-06 DIIS
   @RHF iter   8:  -348.99285621990350   -6.43021e-08   3.88031e-07 DIIS
   @RHF iter   9:  -348.99285623173188   -1.18284e-08   1.95091e-07 DIIS
   @RHF iter  10:  -348.99285623506086   -3.32898e-09   8.90796e-08 DIIS
   @RHF iter  11:  -348.99285623607403   -1.01318e-09   2.81074e-08 DIIS
   @RHF iter  12:  -348.99285623614873   -7.46923e-11   1.07091e-08 DIIS
   @RHF iter  13:  -348.99285623615640   -7.67386e-12   3.93796e-09 DIIS
   @RHF iter  14:  -348.99285623615663   -2.27374e-13   9.87236e-10 DIIS
   @RHF iter  15:  -348.99285623615822   -1.59162e-12   4.16428e-10 DIIS
   @RHF iter  16:  -348.99285623615833   -1.13687e-13   1.47744e-10 DIIS
   @RHF iter  17:  -348.99285623615566    2.67164e-12   5.94425e-11 DIIS
  Energy and wave function converged.

  ==> Post-Iterations <==

    Orbital Energies [Eh]
    ---------------------

    Doubly Occupied:

       1A    -11.239847     2A    -11.234140     3A    -11.232747
       4A    -11.230211     5A    -11.229888     6A    -11.228767
       7A    -11.227550     8A    -11.216707     9A    -11.212542
      10A     -1.153776    11A     -1.044685    12A     -1.017324
      13A     -1.011613    14A     -0.930518    15A     -0.833441
      16A     -0.825826    17A     -0.794372    18A     -0.691587
      19A     -0.631379    20A     -0.629558    21A     -0.598122
      22A     -0.594309    23A     -0.583093    24A     -0.575871
      25A     -0.560188    26A     -0.533029    27A     -0.499224
      28A     -0.488406    29A     -0.484953    30A     -0.484074
      31A     -0.480658    32A     -0.479481    33A     -0.331566
      34A     -0.322477

    Virtual:

      35A      0.135961    36A      0.141596    37A      0.172887
      38A      0.195216    39A      0.199126    40A      0.214496
      41A      0.240221    42A      0.240803    43A      0.246819
      44A      0.263357    45A      0.265624    46A      0.272557
      47A      0.283800    48A      0.286463    49A      0.304754
      50A      0.319767    51A      0.367643    52A      0.378057
      53A      0.401309    54A      0.455798    55A      0.465206
      56A      0.481996    57A      0.493784    58A      0.565378
      59A      0.579423    60A      0.599528    61A      0.603139
      62A      0.610658    63A      0.644661    64A      0.677645
      65A      0.685204    66A      0.685633    67A      0.694238
      68A      0.701310    69A      0.718515    70A      0.740531
      71A      0.746902    72A      0.747441    73A      0.758385
      74A      0.770300    75A      0.777937    76A      0.790638
      77A      0.823329    78A      0.847799    79A      0.861541
      80A      0.866472    81A      0.876117    82A      0.891093
      83A      0.894446    84A      0.895667    85A      0.898206
      86A      0.902782    87A      0.908393    88A      0.919632
      89A      0.928440    90A      0.938882    91A      0.946474
      92A      0.970353    93A      0.988673    94A      0.995889
      95A      1.011073    96A      1.041840    97A      1.125864
      98A      1.126835    99A      1.130715   100A      1.138823
     101A      1.149462   102A      1.157034   103A      1.181358
     104A      1.225395   105A      1.243592   106A      1.249301
     107A      1.252229   108A      1.267769   109A      1.304327
     110A      1.311536   111A      1.320793   112A      1.344613
     113A      1.414591   114A      1.477150   115A      1.484893
     116A      1.507018   117A      1.513451   118A      1.548809
     119A      1.580473   120A      1.594179   121A      1.681556
     122A      1.688599   123A      1.698040   124A      1.702705
     125A      1.731557   126A      1.759257   127A      1.764963
     128A      1.795194   129A      1.810182   130A      1.856673
     131A      1.861532   132A      1.874513   133A      1.891200
     134A      1.896552   135A      1.903113   136A      1.910172
     137A      1.924202   138A      1.926836   139A      1.942503
     140A      1.948322   141A      1.949145   142A      1.953666
     143A      1.961770   144A      1.962952   145A      1.974977
     146A      1.985854   147A      1.993545   148A      2.008459
     149A      2.047273   150A      2.055111   151A      2.070990
     152A      2.100645   153A      2.115423   154A      2.123818
     155A      2.152933   156A      2.161470   157A      2.169048
     158A      2.173970   159A      2.186271   160A      2.253099
     161A      2.278273   162A      2.296831   163A      2.300155
     164A      2.308050   165A      2.313235   166A      2.327282
     167A      2.335976   168A      2.448563   169A      2.468653
     170A      2.469950   171A      2.481006   172A      2.499781
     173A      2.548545   174A      2.565442   175A      2.577592
     176A      2.619194   177A      2.738339   178A      2.756827
     179A      2.762398   180A      2.766730   181A      2.790285
     182A      2.792277   183A      2.813605   184A      2.847068
     185A      2.861799   186A      2.866149   187A      2.871424
     188A      2.952279   189A      2.962183   190A      2.985621
     191A      3.022783   192A      3.025360   193A      3.159999
     194A      3.205470   195A      3.305216   196A      3.979824

    Final Occupation by Irrep:
              A
    DOCC [    34 ]

  @RHF Final Energy:  -348.99285623615566

   => Energetics <=

    Nuclear Repulsion Energy =            400.4669248724546264
    One-Electron Energy =               -1263.6557057556615291
    Two-Electron Energy =                 514.1959246470511289
    Total Energy =                       -348.9928562361557169

Computation Completed

Properties will be evaluated at   0.000000,   0.000000,   0.000000 [a0]

Properties computed using the SCF density matrix

  Nuclear Dipole Moment: [e a0]
     X:    -9.7799      Y:     2.0560      Z:    -8.8922

  Electronic Dipole Moment: [e a0]
     X:     9.8518      Y:    -1.9673      Z:     8.8512

  Dipole Moment: [e a0]
     X:     0.0719      Y:     0.0887      Z:    -0.0410     Total:     0.1213

  Dipole Moment: [D]
     X:     0.1828      Y:     0.2255      Z:    -0.1041     Total:     0.3084

*** tstop() called on ds3 at Sun Apr 26 22:28:14 2020
Module time:
	user time   =      60.10 seconds =       1.00 minutes
	system time =      24.85 seconds =       0.41 minutes
	total time  =        125 seconds =       2.08 minutes
Total time:
	user time   =      60.10 seconds =       1.00 minutes
	system time =      24.85 seconds =       0.41 minutes
	total time  =        125 seconds =       2.08 minutes
                                     G D M A

                                 by Anthony Stone

                           version 2.2.06, 22 June 2011

               Distributed Multipoles from Gaussian wavefunctions

Starting at 22:28:14 on 26 Apr 2020

Using SCF density matrix from file ./SSI/SSI-022PHE-099ALA-1-dimer.test.3604.fchk

                         Distributed Multipole Analysis

Standard DMA

Positions and radii in angstrom
Multipole moments in atomic units, ea_0^k for rank k

C          x =  1.543240  y =  2.117757  z = -0.547263 angstrom
           Maximum rank =  0   Radius =  0.650 angstrom
                   Q00  =  -0.200143

C          x =  0.842240  y = -0.301243  z = -0.413264 angstrom
           Maximum rank =  0   Radius =  0.650 angstrom
                   Q00  =  -0.044964

C          x =  1.220240  y =  0.873757  z =  0.240736 angstrom
           Maximum rank =  0   Radius =  0.650 angstrom
                   Q00  =  -0.106603

C          x =  0.634240  y = -1.472243  z =  0.303736 angstrom
           Maximum rank =  0   Radius =  0.650 angstrom
                   Q00  =  -0.068038

C          x =  0.810240  y = -1.473243  z =  1.670736 angstrom
           Maximum rank =  0   Radius =  0.650 angstrom
                   Q00  =  -0.022278

C          x =  1.371240  y =  0.860757  z =  1.623736 angstrom
           Maximum rank =  0   Radius =  0.650 angstrom
                   Q00  =  -0.086944

C          x =  1.173240  y = -0.319243  z =  2.343736 angstrom
           Maximum rank =  0   Radius =  0.650 angstrom
                   Q00  =  -0.069687

H          x =  0.725240  y = -0.304243  z = -1.488264 angstrom
           Maximum rank =  0   Radius =  0.325 angstrom
                   Q00  =   0.058322

H          x =  0.346240  y = -2.383243  z = -0.201264 angstrom
           Maximum rank =  0   Radius =  0.325 angstrom
                   Q00  =   0.062768

H          x =  2.005240  y =  1.812757  z = -1.488264 angstrom
           Maximum rank =  0   Radius =  0.325 angstrom
                   Q00  =   0.096253

H          x =  2.298240  y =  2.684757  z = -0.000264 angstrom
           Maximum rank =  0   Radius =  0.325 angstrom
                   Q00  =   0.096661

H          x =  0.639240  y = -2.381243  z =  2.225737 angstrom
           Maximum rank =  0   Radius =  0.325 angstrom
                   Q00  =   0.056995

H          x =  1.669240  y =  1.757757  z =  2.145737 angstrom
           Maximum rank =  0   Radius =  0.325 angstrom
                   Q00  =   0.057823

H          x =  1.303240  y = -0.334243  z =  3.417737 angstrom
           Maximum rank =  0   Radius =  0.325 angstrom
                   Q00  =   0.064902

H          x =  0.693420  y =  2.776977  z = -0.777993 angstrom
           Maximum rank =  0   Radius =  0.325 angstrom
                   Q00  =   0.105527

C          x = -2.712760  y = -0.073243  z = -1.845264 angstrom
           Maximum rank =  0   Radius =  0.650 angstrom
                   Q00  =  -0.239041

C          x = -4.005760  y = -0.397243  z = -2.580264 angstrom
           Maximum rank =  0   Radius =  0.650 angstrom
                   Q00  =  -0.227225

H          x = -2.902760  y =  0.648757  z = -1.054264 angstrom
           Maximum rank =  0   Radius =  0.325 angstrom
                   Q00  =   0.081208

H          x = -2.282760  y = -0.978243  z = -1.417263 angstrom
           Maximum rank =  0   Radius =  0.325 angstrom
                   Q00  =   0.080363

H          x = -1.993760  y =  0.360757  z = -2.538264 angstrom
           Maximum rank =  0   Radius =  0.325 angstrom
                   Q00  =   0.072290

H          x = -3.767760  y = -1.030243  z = -3.436264 angstrom
           Maximum rank =  0   Radius =  0.325 angstrom
                   Q00  =   0.074540

H          x = -4.477149  y =  0.528947  z = -2.940784 angstrom
           Maximum rank =  0   Radius =  0.325 angstrom
                   Q00  =   0.078514

H          x = -4.688144  y = -0.966133  z = -1.931644 angstrom
           Maximum rank =  0   Radius =  0.325 angstrom
                   Q00  =   0.078756

Total multipoles referred to origin at
           x =   0.000000,  y =    0.000000,  z =    0.000000 angstrom
                   Q00  =  -0.000000

Finished at 22:28:14 on 26 Apr 2020

  DMA results are available in the Python driver through the
	  variable('DMA DISTRIBUTED MULTIPOLES')
  and
	  variable('DMA TOTAL MULTIPOLES')
  commands.

    Psi4 stopped on: Sunday, 26 April 2020 10:28PM
    Psi4 wall time for execution: 0:02:05.33

*** Psi4 exiting successfully. Buy a developer a beer!
