                               Psi4 1.3.2 release

  ==> Input File <==

--------------------------------------------------------------------------
import numpy as np
set {scf_type pk
basis cc-pvdz
d_convergence 10
gdma_switch   0
gdma_limit    0
gdma_origin   [ 0.0,  0.0,  0.0 ]
}
molecule test {
    units Angstrom
    0 1
    --
    0 1
    C               -0.732605807681228    -1.239502887925243     1.668734531541616
    C                0.023394192318772    -0.276502887925242     2.570734531541616
    H               -1.249605807681228    -0.695502887925243     0.881734531541616
    H               -0.031605807681228    -1.932502887925242     1.218734531541616
    H               -1.459605807681228    -1.807502887925242     2.249734531541617
    H                0.738394192318772     0.276497112074758     1.963734531541616
    H               -0.677595807681228     0.425937112074758     3.045275531541616
    H                0.588184192318772    -0.824672887925243     3.339189531541616
    C                0.218394192318772     0.546497112074757    -1.403265468458383
    C                0.484394192318772     0.962497112074757    -2.838265468458384
    H                0.723394192318772    -0.391502887925242    -1.175265468458383
    H                0.606394192318772     1.312497112074757    -0.729265468458384
    H               -0.851605807681228     0.436497112074758    -1.232265468458383
    H                1.563394192318772     0.966497112074758    -3.009265468458383
    H                0.130394192318772     1.989497112074758    -2.935265468458384
    H               -0.003655807681228     0.327747112074758    -3.592525468458384

}
e, wfn = energy('scf', return_wfn=True)
gdma(wfn)
dmavals = variable('DMA DISTRIBUTED MULTIPOLES')
charges = np.array(dmavals)
print(charges)
np.save('SSI-120LEU-135ILE-1-dimer.npy', np.array(charges))--------------------------------------------------------------------------

*** tstart() called on ds3
*** at Sun Apr 26 17:53:53 2020

   => Loading Basis Set <=

    Name: CC-PVDZ
    Role: ORBITAL
    Keyword: BASIS
    atoms 1-2, 9-10  entry C          line   138 file /theoryfs2/ds/metcalf/miniconda2/envs/tf2gpu/share/psi4/basis/cc-pvdz.gbs
    atoms 3-8, 11-16 entry H          line    22 file /theoryfs2/ds/metcalf/miniconda2/envs/tf2gpu/share/psi4/basis/cc-pvdz.gbs

         ---------------------------------------------------------
                                   SCF
               by Justin Turney, Rob Parrish, Andy Simmonett
                          and Daniel G. A. Smith
                              RHF Reference
                        1 Threads,    500 MiB Core
         ---------------------------------------------------------

  ==> Geometry <==

    Molecular point group: c1
    Full point group: C1

    Geometry (in Angstrom), charge = 0, multiplicity = 1:

       Center              X                  Y                   Z               Mass
    ------------   -----------------  -----------------  -----------------  -----------------
         C           -0.732605807681    -1.239502887925     1.668734531542    12.000000000000
         C            0.023394192319    -0.276502887925     2.570734531542    12.000000000000
         H           -1.249605807681    -0.695502887925     0.881734531542     1.007825032230
         H           -0.031605807681    -1.932502887925     1.218734531542     1.007825032230
         H           -1.459605807681    -1.807502887925     2.249734531542     1.007825032230
         H            0.738394192319     0.276497112075     1.963734531542     1.007825032230
         H           -0.677595807681     0.425937112075     3.045275531542     1.007825032230
         H            0.588184192319    -0.824672887925     3.339189531542     1.007825032230
         C            0.218394192319     0.546497112075    -1.403265468458    12.000000000000
         C            0.484394192319     0.962497112075    -2.838265468458    12.000000000000
         H            0.723394192319    -0.391502887925    -1.175265468458     1.007825032230
         H            0.606394192319     1.312497112075    -0.729265468458     1.007825032230
         H           -0.851605807681     0.436497112075    -1.232265468458     1.007825032230
         H            1.563394192319     0.966497112075    -3.009265468458     1.007825032230
         H            0.130394192319     1.989497112075    -2.935265468458     1.007825032230
         H           -0.003655807681     0.327747112075    -3.592525468458     1.007825032230

  Running in c1 symmetry.

  Rotational constants: A =      0.56401  B =      0.04895  C =      0.04664 [cm^-1]
  Rotational constants: A =  16908.73105  B =   1467.54792  C =   1398.32106 [MHz]
  Nuclear repulsion =  123.022011369392885

  Charge       = 0
  Multiplicity = 1
  Electrons    = 36
  Nalpha       = 18
  Nbeta        = 18

  ==> Algorithm <==

  SCF Algorithm Type is PK.
  DIIS enabled.
  MOM disabled.
  Fractional occupation disabled.
  Guess Type is SAD.
  Energy threshold   = 1.00e-06
  Density threshold  = 1.00e-10
  Integral threshold = 0.00e+00

  ==> Primary Basis <==

  Basis Set: CC-PVDZ
    Blend: CC-PVDZ
    Number of shells: 60
    Number of basis function: 116
    Number of Cartesian functions: 120
    Spherical Harmonics?: true
    Max angular momentum: 2

  ==> Pre-Iterations <==

   -------------------------------------------------------
    Irrep   Nso     Nmo     Nalpha   Nbeta   Ndocc  Nsocc
   -------------------------------------------------------
     A        116     116       0       0       0       0
   -------------------------------------------------------
    Total     116     116      18      18      18       0
   -------------------------------------------------------

  ==> Integral Setup <==

  Using integral reordering PK algorithm.
  Sizing the integral batches needed.
  Building batch lookup table.
   Calculation information:
      Number of atoms:                  16
      Number of AO shells:              60
      Number of primitives:            148
      Number of atomic orbitals:       120
      Number of basis functions:       116

      Integral cutoff                 1.00e-12
      Number of threads:                 1

	Batch   1 pq = [       0,    6786] index = [             0,23028291] size =     23028291
  Task number: 3
  Buffer size: 11059200
  Buffer per thread: 2
  We computed 1440250 shell quartets total.
  Whereas there are 1675365 unique shell quartets.

  ==> DiskJK: Disk-Based J/K Matrices <==

    J tasked:                  Yes
    K tasked:                  Yes
    wK tasked:                  No
    Memory [MiB]:              375
    Schwarz Cutoff:          1E-12

    OpenMP threads:              1

  Minimum eigenvalue in the overlap matrix is 6.2412423633E-03.
  Using Symmetric Orthogonalization.

  SCF Guess: Superposition of Atomic Densities via on-the-fly atomic UHF.

  ==> Iterations <==

                        Total Energy        Delta E     RMS |[F,P]|

   @RHF iter SAD:  -157.38985072852429   -1.57390e+02   0.00000e+00
   @RHF iter   1:  -158.30466578120092   -9.14815e-01   4.25193e-03 DIIS
   @RHF iter   2:  -158.43995655408702   -1.35291e-01   1.81770e-03 DIIS
   @RHF iter   3:  -158.46388130591106   -2.39248e-02   3.51182e-04 DIIS
   @RHF iter   4:  -158.46572454067086   -1.84323e-03   3.84843e-05 DIIS
   @RHF iter   5:  -158.46574775695839   -2.32163e-05   6.37519e-06 DIIS
   @RHF iter   6:  -158.46574835768763   -6.00729e-07   1.05732e-06 DIIS
   @RHF iter   7:  -158.46574836882587   -1.11382e-08   3.03211e-07 DIIS
   @RHF iter   8:  -158.46574836964825   -8.22382e-10   4.33707e-08 DIIS
   @RHF iter   9:  -158.46574836967710   -2.88480e-11   9.57697e-09 DIIS
   @RHF iter  10:  -158.46574836967875   -1.64846e-12   2.45403e-09 DIIS
   @RHF iter  11:  -158.46574836967852    2.27374e-13   7.31247e-10 DIIS
   @RHF iter  12:  -158.46574836967844    8.52651e-14   1.93212e-10 DIIS
   @RHF iter  13:  -158.46574836967852   -8.52651e-14   2.39951e-11 DIIS
  Energy and wave function converged.

  ==> Post-Iterations <==

    Orbital Energies [Eh]
    ---------------------

    Doubly Occupied:

       1A    -11.218025     2A    -11.217209     3A    -11.216790
       4A    -11.213416     5A     -1.022637     6A     -1.018685
       7A     -0.838099     8A     -0.833934     9A     -0.602174
      10A     -0.600259    11A     -0.597816    12A     -0.596493
      13A     -0.505936    14A     -0.499483    15A     -0.489957
      16A     -0.486339    17A     -0.481955    18A     -0.477964

    Virtual:

      19A      0.173591    20A      0.195186    21A      0.227294
      22A      0.231267    23A      0.235118    24A      0.261740
      25A      0.264135    26A      0.276637    27A      0.278996
      28A      0.302354    29A      0.320899    30A      0.348889
      31A      0.399496    32A      0.406059    33A      0.566575
      34A      0.590800    35A      0.600448    36A      0.602463
      37A      0.607053    38A      0.642053    39A      0.674910
      40A      0.688837    41A      0.705897    42A      0.768406
      43A      0.851210    44A      0.858095    45A      0.888101
      46A      0.888227    47A      0.892800    48A      0.898139
      49A      0.905085    50A      0.912560    51A      0.919501
      52A      0.929231    53A      0.952664    54A      0.959788
      55A      0.979733    56A      1.008633    57A      1.120651
      58A      1.128099    59A      1.132120    60A      1.145880
      61A      1.222228    62A      1.265067    63A      1.464199
      64A      1.476982    65A      1.487420    66A      1.492794
      67A      1.573805    68A      1.594887    69A      1.681529
      70A      1.684873    71A      1.694252    72A      1.701049
      73A      1.843681    74A      1.857848    75A      1.874820
      76A      1.888378    77A      1.896866    78A      1.900773
      79A      1.941252    80A      1.946415    81A      1.949434
      82A      1.952469    83A      1.955921    84A      1.962801
      85A      1.969799    86A      1.977858    87A      1.980555
      88A      2.063900    89A      2.090676    90A      2.107084
      91A      2.125608    92A      2.139917    93A      2.297081
      94A      2.309389    95A      2.316142    96A      2.344760
      97A      2.445479    98A      2.458151    99A      2.470737
     100A      2.473148   101A      2.556990   102A      2.568263
     103A      2.583985   104A      2.589328   105A      2.764320
     106A      2.768824   107A      2.785237   108A      2.805059
     109A      2.848741   110A      2.857417   111A      2.861323
     112A      2.869249   113A      2.946196   114A      2.951727
     115A      2.974549   116A      2.980354

    Final Occupation by Irrep:
              A
    DOCC [    18 ]

  @RHF Final Energy:  -158.46574836967852

   => Energetics <=

    Nuclear Repulsion Energy =            123.0220113693928852
    One-Electron Energy =                -455.1411797098572265
    Two-Electron Energy =                 173.6534199707858193
    Total Energy =                       -158.4657483696785221

Computation Completed

Properties will be evaluated at   0.000000,   0.000000,   0.000000 [a0]

Properties computed using the SCF density matrix

  Nuclear Dipole Moment: [e a0]
     X:     0.0717      Y:     0.0783      Z:     0.0230

  Electronic Dipole Moment: [e a0]
     X:    -0.0640      Y:    -0.0687      Z:    -0.0429

  Dipole Moment: [e a0]
     X:     0.0077      Y:     0.0096      Z:    -0.0199     Total:     0.0234

  Dipole Moment: [D]
     X:     0.0196      Y:     0.0244      Z:    -0.0505     Total:     0.0594

*** tstop() called on ds3 at Sun Apr 26 17:54:04 2020
Module time:
	user time   =       7.94 seconds =       0.13 minutes
	system time =       3.30 seconds =       0.06 minutes
	total time  =         11 seconds =       0.18 minutes
Total time:
	user time   =       7.94 seconds =       0.13 minutes
	system time =       3.30 seconds =       0.06 minutes
	total time  =         11 seconds =       0.18 minutes
                                     G D M A

                                 by Anthony Stone

                           version 2.2.06, 22 June 2011

               Distributed Multipoles from Gaussian wavefunctions

Starting at 17:54:4 on 26 Apr 2020

Using SCF density matrix from file ./SSI/SSI-120LEU-135ILE-1-dimer.test.12623.fchk

                         Distributed Multipole Analysis

Standard DMA

Positions and radii in angstrom
Multipole moments in atomic units, ea_0^k for rank k

C          x = -0.732606  y = -1.239503  z =  1.668735 angstrom
           Maximum rank =  0   Radius =  0.650 angstrom
                   Q00  =  -0.231638

C          x =  0.023394  y = -0.276503  z =  2.570735 angstrom
           Maximum rank =  0   Radius =  0.650 angstrom
                   Q00  =  -0.239671

H          x = -1.249606  y = -0.695503  z =  0.881735 angstrom
           Maximum rank =  0   Radius =  0.325 angstrom
                   Q00  =   0.083632

H          x = -0.031606  y = -1.932503  z =  1.218735 angstrom
           Maximum rank =  0   Radius =  0.325 angstrom
                   Q00  =   0.077727

H          x = -1.459606  y = -1.807503  z =  2.249735 angstrom
           Maximum rank =  0   Radius =  0.325 angstrom
                   Q00  =   0.076192

H          x =  0.738394  y =  0.276497  z =  1.963735 angstrom
           Maximum rank =  0   Radius =  0.325 angstrom
                   Q00  =   0.078037

H          x = -0.677596  y =  0.425937  z =  3.045276 angstrom
           Maximum rank =  0   Radius =  0.325 angstrom
                   Q00  =   0.077421

H          x =  0.588184  y = -0.824673  z =  3.339190 angstrom
           Maximum rank =  0   Radius =  0.325 angstrom
                   Q00  =   0.077595

C          x =  0.218394  y =  0.546497  z = -1.403265 angstrom
           Maximum rank =  0   Radius =  0.650 angstrom
                   Q00  =  -0.236604

C          x =  0.484394  y =  0.962497  z = -2.838265 angstrom
           Maximum rank =  0   Radius =  0.650 angstrom
                   Q00  =  -0.232200

H          x =  0.723394  y = -0.391503  z = -1.175265 angstrom
           Maximum rank =  0   Radius =  0.325 angstrom
                   Q00  =   0.077391

H          x =  0.606394  y =  1.312497  z = -0.729265 angstrom
           Maximum rank =  0   Radius =  0.325 angstrom
                   Q00  =   0.078397

H          x = -0.851606  y =  0.436497  z = -1.232265 angstrom
           Maximum rank =  0   Radius =  0.325 angstrom
                   Q00  =   0.078466

H          x =  1.563394  y =  0.966497  z = -3.009265 angstrom
           Maximum rank =  0   Radius =  0.325 angstrom
                   Q00  =   0.077481

H          x =  0.130394  y =  1.989497  z = -2.935265 angstrom
           Maximum rank =  0   Radius =  0.325 angstrom
                   Q00  =   0.075355

H          x = -0.003656  y =  0.327747  z = -3.592525 angstrom
           Maximum rank =  0   Radius =  0.325 angstrom
                   Q00  =   0.082419

Total multipoles referred to origin at
           x =   0.000000,  y =    0.000000,  z =    0.000000 angstrom
                   Q00  =  -0.000000

Finished at 17:54:4 on 26 Apr 2020

  DMA results are available in the Python driver through the
	  variable('DMA DISTRIBUTED MULTIPOLES')
  and
	  variable('DMA TOTAL MULTIPOLES')
  commands.

    Psi4 stopped on: Sunday, 26 April 2020 05:54PM
    Psi4 wall time for execution: 0:00:11.24

*** Psi4 exiting successfully. Buy a developer a beer!
