                               Psi4 1.3.2 release

  ==> Input File <==

--------------------------------------------------------------------------
import numpy as np
set {scf_type pk
basis cc-pvdz
d_convergence 10
gdma_switch   0
gdma_limit    0
gdma_origin   [ 0.0,  0.0,  0.0 ]
}
molecule test {
    units Angstrom
    0 1
    --
    0 1
    C               -0.036860995756542    -0.031990307774716     3.978895586544556
    C                0.670139004243458    -0.738990307774716     0.382895586544556
    C                0.246139004243458     0.147009692225284     1.398895586544556
    C                0.285139004243458    -0.571990307774716     2.637895586544556
    C                0.717139004243458    -1.824990307774716     2.342895586544556
    C                0.412139004243458     0.954009692225284    -1.268104413455444
    C                0.745139004243458    -0.354990307774716    -0.950104413455444
    C               -0.021860995756542     1.843009692225284    -0.286104413455444
    C               -0.095860995756542     1.458009692225284     1.044895586544556
    N                0.918139004243458    -1.938990307774716     0.991895586544556
    H                0.496139004243458     1.293009692225284    -2.290104413455444
    H                1.064139004243458    -1.054990307774716    -1.708104413455444
    H               -0.280860995756542     2.858009692225284    -0.562104413455444
    H               -0.412860995756542     2.159009692225284     1.802895586544556
    H                1.279139004243458    -2.772990307774716     0.526895586544556
    H                0.890139004243458    -2.618990307774716     3.060895586544556
    H               -0.722860995756542     0.810009692225284     3.879895586544555
    H                0.897139004243458     0.353009692225284     4.390895586544555
    H               -0.465020995756542    -0.774030307774716     4.668865586544555
    C               -1.782860995756542     0.007009692225284    -4.095104413455444
    C               -1.585860995756542     1.083009692225284    -5.165104413455444
    H               -0.872860995756542    -0.149990307774716    -3.520104413455444
    H               -2.580860995756542     0.313009692225284    -3.418104413455444
    H               -2.063860995756542    -0.934990307774716    -4.568104413455445
    H               -2.500860995756542     1.134009692225284    -5.744104413455444
    H               -0.762030995756542     0.810559692225284    -5.841174413455446
    H               -1.393600995756542     2.070549692225284    -4.720364413455444

}
e, wfn = energy('scf', return_wfn=True)
gdma(wfn)
dmavals = variable('DMA DISTRIBUTED MULTIPOLES')
charges = np.array(dmavals)
print(charges)
np.save('SSI-065TRP-154THR-1-dimer.npy', np.array(charges))--------------------------------------------------------------------------

*** tstart() called on ds3
*** at Tue Apr 28 03:09:28 2020

   => Loading Basis Set <=

    Name: CC-PVDZ
    Role: ORBITAL
    Keyword: BASIS
    atoms 1-9, 20-21   entry C          line   138 file /theoryfs2/ds/metcalf/miniconda2/envs/tf2gpu/share/psi4/basis/cc-pvdz.gbs
    atoms 10           entry N          line   168 file /theoryfs2/ds/metcalf/miniconda2/envs/tf2gpu/share/psi4/basis/cc-pvdz.gbs
    atoms 11-19, 22-27 entry H          line    22 file /theoryfs2/ds/metcalf/miniconda2/envs/tf2gpu/share/psi4/basis/cc-pvdz.gbs

         ---------------------------------------------------------
                                   SCF
               by Justin Turney, Rob Parrish, Andy Simmonett
                          and Daniel G. A. Smith
                              RHF Reference
                        1 Threads,    500 MiB Core
         ---------------------------------------------------------

  ==> Geometry <==

    Molecular point group: c1
    Full point group: C1

    Geometry (in Angstrom), charge = 0, multiplicity = 1:

       Center              X                  Y                   Z               Mass
    ------------   -----------------  -----------------  -----------------  -----------------
         C           -0.036860995757    -0.031990307775     3.978895586545    12.000000000000
         C            0.670139004243    -0.738990307775     0.382895586545    12.000000000000
         C            0.246139004243     0.147009692225     1.398895586545    12.000000000000
         C            0.285139004243    -0.571990307775     2.637895586545    12.000000000000
         C            0.717139004243    -1.824990307775     2.342895586545    12.000000000000
         C            0.412139004243     0.954009692225    -1.268104413455    12.000000000000
         C            0.745139004243    -0.354990307775    -0.950104413455    12.000000000000
         C           -0.021860995757     1.843009692225    -0.286104413455    12.000000000000
         C           -0.095860995757     1.458009692225     1.044895586545    12.000000000000
         N            0.918139004243    -1.938990307775     0.991895586545    14.003074004430
         H            0.496139004243     1.293009692225    -2.290104413455     1.007825032230
         H            1.064139004243    -1.054990307775    -1.708104413455     1.007825032230
         H           -0.280860995757     2.858009692225    -0.562104413455     1.007825032230
         H           -0.412860995757     2.159009692225     1.802895586545     1.007825032230
         H            1.279139004243    -2.772990307775     0.526895586545     1.007825032230
         H            0.890139004243    -2.618990307775     3.060895586545     1.007825032230
         H           -0.722860995757     0.810009692225     3.879895586545     1.007825032230
         H            0.897139004243     0.353009692225     4.390895586545     1.007825032230
         H           -0.465020995757    -0.774030307775     4.668865586545     1.007825032230
         C           -1.782860995757     0.007009692225    -4.095104413455    12.000000000000
         C           -1.585860995757     1.083009692225    -5.165104413455    12.000000000000
         H           -0.872860995757    -0.149990307775    -3.520104413455     1.007825032230
         H           -2.580860995757     0.313009692225    -3.418104413455     1.007825032230
         H           -2.063860995757    -0.934990307775    -4.568104413455     1.007825032230
         H           -2.500860995757     1.134009692225    -5.744104413455     1.007825032230
         H           -0.762030995757     0.810559692225    -5.841174413455     1.007825032230
         H           -1.393600995757     2.070549692225    -4.720364413455     1.007825032230

  Running in c1 symmetry.

  Rotational constants: A =      0.06489  B =      0.01280  C =      0.01151 [cm^-1]
  Rotational constants: A =   1945.31427  B =    383.61168  C =    344.94093 [MHz]
  Nuclear repulsion =  641.445818427879999

  Charge       = 0
  Multiplicity = 1
  Electrons    = 88
  Nalpha       = 44
  Nbeta        = 44

  ==> Algorithm <==

  SCF Algorithm Type is PK.
  DIIS enabled.
  MOM disabled.
  Fractional occupation disabled.
  Guess Type is SAD.
  Energy threshold   = 1.00e-06
  Density threshold  = 1.00e-10
  Integral threshold = 0.00e+00

  ==> Primary Basis <==

  Basis Set: CC-PVDZ
    Blend: CC-PVDZ
    Number of shells: 117
    Number of basis function: 243
    Number of Cartesian functions: 255
    Spherical Harmonics?: true
    Max angular momentum: 2

  ==> Pre-Iterations <==

   -------------------------------------------------------
    Irrep   Nso     Nmo     Nalpha   Nbeta   Ndocc  Nsocc
   -------------------------------------------------------
     A        243     243       0       0       0       0
   -------------------------------------------------------
    Total     243     243      44      44      44       0
   -------------------------------------------------------

  ==> Integral Setup <==

  Using integral reordering PK algorithm.
  Sizing the integral batches needed.
  Building batch lookup table.
   Calculation information:
      Number of atoms:                  27
      Number of AO shells:             117
      Number of primitives:            339
      Number of atomic orbitals:       255
      Number of basis functions:       243

      Integral cutoff                 1.00e-12
      Number of threads:                 1

	Batch   1 pq = [       0,    9405] index = [             0,44231715] size =     44231715
	Batch   2 pq = [    9405,   13301] index = [      44231715,88464951] size =     44233236
	Batch   3 pq = [   13301,   16290] index = [      88464951,132690195] size =     44225244
	Batch   4 pq = [   16290,   18810] index = [     132690195,176917455] size =     44227260
	Batch   5 pq = [   18810,   21030] index = [     176917455,221140965] size =     44223510
	Batch   6 pq = [   21030,   23037] index = [     221140965,265363203] size =     44222238
	Batch   7 pq = [   23037,   24883] index = [     265363203,309594286] size =     44231083
	Batch   8 pq = [   24883,   26601] index = [     309594286,353819901] size =     44225615
	Batch   9 pq = [   26601,   28214] index = [     353819901,398029005] size =     44209104
	Batch  10 pq = [   28214,   29646] index = [     398029005,439457481] size =     41428476
  Task number: 40
  Buffer size: 11059200
  Buffer per thread: 2
  We computed 19110919 shell quartets total.
  Whereas there are 23829156 unique shell quartets.

  ==> DiskJK: Disk-Based J/K Matrices <==

    J tasked:                  Yes
    K tasked:                  Yes
    wK tasked:                  No
    Memory [MiB]:              375
    Schwarz Cutoff:          1E-12

    OpenMP threads:              1

  Minimum eigenvalue in the overlap matrix is 2.3337378942E-04.
  Using Symmetric Orthogonalization.

  SCF Guess: Superposition of Atomic Densities via on-the-fly atomic UHF.

  ==> Iterations <==

                        Total Energy        Delta E     RMS |[F,P]|

   @RHF iter SAD:  -479.11972301683591   -4.79120e+02   0.00000e+00
   @RHF iter   1:  -479.48438141340057   -3.64658e-01   2.62339e-03 DIIS
   @RHF iter   2:  -479.71901340398580   -2.34632e-01   1.17320e-03 DIIS
   @RHF iter   3:  -479.76185101998095   -4.28376e-02   3.05584e-04 DIIS
   @RHF iter   4:  -479.76569474470347   -3.84372e-03   1.41239e-04 DIIS
   @RHF iter   5:  -479.76636047753692   -6.65733e-04   1.98831e-05 DIIS
   @RHF iter   6:  -479.76638990877427   -2.94312e-05   9.22229e-06 DIIS
   @RHF iter   7:  -479.76639604960661   -6.14083e-06   3.92204e-06 DIIS
   @RHF iter   8:  -479.76639789873354   -1.84913e-06   1.55967e-06 DIIS
   @RHF iter   9:  -479.76639826891227   -3.70179e-07   6.96664e-07 DIIS
   @RHF iter  10:  -479.76639834221504   -7.33028e-08   3.16518e-07 DIIS
   @RHF iter  11:  -479.76639835924215   -1.70271e-08   1.14228e-07 DIIS
   @RHF iter  12:  -479.76639836142743   -2.18529e-09   3.69820e-08 DIIS
   @RHF iter  13:  -479.76639836156926   -1.41824e-10   1.04380e-08 DIIS
   @RHF iter  14:  -479.76639836158233   -1.30740e-11   4.65737e-09 DIIS
   @RHF iter  15:  -479.76639836158608   -3.75167e-12   2.38815e-09 DIIS
   @RHF iter  16:  -479.76639836158506    1.02318e-12   9.76912e-10 DIIS
   @RHF iter  17:  -479.76639836158290    2.16005e-12   3.95612e-10 DIIS
   @RHF iter  18:  -479.76639836158449   -1.59162e-12   1.57023e-10 DIIS
   @RHF iter  19:  -479.76639836158222    2.27374e-12   5.56086e-11 DIIS
  Energy and wave function converged.

  ==> Post-Iterations <==

    Orbital Energies [Eh]
    ---------------------

    Doubly Occupied:

       1A    -15.600298     2A    -11.261964     3A    -11.261177
       4A    -11.229943     5A    -11.229536     6A    -11.227883
       7A    -11.224706     8A    -11.219547     9A    -11.218721
      10A    -11.215942    11A    -11.214781    12A    -11.211115
      13A     -1.296228    14A     -1.129502    15A     -1.075223
      16A     -1.014194    17A     -0.997405    18A     -0.988963
      19A     -0.931920    20A     -0.840460    21A     -0.833496
      22A     -0.802858    23A     -0.752507    24A     -0.718527
      25A     -0.662438    26A     -0.643444    27A     -0.604256
      28A     -0.594249    29A     -0.593402    30A     -0.593126
      31A     -0.590027    32A     -0.569668    33A     -0.552883
      34A     -0.538164    35A     -0.526203    36A     -0.496396
      37A     -0.494445    38A     -0.482818    39A     -0.481959
      40A     -0.472466    41A     -0.461119    42A     -0.370913
      43A     -0.296298    44A     -0.272892

    Virtual:

      45A      0.125179    46A      0.170037    47A      0.174654
      48A      0.182449    49A      0.192070    50A      0.215002
      51A      0.221219    52A      0.225005    53A      0.234221
      54A      0.244181    55A      0.254674    56A      0.264252
      57A      0.273120    58A      0.276722    59A      0.292997
      60A      0.299833    61A      0.309893    62A      0.342370
      63A      0.373676    64A      0.385088    65A      0.397793
      66A      0.408836    67A      0.432216    68A      0.449363
      69A      0.471162    70A      0.485152    71A      0.508400
      72A      0.521569    73A      0.593210    74A      0.597391
      75A      0.608241    76A      0.618831    77A      0.622636
      78A      0.637406    79A      0.643795    80A      0.658069
      81A      0.664306    82A      0.686698    83A      0.698318
      84A      0.715065    85A      0.720433    86A      0.730759
      87A      0.739479    88A      0.743852    89A      0.747688
      90A      0.756277    91A      0.769341    92A      0.774317
      93A      0.791603    94A      0.795579    95A      0.821611
      96A      0.838622    97A      0.851400    98A      0.868782
      99A      0.877010   100A      0.878385   101A      0.885665
     102A      0.890282   103A      0.894629   104A      0.898406
     105A      0.903837   106A      0.911312   107A      0.927432
     108A      0.937751   109A      0.947808   110A      0.951383
     111A      0.957682   112A      0.969423   113A      0.984024
     114A      0.992463   115A      1.008280   116A      1.023714
     117A      1.071390   118A      1.074334   119A      1.099716
     120A      1.123605   121A      1.130698   122A      1.135598
     123A      1.143759   124A      1.147870   125A      1.166100
     126A      1.175922   127A      1.215351   128A      1.224389
     129A      1.232020   130A      1.240975   131A      1.252657
     132A      1.280533   133A      1.283322   134A      1.293122
     135A      1.301019   136A      1.325788   137A      1.342509
     138A      1.364976   139A      1.374631   140A      1.417294
     141A      1.448728   142A      1.481368   143A      1.487048
     144A      1.529083   145A      1.553079   146A      1.572664
     147A      1.585359   148A      1.605495   149A      1.630494
     150A      1.637724   151A      1.645627   152A      1.687818
     153A      1.693820   154A      1.701174   155A      1.709454
     156A      1.742003   157A      1.765362   158A      1.777258
     159A      1.794807   160A      1.811703   161A      1.830527
     162A      1.844049   163A      1.875231   164A      1.876189
     165A      1.884226   166A      1.887159   167A      1.893221
     168A      1.897637   169A      1.908981   170A      1.922555
     171A      1.924187   172A      1.944693   173A      1.946348
     174A      1.952617   175A      1.956259   176A      1.962864
     177A      1.968451   178A      1.984208   179A      1.987307
     180A      2.000098   181A      2.008840   182A      2.028714
     183A      2.048187   184A      2.073755   185A      2.084218
     186A      2.094814   187A      2.098629   188A      2.112711
     189A      2.114998   190A      2.129654   191A      2.138049
     192A      2.142723   193A      2.175134   194A      2.181874
     195A      2.186572   196A      2.232125   197A      2.261816
     198A      2.278552   199A      2.294311   200A      2.304348
     201A      2.315635   202A      2.324240   203A      2.345754
     204A      2.356039   205A      2.399721   206A      2.432106
     207A      2.457404   208A      2.463926   209A      2.467289
     210A      2.475599   211A      2.541001   212A      2.565461
     213A      2.578252   214A      2.583863   215A      2.599708
     216A      2.644325   217A      2.662233   218A      2.692754
     219A      2.730576   220A      2.764298   221A      2.776360
     222A      2.777501   223A      2.778689   224A      2.801579
     225A      2.810316   226A      2.827450   227A      2.839236
     228A      2.861762   229A      2.868548   230A      2.874839
     231A      2.921986   232A      2.955041   233A      2.979266
     234A      2.989010   235A      3.045033   236A      3.058968
     237A      3.087970   238A      3.128984   239A      3.214607
     240A      3.313534   241A      3.389180   242A      3.739937
     243A      3.961575

    Final Occupation by Irrep:
              A
    DOCC [    44 ]

  @RHF Final Energy:  -479.76639836158222

   => Energetics <=

    Nuclear Repulsion Energy =            641.4458184278799990
    One-Electron Energy =               -1920.8363085495002451
    Two-Electron Energy =                 799.6240917600379134
    Total Energy =                       -479.7663983615822190

Computation Completed

Properties will be evaluated at   0.000000,   0.000000,   0.000000 [a0]

Properties computed using the SCF density matrix

  Nuclear Dipole Moment: [e a0]
     X:    -6.9671      Y:     3.2823      Z:   -13.1668

  Electronic Dipole Moment: [e a0]
     X:     7.2434      Y:    -4.0349      Z:    13.3200

  Dipole Moment: [e a0]
     X:     0.2763      Y:    -0.7526      Z:     0.1533     Total:     0.8162

  Dipole Moment: [D]
     X:     0.7022      Y:    -1.9130      Z:     0.3896     Total:     2.0747

*** tstop() called on ds3 at Tue Apr 28 03:13:15 2020
Module time:
	user time   =     162.61 seconds =       2.71 minutes
	system time =      71.92 seconds =       1.20 minutes
	total time  =        227 seconds =       3.78 minutes
Total time:
	user time   =     162.61 seconds =       2.71 minutes
	system time =      71.92 seconds =       1.20 minutes
	total time  =        227 seconds =       3.78 minutes
                                     G D M A

                                 by Anthony Stone

                           version 2.2.06, 22 June 2011

               Distributed Multipoles from Gaussian wavefunctions

Starting at 3:13:15 on 28 Apr 2020

Using SCF density matrix from file ./SSI/SSI-065TRP-154THR-1-dimer.test.20789.fchk

                         Distributed Multipole Analysis

Standard DMA

Positions and radii in angstrom
Multipole moments in atomic units, ea_0^k for rank k

C          x = -0.036861  y = -0.031990  z =  3.978896 angstrom
           Maximum rank =  0   Radius =  0.650 angstrom
                   Q00  =  -0.215392

C          x =  0.670139  y = -0.738990  z =  0.382896 angstrom
           Maximum rank =  0   Radius =  0.650 angstrom
                   Q00  =   0.304325

C          x =  0.246139  y =  0.147010  z =  1.398896 angstrom
           Maximum rank =  0   Radius =  0.650 angstrom
                   Q00  =  -0.051808

C          x =  0.285139  y = -0.571990  z =  2.637896 angstrom
           Maximum rank =  0   Radius =  0.650 angstrom
                   Q00  =  -0.113586

C          x =  0.717139  y = -1.824990  z =  2.342896 angstrom
           Maximum rank =  0   Radius =  0.650 angstrom
                   Q00  =   0.069907

C          x =  0.412139  y =  0.954010  z = -1.268104 angstrom
           Maximum rank =  0   Radius =  0.650 angstrom
                   Q00  =  -0.075870

C          x =  0.745139  y = -0.354990  z = -0.950104 angstrom
           Maximum rank =  0   Radius =  0.650 angstrom
                   Q00  =  -0.128093

C          x = -0.021861  y =  1.843010  z = -0.286104 angstrom
           Maximum rank =  0   Radius =  0.650 angstrom
                   Q00  =  -0.075155

C          x = -0.095861  y =  1.458010  z =  1.044896 angstrom
           Maximum rank =  0   Radius =  0.650 angstrom
                   Q00  =  -0.100504

N          x =  0.918139  y = -1.938990  z =  0.991896 angstrom
           Maximum rank =  0   Radius =  0.650 angstrom
                   Q00  =  -0.499963

H          x =  0.496139  y =  1.293010  z = -2.290104 angstrom
           Maximum rank =  0   Radius =  0.325 angstrom
                   Q00  =   0.064174

H          x =  1.064139  y = -1.054990  z = -1.708104 angstrom
           Maximum rank =  0   Radius =  0.325 angstrom
                   Q00  =   0.073418

H          x = -0.280861  y =  2.858010  z = -0.562104 angstrom
           Maximum rank =  0   Radius =  0.325 angstrom
                   Q00  =   0.058558

H          x = -0.412861  y =  2.159010  z =  1.802896 angstrom
           Maximum rank =  0   Radius =  0.325 angstrom
                   Q00  =   0.068641

H          x =  1.279139  y = -2.772990  z =  0.526896 angstrom
           Maximum rank =  0   Radius =  0.325 angstrom
                   Q00  =   0.215892

H          x =  0.890139  y = -2.618990  z =  3.060896 angstrom
           Maximum rank =  0   Radius =  0.325 angstrom
                   Q00  =   0.099084

H          x = -0.722861  y =  0.810010  z =  3.879896 angstrom
           Maximum rank =  0   Radius =  0.325 angstrom
                   Q00  =   0.105205

H          x =  0.897139  y =  0.353010  z =  4.390896 angstrom
           Maximum rank =  0   Radius =  0.325 angstrom
                   Q00  =   0.096507

H          x = -0.465021  y = -0.774030  z =  4.668866 angstrom
           Maximum rank =  0   Radius =  0.325 angstrom
                   Q00  =   0.105925

C          x = -1.782861  y =  0.007010  z = -4.095104 angstrom
           Maximum rank =  0   Radius =  0.650 angstrom
                   Q00  =  -0.224953

C          x = -1.585861  y =  1.083010  z = -5.165104 angstrom
           Maximum rank =  0   Radius =  0.650 angstrom
                   Q00  =  -0.246601

H          x = -0.872861  y = -0.149990  z = -3.520104 angstrom
           Maximum rank =  0   Radius =  0.325 angstrom
                   Q00  =   0.080352

H          x = -2.580861  y =  0.313010  z = -3.418104 angstrom
           Maximum rank =  0   Radius =  0.325 angstrom
                   Q00  =   0.082841

H          x = -2.063861  y = -0.934990  z = -4.568104 angstrom
           Maximum rank =  0   Radius =  0.325 angstrom
                   Q00  =   0.074739

H          x = -2.500861  y =  1.134010  z = -5.744104 angstrom
           Maximum rank =  0   Radius =  0.325 angstrom
                   Q00  =   0.078897

H          x = -0.762031  y =  0.810560  z = -5.841174 angstrom
           Maximum rank =  0   Radius =  0.325 angstrom
                   Q00  =   0.075456

H          x = -1.393601  y =  2.070550  z = -4.720364 angstrom
           Maximum rank =  0   Radius =  0.325 angstrom
                   Q00  =   0.078004

Total multipoles referred to origin at
           x =   0.000000,  y =    0.000000,  z =    0.000000 angstrom
                   Q00  =  -0.000000

Finished at 3:13:15 on 28 Apr 2020

  DMA results are available in the Python driver through the
	  variable('DMA DISTRIBUTED MULTIPOLES')
  and
	  variable('DMA TOTAL MULTIPOLES')
  commands.

    Psi4 stopped on: Tuesday, 28 April 2020 03:13AM
    Psi4 wall time for execution: 0:03:47.30

*** Psi4 exiting successfully. Buy a developer a beer!
