                               Psi4 1.3.2 release

  ==> Input File <==

--------------------------------------------------------------------------
import numpy as np
set {scf_type pk
basis cc-pvdz
d_convergence 10
gdma_switch   0
gdma_limit    0
gdma_origin   [ 0.0,  0.0,  0.0 ]
}
molecule test {
    units Angstrom
    0 1
    --
    0 1
    C               -0.256270637851987    -1.618869622541011    -1.558963682163262
    C               -1.249270637851986    -0.475869622541011     0.480036317836738
    C               -0.155270637851987    -1.082869622541011    -0.138963682163262
    C               -1.203270637851987    -0.038869622541011     1.805036317836738
    C               -0.011270637851987    -0.215869622541011     2.551036317836738
    C                1.014729362148013    -1.246869622541011     0.590036317836738
    C                1.091729362148014    -0.816869622541011     1.940036317836738
    H               -2.145270637851986    -0.357869622541011    -0.095963682163262
    H               -2.073270637851986     0.428130377458989     2.253036317836738
    H                0.762729362148013    -1.749869622541011    -1.931963682163262
    H               -0.753270637851987    -0.856869622541011    -2.157963682163262
    H                0.060729362148013     0.107130377458989     3.585036317836737
    H                1.864729362148013    -1.712869622541010     0.111036317836738
    H                2.004729362148013    -0.953869622541011     2.504036317836738
    H               -0.846417637851987    -2.542889622541011    -1.647943682163262
    C               -0.255270637851987     2.390130377458989    -1.866963682163262
    C                0.940729362148013     2.510130377458989    -2.835963682163262
    H               -0.793270637851987     1.462130377458989    -2.055963682163262
    H                0.094729362148013     2.397130377458990    -0.833963682163262
    H               -0.931270637851987     3.233130377458989    -2.014963682163262
    H                1.469729362148013     3.432130377458989    -2.635963682163262
    H                0.607933362148013     2.508010377458989    -3.884413682163262
    H                1.670916362148013     1.700850377458989    -2.688023682163262

}
e, wfn = energy('scf', return_wfn=True)
gdma(wfn)
dmavals = variable('DMA DISTRIBUTED MULTIPOLES')
charges = np.array(dmavals)
print(charges)
np.save('SSI-007PHE-022VAL-1-dimer.npy', np.array(charges))--------------------------------------------------------------------------

*** tstart() called on ds3
*** at Tue Apr 28 08:54:30 2020

   => Loading Basis Set <=

    Name: CC-PVDZ
    Role: ORBITAL
    Keyword: BASIS
    atoms 1-7, 16-17  entry C          line   138 file /theoryfs2/ds/metcalf/miniconda2/envs/tf2gpu/share/psi4/basis/cc-pvdz.gbs
    atoms 8-15, 18-23 entry H          line    22 file /theoryfs2/ds/metcalf/miniconda2/envs/tf2gpu/share/psi4/basis/cc-pvdz.gbs

         ---------------------------------------------------------
                                   SCF
               by Justin Turney, Rob Parrish, Andy Simmonett
                          and Daniel G. A. Smith
                              RHF Reference
                        1 Threads,    500 MiB Core
         ---------------------------------------------------------

  ==> Geometry <==

    Molecular point group: c1
    Full point group: C1

    Geometry (in Angstrom), charge = 0, multiplicity = 1:

       Center              X                  Y                   Z               Mass
    ------------   -----------------  -----------------  -----------------  -----------------
         C           -0.256270637852    -1.618869622541    -1.558963682163    12.000000000000
         C           -1.249270637852    -0.475869622541     0.480036317837    12.000000000000
         C           -0.155270637852    -1.082869622541    -0.138963682163    12.000000000000
         C           -1.203270637852    -0.038869622541     1.805036317837    12.000000000000
         C           -0.011270637852    -0.215869622541     2.551036317837    12.000000000000
         C            1.014729362148    -1.246869622541     0.590036317837    12.000000000000
         C            1.091729362148    -0.816869622541     1.940036317837    12.000000000000
         H           -2.145270637852    -0.357869622541    -0.095963682163     1.007825032230
         H           -2.073270637852     0.428130377459     2.253036317837     1.007825032230
         H            0.762729362148    -1.749869622541    -1.931963682163     1.007825032230
         H           -0.753270637852    -0.856869622541    -2.157963682163     1.007825032230
         H            0.060729362148     0.107130377459     3.585036317837     1.007825032230
         H            1.864729362148    -1.712869622541     0.111036317837     1.007825032230
         H            2.004729362148    -0.953869622541     2.504036317837     1.007825032230
         H           -0.846417637852    -2.542889622541    -1.647943682163     1.007825032230
         C           -0.255270637852     2.390130377459    -1.866963682163    12.000000000000
         C            0.940729362148     2.510130377459    -2.835963682163    12.000000000000
         H           -0.793270637852     1.462130377459    -2.055963682163     1.007825032230
         H            0.094729362148     2.397130377459    -0.833963682163     1.007825032230
         H           -0.931270637852     3.233130377459    -2.014963682163     1.007825032230
         H            1.469729362148     3.432130377459    -2.635963682163     1.007825032230
         H            0.607933362148     2.508010377459    -3.884413682163     1.007825032230
         H            1.670916362148     1.700850377459    -2.688023682163     1.007825032230

  Running in c1 symmetry.

  Rotational constants: A =      0.06583  B =      0.02686  C =      0.02452 [cm^-1]
  Rotational constants: A =   1973.66754  B =    805.38200  C =    735.16216 [MHz]
  Nuclear repulsion =  409.948593982724105

  Charge       = 0
  Multiplicity = 1
  Electrons    = 68
  Nalpha       = 34
  Nbeta        = 34

  ==> Algorithm <==

  SCF Algorithm Type is PK.
  DIIS enabled.
  MOM disabled.
  Fractional occupation disabled.
  Guess Type is SAD.
  Energy threshold   = 1.00e-06
  Density threshold  = 1.00e-10
  Integral threshold = 0.00e+00

  ==> Primary Basis <==

  Basis Set: CC-PVDZ
    Blend: CC-PVDZ
    Number of shells: 96
    Number of basis function: 196
    Number of Cartesian functions: 205
    Spherical Harmonics?: true
    Max angular momentum: 2

  ==> Pre-Iterations <==

   -------------------------------------------------------
    Irrep   Nso     Nmo     Nalpha   Nbeta   Ndocc  Nsocc
   -------------------------------------------------------
     A        196     196       0       0       0       0
   -------------------------------------------------------
    Total     196     196      34      34      34       0
   -------------------------------------------------------

  ==> Integral Setup <==

  Using integral reordering PK algorithm.
  Sizing the integral batches needed.
  Building batch lookup table.
   Calculation information:
      Number of atoms:                  23
      Number of AO shells:              96
      Number of primitives:            268
      Number of atomic orbitals:       205
      Number of basis functions:       196

      Integral cutoff                 1.00e-12
      Number of threads:                 1

	Batch   1 pq = [       0,    9405] index = [             0,44231715] size =     44231715
	Batch   2 pq = [    9405,   13301] index = [      44231715,88464951] size =     44233236
	Batch   3 pq = [   13301,   16290] index = [      88464951,132690195] size =     44225244
	Batch   4 pq = [   16290,   18810] index = [     132690195,176917455] size =     44227260
	Batch   5 pq = [   18810,   19306] index = [     176917455,186370471] size =      9453016
  Task number: 17
  Buffer size: 11059200
  Buffer per thread: 2
  We computed 10020328 shell quartets total.
  Whereas there are 10841496 unique shell quartets.

  ==> DiskJK: Disk-Based J/K Matrices <==

    J tasked:                  Yes
    K tasked:                  Yes
    wK tasked:                  No
    Memory [MiB]:              375
    Schwarz Cutoff:          1E-12

    OpenMP threads:              1

  Minimum eigenvalue in the overlap matrix is 3.2688592225E-04.
  Using Symmetric Orthogonalization.

  SCF Guess: Superposition of Atomic Densities via on-the-fly atomic UHF.

  ==> Iterations <==

                        Total Energy        Delta E     RMS |[F,P]|

   @RHF iter SAD:  -347.71933977664531   -3.47719e+02   0.00000e+00
   @RHF iter   1:  -348.77107215437923   -1.05173e+00   2.84717e-03 DIIS
   @RHF iter   2:  -348.95905902918133   -1.87987e-01   1.17553e-03 DIIS
   @RHF iter   3:  -348.98813850571202   -2.90795e-02   2.59821e-04 DIIS
   @RHF iter   4:  -348.99058565641218   -2.44715e-03   6.40773e-05 DIIS
   @RHF iter   5:  -348.99068596731604   -1.00311e-04   2.12363e-05 DIIS
   @RHF iter   6:  -348.99069754429553   -1.15770e-05   5.23879e-06 DIIS
   @RHF iter   7:  -348.99069853541670   -9.91121e-07   1.54243e-06 DIIS
   @RHF iter   8:  -348.99069871066729   -1.75251e-07   6.64993e-07 DIIS
   @RHF iter   9:  -348.99069877108167   -6.04144e-08   2.93221e-07 DIIS
   @RHF iter  10:  -348.99069878327430   -1.21926e-08   1.04040e-07 DIIS
   @RHF iter  11:  -348.99069878458602   -1.31172e-09   2.85499e-08 DIIS
   @RHF iter  12:  -348.99069878464172   -5.57066e-11   9.45959e-09 DIIS
   @RHF iter  13:  -348.99069878464837   -6.65068e-12   3.91607e-09 DIIS
   @RHF iter  14:  -348.99069878464707    1.30740e-12   1.40855e-09 DIIS
   @RHF iter  15:  -348.99069878464871   -1.64846e-12   6.12326e-10 DIIS
   @RHF iter  16:  -348.99069878465002   -1.30740e-12   2.40344e-10 DIIS
   @RHF iter  17:  -348.99069878465008   -5.68434e-14   9.95369e-11 DIIS
  Energy and wave function converged.

  ==> Post-Iterations <==

    Orbital Energies [Eh]
    ---------------------

    Doubly Occupied:

       1A    -11.240595     2A    -11.240498     3A    -11.239412
       4A    -11.236832     5A    -11.233172     6A    -11.231850
       7A    -11.230513     8A    -11.216006     9A    -11.213503
      10A     -1.147088    11A     -1.041003    12A     -1.010088
      13A     -1.006396    14A     -0.930073    15A     -0.835821
      16A     -0.825224    17A     -0.792795    18A     -0.688378
      19A     -0.631021    20A     -0.628036    21A     -0.594439
      22A     -0.590849    23A     -0.579266    24A     -0.573654
      25A     -0.560325    26A     -0.538621    27A     -0.495332
      28A     -0.487220    29A     -0.485005    30A     -0.483855
      31A     -0.479632    32A     -0.477412    33A     -0.328681
      34A     -0.322287

    Virtual:

      35A      0.133077    36A      0.139486    37A      0.171053
      38A      0.194104    39A      0.211758    40A      0.214361
      41A      0.240263    42A      0.243605    43A      0.252036
      44A      0.258626    45A      0.265261    46A      0.274416
      47A      0.280653    48A      0.286740    49A      0.303165
      50A      0.359983    51A      0.361957    52A      0.375842
      53A      0.409804    54A      0.445565    55A      0.456811
      56A      0.480669    57A      0.493805    58A      0.565846
      59A      0.570812    60A      0.585448    61A      0.602240
      62A      0.611438    63A      0.649868    64A      0.661758
      65A      0.671455    66A      0.689293    67A      0.701494
      68A      0.717808    69A      0.727665    70A      0.737875
      71A      0.738325    72A      0.745055    73A      0.757364
      74A      0.762662    75A      0.787381    76A      0.812471
      77A      0.829861    78A      0.851100    79A      0.859688
      80A      0.868781    81A      0.869738    82A      0.883599
      83A      0.892795    84A      0.894350    85A      0.898767
      86A      0.904595    87A      0.911042    88A      0.926766
      89A      0.932573    90A      0.943956    91A      0.963966
      92A      0.980325    93A      0.988743    94A      1.004618
      95A      1.014402    96A      1.056831    97A      1.107423
      98A      1.128446    99A      1.129337   100A      1.138314
     101A      1.152496   102A      1.159262   103A      1.191402
     104A      1.231269   105A      1.235204   106A      1.242073
     107A      1.249501   108A      1.265596   109A      1.296710
     110A      1.298224   111A      1.314622   112A      1.321625
     113A      1.415073   114A      1.470837   115A      1.478159
     116A      1.503466   117A      1.522567   118A      1.547470
     119A      1.594265   120A      1.606406   121A      1.670005
     122A      1.686464   123A      1.697250   124A      1.707112
     125A      1.734160   126A      1.742339   127A      1.754107
     128A      1.793966   129A      1.808593   130A      1.849173
     131A      1.871749   132A      1.873272   133A      1.876768
     134A      1.880613   135A      1.898538   136A      1.911833
     137A      1.918716   138A      1.926473   139A      1.933538
     140A      1.939923   141A      1.943263   142A      1.954252
     143A      1.958208   144A      1.963229   145A      1.970829
     146A      1.983877   147A      1.994757   148A      2.003331
     149A      2.036459   150A      2.045229   151A      2.071801
     152A      2.095909   153A      2.105313   154A      2.115883
     155A      2.134886   156A      2.139206   157A      2.149086
     158A      2.156842   159A      2.182784   160A      2.233847
     161A      2.270582   162A      2.290272   163A      2.291317
     164A      2.304549   165A      2.307411   166A      2.326740
     167A      2.335106   168A      2.444043   169A      2.456826
     170A      2.465038   171A      2.482592   172A      2.513030
     173A      2.530578   174A      2.557396   175A      2.574451
     176A      2.611089   177A      2.727136   178A      2.741592
     179A      2.762967   180A      2.768718   181A      2.784926
     182A      2.798127   183A      2.808224   184A      2.835723
     185A      2.861484   186A      2.869622   187A      2.877709
     188A      2.948031   189A      2.962312   190A      2.972202
     191A      2.983860   192A      3.021178   193A      3.131852
     194A      3.175392   195A      3.282337   196A      3.924769

    Final Occupation by Irrep:
              A
    DOCC [    34 ]

  @RHF Final Energy:  -348.99069878465008

   => Energetics <=

    Nuclear Repulsion Energy =            409.9485939827241054
    One-Electron Energy =               -1282.6488205783402918
    Two-Electron Energy =                 523.7095278109661649
    Total Energy =                       -348.9906987846500215

Computation Completed

Properties will be evaluated at   0.000000,   0.000000,   0.000000 [a0]

Properties computed using the SCF density matrix

  Nuclear Dipole Moment: [e a0]
     X:     0.9313      Y:     6.6508      Z:   -10.7753

  Electronic Dipole Moment: [e a0]
     X:    -0.9588      Y:    -6.7069      Z:    10.7133

  Dipole Moment: [e a0]
     X:    -0.0275      Y:    -0.0561      Z:    -0.0620     Total:     0.0880

  Dipole Moment: [D]
     X:    -0.0699      Y:    -0.1426      Z:    -0.1575     Total:     0.2237

*** tstop() called on ds3 at Tue Apr 28 08:56:11 2020
Module time:
	user time   =      74.08 seconds =       1.23 minutes
	system time =      31.15 seconds =       0.52 minutes
	total time  =        101 seconds =       1.68 minutes
Total time:
	user time   =      74.08 seconds =       1.23 minutes
	system time =      31.15 seconds =       0.52 minutes
	total time  =        101 seconds =       1.68 minutes
                                     G D M A

                                 by Anthony Stone

                           version 2.2.06, 22 June 2011

               Distributed Multipoles from Gaussian wavefunctions

Starting at 8:56:11 on 28 Apr 2020

Using SCF density matrix from file ./SSI/SSI-007PHE-022VAL-1-dimer.test.28904.fchk

                         Distributed Multipole Analysis

Standard DMA

Positions and radii in angstrom
Multipole moments in atomic units, ea_0^k for rank k

C          x = -0.256271  y = -1.618870  z = -1.558964 angstrom
           Maximum rank =  0   Radius =  0.650 angstrom
                   Q00  =  -0.193086

C          x = -1.249271  y = -0.475870  z =  0.480036 angstrom
           Maximum rank =  0   Radius =  0.650 angstrom
                   Q00  =   0.016103

C          x = -0.155271  y = -1.082870  z = -0.138964 angstrom
           Maximum rank =  0   Radius =  0.650 angstrom
                   Q00  =  -0.116039

C          x = -1.203271  y = -0.038870  z =  1.805036 angstrom
           Maximum rank =  0   Radius =  0.650 angstrom
                   Q00  =  -0.087398

C          x = -0.011271  y = -0.215870  z =  2.551036 angstrom
           Maximum rank =  0   Radius =  0.650 angstrom
                   Q00  =  -0.093330

C          x =  1.014729  y = -1.246870  z =  0.590036 angstrom
           Maximum rank =  0   Radius =  0.650 angstrom
                   Q00  =  -0.084360

C          x =  1.091729  y = -0.816870  z =  1.940036 angstrom
           Maximum rank =  0   Radius =  0.650 angstrom
                   Q00  =  -0.060916

H          x = -2.145271  y = -0.357870  z = -0.095964 angstrom
           Maximum rank =  0   Radius =  0.325 angstrom
                   Q00  =   0.054195

H          x = -2.073271  y =  0.428130  z =  2.253036 angstrom
           Maximum rank =  0   Radius =  0.325 angstrom
                   Q00  =   0.069833

H          x =  0.762729  y = -1.749870  z = -1.931964 angstrom
           Maximum rank =  0   Radius =  0.325 angstrom
                   Q00  =   0.098793

H          x = -0.753271  y = -0.856870  z = -2.157964 angstrom
           Maximum rank =  0   Radius =  0.325 angstrom
                   Q00  =   0.094646

H          x =  0.060729  y =  0.107130  z =  3.585036 angstrom
           Maximum rank =  0   Radius =  0.325 angstrom
                   Q00  =   0.066907

H          x =  1.864729  y = -1.712870  z =  0.111036 angstrom
           Maximum rank =  0   Radius =  0.325 angstrom
                   Q00  =   0.060510

H          x =  2.004729  y = -0.953870  z =  2.504036 angstrom
           Maximum rank =  0   Radius =  0.325 angstrom
                   Q00  =   0.067749

H          x = -0.846418  y = -2.542890  z = -1.647944 angstrom
           Maximum rank =  0   Radius =  0.325 angstrom
                   Q00  =   0.106951

C          x = -0.255271  y =  2.390130  z = -1.866964 angstrom
           Maximum rank =  0   Radius =  0.650 angstrom
                   Q00  =  -0.234145

C          x =  0.940729  y =  2.510130  z = -2.835964 angstrom
           Maximum rank =  0   Radius =  0.650 angstrom
                   Q00  =  -0.247473

H          x = -0.793271  y =  1.462130  z = -2.055964 angstrom
           Maximum rank =  0   Radius =  0.325 angstrom
                   Q00  =   0.075979

H          x =  0.094729  y =  2.397130  z = -0.833964 angstrom
           Maximum rank =  0   Radius =  0.325 angstrom
                   Q00  =   0.091848

H          x = -0.931271  y =  3.233130  z = -2.014964 angstrom
           Maximum rank =  0   Radius =  0.325 angstrom
                   Q00  =   0.076790

H          x =  1.469729  y =  3.432130  z = -2.635964 angstrom
           Maximum rank =  0   Radius =  0.325 angstrom
                   Q00  =   0.081016

H          x =  0.607933  y =  2.508010  z = -3.884414 angstrom
           Maximum rank =  0   Radius =  0.325 angstrom
                   Q00  =   0.077192

H          x =  1.670916  y =  1.700850  z = -2.688024 angstrom
           Maximum rank =  0   Radius =  0.325 angstrom
                   Q00  =   0.078236

Total multipoles referred to origin at
           x =   0.000000,  y =    0.000000,  z =    0.000000 angstrom
                   Q00  =  -0.000000

Finished at 8:56:11 on 28 Apr 2020

  DMA results are available in the Python driver through the
	  variable('DMA DISTRIBUTED MULTIPOLES')
  and
	  variable('DMA TOTAL MULTIPOLES')
  commands.

    Psi4 stopped on: Tuesday, 28 April 2020 08:56AM
    Psi4 wall time for execution: 0:01:41.23

*** Psi4 exiting successfully. Buy a developer a beer!
