                               Psi4 1.3.2 release

  ==> Input File <==

--------------------------------------------------------------------------
import numpy as np
set {scf_type pk
basis cc-pvdz
d_convergence 10
gdma_switch   0
gdma_limit    0
gdma_origin   [ 0.0,  0.0,  0.0 ]
}
molecule test {
    units Angstrom
    0 1
    --
    0 1
    C                1.272957756436893     1.569921330704517    -0.589431524950530
    C                1.408957756436893     0.104921330704516    -0.241431524950530
    O                1.246957756436893    -0.777078669295484    -1.081431524950530
    N                1.724957756436893    -0.162078669295484     1.015568475049470
    H                2.279957756436893     1.957921330704516    -0.742431524950530
    H                0.828957756436893     2.084921330704516     0.264568475049470
    H                1.929957756436893    -1.110078669295483     1.276568475049470
    H                1.959957756436893     0.596921330704516     1.651568475049470
    H                0.649277756436893     1.757171330704516    -1.475977524950530
    C               -2.288042243563107    -0.630078669295484    -0.099431524950530
    C               -3.306042243563107    -0.084078669295484     0.904568475049470
    H               -2.717042243563107    -1.465078669295484    -0.657431524950530
    H               -1.995042243563107     0.133921330704516    -0.805431524950530
    H               -1.383042243563107    -0.963078669295484     0.410568475049470
    H               -2.804042243563107     0.634921330704516     1.555568475049470
    H               -3.710702243563107    -0.907628669295484     1.511208475049470
    H               -4.120832243563108     0.426151330704516     0.369976475049470

}
e, wfn = energy('scf', return_wfn=True)
gdma(wfn)
dmavals = variable('DMA DISTRIBUTED MULTIPOLES')
charges = np.array(dmavals)
print(charges)
np.save('SSI-009GLN-068ILE-1-dimer.npy', np.array(charges))--------------------------------------------------------------------------

*** tstart() called on ds3
*** at Tue Apr 28 11:57:23 2020

   => Loading Basis Set <=

    Name: CC-PVDZ
    Role: ORBITAL
    Keyword: BASIS
    atoms 1-2, 10-11 entry C          line   138 file /theoryfs2/ds/metcalf/miniconda2/envs/tf2gpu/share/psi4/basis/cc-pvdz.gbs
    atoms 3          entry O          line   198 file /theoryfs2/ds/metcalf/miniconda2/envs/tf2gpu/share/psi4/basis/cc-pvdz.gbs
    atoms 4          entry N          line   168 file /theoryfs2/ds/metcalf/miniconda2/envs/tf2gpu/share/psi4/basis/cc-pvdz.gbs
    atoms 5-9, 12-17 entry H          line    22 file /theoryfs2/ds/metcalf/miniconda2/envs/tf2gpu/share/psi4/basis/cc-pvdz.gbs

         ---------------------------------------------------------
                                   SCF
               by Justin Turney, Rob Parrish, Andy Simmonett
                          and Daniel G. A. Smith
                              RHF Reference
                        1 Threads,    500 MiB Core
         ---------------------------------------------------------

  ==> Geometry <==

    Molecular point group: c1
    Full point group: C1

    Geometry (in Angstrom), charge = 0, multiplicity = 1:

       Center              X                  Y                   Z               Mass
    ------------   -----------------  -----------------  -----------------  -----------------
         C            1.272957756437     1.569921330705    -0.589431524951    12.000000000000
         C            1.408957756437     0.104921330705    -0.241431524951    12.000000000000
         O            1.246957756437    -0.777078669295    -1.081431524951    15.994914619570
         N            1.724957756437    -0.162078669295     1.015568475049    14.003074004430
         H            2.279957756437     1.957921330705    -0.742431524951     1.007825032230
         H            0.828957756437     2.084921330705     0.264568475049     1.007825032230
         H            1.929957756437    -1.110078669295     1.276568475049     1.007825032230
         H            1.959957756437     0.596921330705     1.651568475049     1.007825032230
         H            0.649277756437     1.757171330705    -1.475977524951     1.007825032230
         C           -2.288042243563    -0.630078669295    -0.099431524951    12.000000000000
         C           -3.306042243563    -0.084078669295     0.904568475049    12.000000000000
         H           -2.717042243563    -1.465078669295    -0.657431524951     1.007825032230
         H           -1.995042243563     0.133921330705    -0.805431524951     1.007825032230
         H           -1.383042243563    -0.963078669295     0.410568475049     1.007825032230
         H           -2.804042243563     0.634921330705     1.555568475049     1.007825032230
         H           -3.710702243563    -0.907628669295     1.511208475049     1.007825032230
         H           -4.120832243563     0.426151330705     0.369976475049     1.007825032230

  Running in c1 symmetry.

  Rotational constants: A =      0.15153  B =      0.03873  C =      0.03828 [cm^-1]
  Rotational constants: A =   4542.83907  B =   1160.95084  C =   1147.75156 [MHz]
  Nuclear repulsion =  233.055957787043923

  Charge       = 0
  Multiplicity = 1
  Electrons    = 50
  Nalpha       = 25
  Nbeta        = 25

  ==> Algorithm <==

  SCF Algorithm Type is PK.
  DIIS enabled.
  MOM disabled.
  Fractional occupation disabled.
  Guess Type is SAD.
  Energy threshold   = 1.00e-06
  Density threshold  = 1.00e-10
  Integral threshold = 0.00e+00

  ==> Primary Basis <==

  Basis Set: CC-PVDZ
    Blend: CC-PVDZ
    Number of shells: 69
    Number of basis function: 139
    Number of Cartesian functions: 145
    Spherical Harmonics?: true
    Max angular momentum: 2

  ==> Pre-Iterations <==

   -------------------------------------------------------
    Irrep   Nso     Nmo     Nalpha   Nbeta   Ndocc  Nsocc
   -------------------------------------------------------
     A        139     139       0       0       0       0
   -------------------------------------------------------
    Total     139     139      25      25      25       0
   -------------------------------------------------------

  ==> Integral Setup <==

  Using integral reordering PK algorithm.
  Sizing the integral batches needed.
  Building batch lookup table.
   Calculation information:
      Number of atoms:                  17
      Number of AO shells:              69
      Number of primitives:            187
      Number of atomic orbitals:       145
      Number of basis functions:       139

      Integral cutoff                 1.00e-12
      Number of threads:                 1

	Batch   1 pq = [       0,    9730] index = [             0,47341315] size =     47341315
  Task number: 5
  Buffer size: 11059200
  Buffer per thread: 2
  We computed 2474637 shell quartets total.
  Whereas there are 2917320 unique shell quartets.

  ==> DiskJK: Disk-Based J/K Matrices <==

    J tasked:                  Yes
    K tasked:                  Yes
    wK tasked:                  No
    Memory [MiB]:              375
    Schwarz Cutoff:          1E-12

    OpenMP threads:              1

  Minimum eigenvalue in the overlap matrix is 4.5331523384E-03.
  Using Symmetric Orthogonalization.

  SCF Guess: Superposition of Atomic Densities via on-the-fly atomic UHF.

  ==> Iterations <==

                        Total Energy        Delta E     RMS |[F,P]|

   @RHF iter SAD:  -285.93568421249603   -2.85936e+02   0.00000e+00
   @RHF iter   1:  -286.99546889294515   -1.05978e+00   4.63734e-03 DIIS
   @RHF iter   2:  -287.17205271116507   -1.76584e-01   2.59636e-03 DIIS
   @RHF iter   3:  -287.22192991574445   -4.98772e-02   5.42270e-04 DIIS
   @RHF iter   4:  -287.22530644838781   -3.37653e-03   2.20094e-04 DIIS
   @RHF iter   5:  -287.22591323727750   -6.06789e-04   3.43498e-05 DIIS
   @RHF iter   6:  -287.22594354028274   -3.03030e-05   1.53879e-05 DIIS
   @RHF iter   7:  -287.22594831622303   -4.77594e-06   6.18455e-06 DIIS
   @RHF iter   8:  -287.22594936734083   -1.05112e-06   2.14017e-06 DIIS
   @RHF iter   9:  -287.22594950041963   -1.33079e-07   5.32475e-07 DIIS
   @RHF iter  10:  -287.22594950653280   -6.11317e-09   1.69633e-07 DIIS
   @RHF iter  11:  -287.22594950719468   -6.61885e-10   3.73776e-08 DIIS
   @RHF iter  12:  -287.22594950722919   -3.45040e-11   8.46866e-09 DIIS
   @RHF iter  13:  -287.22594950723237   -3.18323e-12   2.07109e-09 DIIS
   @RHF iter  14:  -287.22594950723351   -1.13687e-12   9.88834e-10 DIIS
   @RHF iter  15:  -287.22594950723294    5.68434e-13   4.64256e-10 DIIS
   @RHF iter  16:  -287.22594950723345   -5.11591e-13   1.55320e-10 DIIS
   @RHF iter  17:  -287.22594950723078    2.67164e-12   5.35361e-11 DIIS
  Energy and wave function converged.

  ==> Post-Iterations <==

    Orbital Energies [Eh]
    ---------------------

    Doubly Occupied:

       1A    -20.503206     2A    -15.590352     3A    -11.347065
       4A    -11.243157     5A    -11.214976     6A    -11.205904
       7A     -1.367407     8A     -1.219267     9A     -1.010532
      10A     -1.002096    11A     -0.829706    12A     -0.800690
      13A     -0.726814    14A     -0.653947    15A     -0.617081
      16A     -0.591141    17A     -0.589646    18A     -0.569945
      19A     -0.558113    20A     -0.523812    21A     -0.492194
      22A     -0.479056    23A     -0.477341    24A     -0.409552
      25A     -0.404131

    Virtual:

      26A      0.154982    27A      0.194257    28A      0.200766
      29A      0.211553    30A      0.221772    31A      0.245869
      32A      0.254680    33A      0.262863    34A      0.273391
      35A      0.283119    36A      0.303299    37A      0.320071
      38A      0.383303    39A      0.400935    40A      0.469514
      41A      0.541279    42A      0.601560    43A      0.610256
      44A      0.612669    45A      0.639371    46A      0.648174
      47A      0.677647    48A      0.693003    49A      0.714498
      50A      0.739849    51A      0.743726    52A      0.817875
      53A      0.833843    54A      0.855038    55A      0.868332
      56A      0.892302    57A      0.899049    58A      0.900299
      59A      0.904998    60A      0.913487    61A      0.927321
      62A      0.934281    63A      0.954457    64A      0.993480
      65A      1.006815    66A      1.038465    67A      1.061934
      68A      1.113578    69A      1.124605    70A      1.132839
      71A      1.168665    72A      1.245008    73A      1.314480
      74A      1.348469    75A      1.372775    76A      1.381089
      77A      1.424729    78A      1.469574    79A      1.476925
      80A      1.484738    81A      1.496743    82A      1.586263
      83A      1.650305    84A      1.661419    85A      1.682110
      86A      1.690424    87A      1.756975    88A      1.808939
      89A      1.850521    90A      1.859283    91A      1.869877
      92A      1.897893    93A      1.904263    94A      1.910994
      95A      1.932917    96A      1.947888    97A      1.954232
      98A      1.957494    99A      1.964459   100A      1.967123
     101A      1.977051   102A      1.995745   103A      2.040291
     104A      2.083740   105A      2.117738   106A      2.128509
     107A      2.180742   108A      2.217515   109A      2.266344
     110A      2.297277   111A      2.333563   112A      2.408906
     113A      2.437932   114A      2.457350   115A      2.482602
     116A      2.487217   117A      2.510826   118A      2.573471
     119A      2.588143   120A      2.599133   121A      2.637214
     122A      2.724364   123A      2.748322   124A      2.764764
     125A      2.791168   126A      2.808981   127A      2.856491
     128A      2.861906   129A      2.879886   130A      2.956162
     131A      2.973740   132A      2.997151   133A      3.096945
     134A      3.137059   135A      3.264134   136A      3.518508
     137A      3.526398   138A      3.864521   139A      3.906651

    Final Occupation by Irrep:
              A
    DOCC [    25 ]

  @RHF Final Energy:  -287.22594950723078

   => Energetics <=

    Nuclear Repulsion Energy =            233.0559577870439227
    One-Electron Energy =                -851.7095517027778442
    Two-Electron Energy =                 331.4276444085031699
    Total Energy =                       -287.2259495072307800

Computation Completed

Properties will be evaluated at   0.000000,   0.000000,   0.000000 [a0]

Properties computed using the SCF density matrix

  Nuclear Dipole Moment: [e a0]
     X:    -8.5137      Y:     2.9461      Z:     3.1406

  Electronic Dipole Moment: [e a0]
     X:     9.0203      Y:    -1.9816      Z:    -1.8621

  Dipole Moment: [e a0]
     X:     0.5066      Y:     0.9645      Z:     1.2785     Total:     1.6797

  Dipole Moment: [D]
     X:     1.2878      Y:     2.4515      Z:     3.2497     Total:     4.2695

*** tstop() called on ds3 at Tue Apr 28 11:57:48 2020
Module time:
	user time   =      17.00 seconds =       0.28 minutes
	system time =       8.29 seconds =       0.14 minutes
	total time  =         25 seconds =       0.42 minutes
Total time:
	user time   =      17.00 seconds =       0.28 minutes
	system time =       8.29 seconds =       0.14 minutes
	total time  =         25 seconds =       0.42 minutes
                                     G D M A

                                 by Anthony Stone

                           version 2.2.06, 22 June 2011

               Distributed Multipoles from Gaussian wavefunctions

Starting at 11:57:48 on 28 Apr 2020

Using SCF density matrix from file ./SSI/SSI-009GLN-068ILE-1-dimer.test.23807.fchk

                         Distributed Multipole Analysis

Standard DMA

Positions and radii in angstrom
Multipole moments in atomic units, ea_0^k for rank k

C          x =  1.272958  y =  1.569921  z = -0.589432 angstrom
           Maximum rank =  0   Radius =  0.650 angstrom
                   Q00  =  -0.261061

C          x =  1.408958  y =  0.104921  z = -0.241432 angstrom
           Maximum rank =  0   Radius =  0.650 angstrom
                   Q00  =   0.819174

O          x =  1.246958  y = -0.777079  z = -1.081432 angstrom
           Maximum rank =  0   Radius =  0.650 angstrom
                   Q00  =  -0.787523

N          x =  1.724958  y = -0.162079  z =  1.015568 angstrom
           Maximum rank =  0   Radius =  0.650 angstrom
                   Q00  =  -0.528136

H          x =  2.279958  y =  1.957921  z = -0.742432 angstrom
           Maximum rank =  0   Radius =  0.325 angstrom
                   Q00  =   0.122564

H          x =  0.828958  y =  2.084921  z =  0.264568 angstrom
           Maximum rank =  0   Radius =  0.325 angstrom
                   Q00  =   0.081784

H          x =  1.929958  y = -1.110079  z =  1.276568 angstrom
           Maximum rank =  0   Radius =  0.325 angstrom
                   Q00  =   0.219085

H          x =  1.959958  y =  0.596921  z =  1.651568 angstrom
           Maximum rank =  0   Radius =  0.325 angstrom
                   Q00  =   0.202935

H          x =  0.649278  y =  1.757171  z = -1.475978 angstrom
           Maximum rank =  0   Radius =  0.325 angstrom
                   Q00  =   0.133062

C          x = -2.288042  y = -0.630079  z = -0.099432 angstrom
           Maximum rank =  0   Radius =  0.650 angstrom
                   Q00  =  -0.222108

C          x = -3.306042  y = -0.084079  z =  0.904568 angstrom
           Maximum rank =  0   Radius =  0.650 angstrom
                   Q00  =  -0.244935

H          x = -2.717042  y = -1.465079  z = -0.657432 angstrom
           Maximum rank =  0   Radius =  0.325 angstrom
                   Q00  =   0.080560

H          x = -1.995042  y =  0.133921  z = -0.805432 angstrom
           Maximum rank =  0   Radius =  0.325 angstrom
                   Q00  =   0.076898

H          x = -1.383042  y = -0.963079  z =  0.410568 angstrom
           Maximum rank =  0   Radius =  0.325 angstrom
                   Q00  =   0.081103

H          x = -2.804042  y =  0.634921  z =  1.555568 angstrom
           Maximum rank =  0   Radius =  0.325 angstrom
                   Q00  =   0.070434

H          x = -3.710702  y = -0.907629  z =  1.511208 angstrom
           Maximum rank =  0   Radius =  0.325 angstrom
                   Q00  =   0.078661

H          x = -4.120832  y =  0.426151  z =  0.369976 angstrom
           Maximum rank =  0   Radius =  0.325 angstrom
                   Q00  =   0.077503

Total multipoles referred to origin at
           x =   0.000000,  y =    0.000000,  z =    0.000000 angstrom
                   Q00  =  -0.000000

Finished at 11:57:48 on 28 Apr 2020

  DMA results are available in the Python driver through the
	  variable('DMA DISTRIBUTED MULTIPOLES')
  and
	  variable('DMA TOTAL MULTIPOLES')
  commands.

    Psi4 stopped on: Tuesday, 28 April 2020 11:57AM
    Psi4 wall time for execution: 0:00:24.99

*** Psi4 exiting successfully. Buy a developer a beer!
