                               Psi4 1.3.2 release

  ==> Input File <==

--------------------------------------------------------------------------
import numpy as np
set {scf_type pk
basis cc-pvdz
d_convergence 10
gdma_switch   0
gdma_limit    0
gdma_origin   [ 0.0,  0.0,  0.0 ]
}
molecule test {
    units Angstrom
    0 1
    --
    0 1
    C                1.345464163593622    -0.221327118524733     0.792554206687692
    C                2.430464163593621    -1.026327118524733     1.512554206687692
    H                1.241464163593622    -0.579327118524733    -0.233445793312308
    H                0.391464163593622    -0.320327118524733     1.312554206687692
    H                1.618464163593622     0.832672881475267     0.759554206687692
    H                2.452464163593622    -0.745327118524733     2.567554206687692
    H                3.378624163593622    -0.771141118524733     1.016694206687692
    H                2.213214163593622    -2.103131118524733     1.455154206687692
    C               -1.396535836406378     1.198672881475267    -1.189445793312308
    C               -2.378535836406378     0.040672881475267    -1.108445793312308
    H               -0.575535836406378     1.041672881475267    -0.498445793312308
    H               -1.003535836406378     1.275672881475267    -2.204445793312308
    H               -1.873535836406378     2.136672881475267    -0.929445793312308
    H               -3.155535836406378     0.221672881475267    -1.848445793312308
    H               -2.834155836406378     0.003825881475267    -0.107915793312308
    H               -1.863595836406378    -0.894009118524733    -1.375295793312308

}
e, wfn = energy('scf', return_wfn=True)
gdma(wfn)
dmavals = variable('DMA DISTRIBUTED MULTIPOLES')
charges = np.array(dmavals)
print(charges)
np.save('SSI-009ALA-084LEU-1-dimer.npy', np.array(charges))--------------------------------------------------------------------------

*** tstart() called on ds3
*** at Tue Apr 28 00:23:20 2020

   => Loading Basis Set <=

    Name: CC-PVDZ
    Role: ORBITAL
    Keyword: BASIS
    atoms 1-2, 9-10  entry C          line   138 file /theoryfs2/ds/metcalf/miniconda2/envs/tf2gpu/share/psi4/basis/cc-pvdz.gbs
    atoms 3-8, 11-16 entry H          line    22 file /theoryfs2/ds/metcalf/miniconda2/envs/tf2gpu/share/psi4/basis/cc-pvdz.gbs

         ---------------------------------------------------------
                                   SCF
               by Justin Turney, Rob Parrish, Andy Simmonett
                          and Daniel G. A. Smith
                              RHF Reference
                        1 Threads,    500 MiB Core
         ---------------------------------------------------------

  ==> Geometry <==

    Molecular point group: c1
    Full point group: C1

    Geometry (in Angstrom), charge = 0, multiplicity = 1:

       Center              X                  Y                   Z               Mass
    ------------   -----------------  -----------------  -----------------  -----------------
         C            1.345464163594    -0.221327118525     0.792554206688    12.000000000000
         C            2.430464163594    -1.026327118525     1.512554206688    12.000000000000
         H            1.241464163594    -0.579327118525    -0.233445793312     1.007825032230
         H            0.391464163594    -0.320327118525     1.312554206688     1.007825032230
         H            1.618464163594     0.832672881475     0.759554206688     1.007825032230
         H            2.452464163594    -0.745327118525     2.567554206688     1.007825032230
         H            3.378624163594    -0.771141118525     1.016694206688     1.007825032230
         H            2.213214163594    -2.103131118525     1.455154206688     1.007825032230
         C           -1.396535836406     1.198672881475    -1.189445793312    12.000000000000
         C           -2.378535836406     0.040672881475    -1.108445793312    12.000000000000
         H           -0.575535836406     1.041672881475    -0.498445793312     1.007825032230
         H           -1.003535836406     1.275672881475    -2.204445793312     1.007825032230
         H           -1.873535836406     2.136672881475    -0.929445793312     1.007825032230
         H           -3.155535836406     0.221672881475    -1.848445793312     1.007825032230
         H           -2.834155836406     0.003825881475    -0.107915793312     1.007825032230
         H           -1.863595836406    -0.894009118525    -1.375295793312     1.007825032230

  Running in c1 symmetry.

  Rotational constants: A =      0.54268  B =      0.04837  C =      0.04601 [cm^-1]
  Rotational constants: A =  16269.11703  B =   1450.14337  C =   1379.24611 [MHz]
  Nuclear repulsion =  122.597405779880333

  Charge       = 0
  Multiplicity = 1
  Electrons    = 36
  Nalpha       = 18
  Nbeta        = 18

  ==> Algorithm <==

  SCF Algorithm Type is PK.
  DIIS enabled.
  MOM disabled.
  Fractional occupation disabled.
  Guess Type is SAD.
  Energy threshold   = 1.00e-06
  Density threshold  = 1.00e-10
  Integral threshold = 0.00e+00

  ==> Primary Basis <==

  Basis Set: CC-PVDZ
    Blend: CC-PVDZ
    Number of shells: 60
    Number of basis function: 116
    Number of Cartesian functions: 120
    Spherical Harmonics?: true
    Max angular momentum: 2

  ==> Pre-Iterations <==

   -------------------------------------------------------
    Irrep   Nso     Nmo     Nalpha   Nbeta   Ndocc  Nsocc
   -------------------------------------------------------
     A        116     116       0       0       0       0
   -------------------------------------------------------
    Total     116     116      18      18      18       0
   -------------------------------------------------------

  ==> Integral Setup <==

  Using integral reordering PK algorithm.
  Sizing the integral batches needed.
  Building batch lookup table.
   Calculation information:
      Number of atoms:                  16
      Number of AO shells:              60
      Number of primitives:            148
      Number of atomic orbitals:       120
      Number of basis functions:       116

      Integral cutoff                 1.00e-12
      Number of threads:                 1

	Batch   1 pq = [       0,    6786] index = [             0,23028291] size =     23028291
  Task number: 3
  Buffer size: 11059200
  Buffer per thread: 2
  We computed 1427087 shell quartets total.
  Whereas there are 1675365 unique shell quartets.

  ==> DiskJK: Disk-Based J/K Matrices <==

    J tasked:                  Yes
    K tasked:                  Yes
    wK tasked:                  No
    Memory [MiB]:              375
    Schwarz Cutoff:          1E-12

    OpenMP threads:              1

  Minimum eigenvalue in the overlap matrix is 5.3018489073E-03.
  Using Symmetric Orthogonalization.

  SCF Guess: Superposition of Atomic Densities via on-the-fly atomic UHF.

  ==> Iterations <==

                        Total Energy        Delta E     RMS |[F,P]|

   @RHF iter SAD:  -157.37977173881870   -1.57380e+02   0.00000e+00
   @RHF iter   1:  -158.30515284018497   -9.25381e-01   4.22206e-03 DIIS
   @RHF iter   2:  -158.43923474374043   -1.34082e-01   1.79133e-03 DIIS
   @RHF iter   3:  -158.46255881246782   -2.33241e-02   3.51496e-04 DIIS
   @RHF iter   4:  -158.46441315945967   -1.85435e-03   3.94287e-05 DIIS
   @RHF iter   5:  -158.46443801442206   -2.48550e-05   6.83187e-06 DIIS
   @RHF iter   6:  -158.46443870853068   -6.94109e-07   1.21015e-06 DIIS
   @RHF iter   7:  -158.46443872352467   -1.49940e-08   3.42541e-07 DIIS
   @RHF iter   8:  -158.46443872467071   -1.14605e-09   5.22482e-08 DIIS
   @RHF iter   9:  -158.46443872472133   -5.06191e-11   1.12365e-08 DIIS
   @RHF iter  10:  -158.46443872472324   -1.90425e-12   2.67009e-09 DIIS
   @RHF iter  11:  -158.46443872472358   -3.41061e-13   4.32350e-10 DIIS
   @RHF iter  12:  -158.46443872472329    2.84217e-13   1.14276e-10 DIIS
   @RHF iter  13:  -158.46443872472344   -1.42109e-13   3.77624e-11 DIIS
  Energy and wave function converged.

  ==> Post-Iterations <==

    Orbital Energies [Eh]
    ---------------------

    Doubly Occupied:

       1A    -11.220504     2A    -11.217731     3A    -11.217401
       4A    -11.211321     5A     -1.020884     6A     -1.017751
       7A     -0.838740     8A     -0.831973     9A     -0.603476
      10A     -0.600270    11A     -0.598334    12A     -0.595100
      13A     -0.504243    14A     -0.497210    15A     -0.488094
      16A     -0.486246    17A     -0.485295    18A     -0.476077

    Virtual:

      19A      0.173264    20A      0.195111    21A      0.230510
      22A      0.233019    23A      0.244982    24A      0.259709
      25A      0.261629    26A      0.275839    27A      0.280145
      28A      0.287842    29A      0.312366    30A      0.332836
      31A      0.392801    32A      0.430974    33A      0.583663
      34A      0.597801    35A      0.601707    36A      0.607081
      37A      0.614343    38A      0.655306    39A      0.666055
      40A      0.699911    41A      0.711598    42A      0.746367
      43A      0.845542    44A      0.882932    45A      0.888935
      46A      0.891325    47A      0.893895    48A      0.896013
      49A      0.898890    50A      0.911991    51A      0.920347
      52A      0.925430    53A      0.942480    54A      0.950724
      55A      0.979620    56A      1.030587    57A      1.116625
      58A      1.128529    59A      1.131212    60A      1.133785
      61A      1.231591    62A      1.323743    63A      1.470004
      64A      1.478829    65A      1.481879    66A      1.494632
      67A      1.571741    68A      1.593663    69A      1.671291
      70A      1.676238    71A      1.691329    72A      1.703591
      73A      1.833738    74A      1.847520    75A      1.867965
      76A      1.875444    77A      1.898258    78A      1.916553
      79A      1.935396    80A      1.942082    81A      1.944694
      82A      1.946230    83A      1.962349    84A      1.963488
      85A      1.965078    86A      1.974858    87A      2.002163
      88A      2.064693    89A      2.102613    90A      2.107299
      91A      2.123139    92A      2.131712    93A      2.281967
      94A      2.295141    95A      2.314726    96A      2.375919
      97A      2.447089    98A      2.454517    99A      2.461855
     100A      2.489502   101A      2.560672   102A      2.571005
     103A      2.578644   104A      2.584689   105A      2.755629
     106A      2.771751   107A      2.781204   108A      2.814368
     109A      2.834013   110A      2.835881   111A      2.857775
     112A      2.874458   113A      2.939487   114A      2.949386
     115A      2.954139   116A      2.997854

    Final Occupation by Irrep:
              A
    DOCC [    18 ]

  @RHF Final Energy:  -158.46443872472344

   => Energetics <=

    Nuclear Repulsion Energy =            122.5974057798803329
    One-Electron Energy =                -454.3023872713207538
    Two-Electron Energy =                 173.2405427667169988
    Total Energy =                       -158.4644387247234363

Computation Completed

Properties will be evaluated at   0.000000,   0.000000,   0.000000 [a0]

Properties computed using the SCF density matrix

  Nuclear Dipole Moment: [e a0]
     X:    -0.0096      Y:     0.0927      Z:    -0.0806

  Electronic Dipole Moment: [e a0]
     X:     0.0304      Y:    -0.0818      Z:     0.0918

  Dipole Moment: [e a0]
     X:     0.0208      Y:     0.0109      Z:     0.0112     Total:     0.0260

  Dipole Moment: [D]
     X:     0.0529      Y:     0.0278      Z:     0.0285     Total:     0.0662

*** tstop() called on ds3 at Tue Apr 28 00:23:40 2020
Module time:
	user time   =       7.66 seconds =       0.13 minutes
	system time =       2.83 seconds =       0.05 minutes
	total time  =         20 seconds =       0.33 minutes
Total time:
	user time   =       7.66 seconds =       0.13 minutes
	system time =       2.83 seconds =       0.05 minutes
	total time  =         20 seconds =       0.33 minutes
                                     G D M A

                                 by Anthony Stone

                           version 2.2.06, 22 June 2011

               Distributed Multipoles from Gaussian wavefunctions

Starting at 0:23:40 on 28 Apr 2020

Using SCF density matrix from file ./SSI/SSI-009ALA-084LEU-1-dimer.test.5231.fchk

                         Distributed Multipole Analysis

Standard DMA

Positions and radii in angstrom
Multipole moments in atomic units, ea_0^k for rank k

C          x =  1.345464  y = -0.221327  z =  0.792554 angstrom
           Maximum rank =  0   Radius =  0.650 angstrom
                   Q00  =  -0.252225

C          x =  2.430464  y = -1.026327  z =  1.512554 angstrom
           Maximum rank =  0   Radius =  0.650 angstrom
                   Q00  =  -0.221122

H          x =  1.241464  y = -0.579327  z = -0.233446 angstrom
           Maximum rank =  0   Radius =  0.325 angstrom
                   Q00  =   0.078303

H          x =  0.391464  y = -0.320327  z =  1.312554 angstrom
           Maximum rank =  0   Radius =  0.325 angstrom
                   Q00  =   0.076513

H          x =  1.618464  y =  0.832673  z =  0.759554 angstrom
           Maximum rank =  0   Radius =  0.325 angstrom
                   Q00  =   0.077714

H          x =  2.452464  y = -0.745327  z =  2.567554 angstrom
           Maximum rank =  0   Radius =  0.325 angstrom
                   Q00  =   0.081635

H          x =  3.378624  y = -0.771141  z =  1.016694 angstrom
           Maximum rank =  0   Radius =  0.325 angstrom
                   Q00  =   0.079301

H          x =  2.213214  y = -2.103131  z =  1.455154 angstrom
           Maximum rank =  0   Radius =  0.325 angstrom
                   Q00  =   0.082111

C          x = -1.396536  y =  1.198673  z = -1.189446 angstrom
           Maximum rank =  0   Radius =  0.650 angstrom
                   Q00  =  -0.235078

C          x = -2.378536  y =  0.040673  z = -1.108446 angstrom
           Maximum rank =  0   Radius =  0.650 angstrom
                   Q00  =  -0.238356

H          x = -0.575536  y =  1.041673  z = -0.498446 angstrom
           Maximum rank =  0   Radius =  0.325 angstrom
                   Q00  =   0.086359

H          x = -1.003536  y =  1.275673  z = -2.204446 angstrom
           Maximum rank =  0   Radius =  0.325 angstrom
                   Q00  =   0.074799

H          x = -1.873536  y =  2.136673  z = -0.929446 angstrom
           Maximum rank =  0   Radius =  0.325 angstrom
                   Q00  =   0.077137

H          x = -3.155536  y =  0.221673  z = -1.848446 angstrom
           Maximum rank =  0   Radius =  0.325 angstrom
                   Q00  =   0.076577

H          x = -2.834156  y =  0.003826  z = -0.107916 angstrom
           Maximum rank =  0   Radius =  0.325 angstrom
                   Q00  =   0.078455

H          x = -1.863596  y = -0.894009  z = -1.375296 angstrom
           Maximum rank =  0   Radius =  0.325 angstrom
                   Q00  =   0.077877

Total multipoles referred to origin at
           x =   0.000000,  y =    0.000000,  z =    0.000000 angstrom
                   Q00  =  -0.000000

Finished at 0:23:40 on 28 Apr 2020

  DMA results are available in the Python driver through the
	  variable('DMA DISTRIBUTED MULTIPOLES')
  and
	  variable('DMA TOTAL MULTIPOLES')
  commands.

    Psi4 stopped on: Tuesday, 28 April 2020 12:23AM
    Psi4 wall time for execution: 0:00:20.51

*** Psi4 exiting successfully. Buy a developer a beer!
