                               Psi4 1.3.2 release

  ==> Input File <==

--------------------------------------------------------------------------
import numpy as np
set {scf_type pk
basis cc-pvdz
d_convergence 10
gdma_switch   0
gdma_limit    0
gdma_origin   [ 0.0,  0.0,  0.0 ]
}
molecule test {
    units Angstrom
    0 1
    --
    0 1
    C                1.803663982421372     4.203051835399331     0.735411530408265
    C                1.754663982421372     0.457051835399332     1.368411530408265
    C                2.368663982421372    -0.026948164600668     0.219411530408265
    C                1.575663982421372     1.827051835399331     1.535411530408265
    C                2.016663982421372     2.722051835399331     0.565411530408265
    C                2.800663982421372     0.856051835399332    -0.762588469591735
    C                2.619663982421371     2.223051835399331    -0.589588469591735
    O                2.542663982421371    -1.365948164600669     0.053411530408265
    H                1.391663982421372    -0.241948164600668     2.098411530408264
    H                1.094663982421372     2.196051835399331     2.430411530408264
    H                3.272663982421371     0.478051835399331    -1.657588469591735
    H                2.851663982421372    -1.567948164600669    -0.857588469591735
    H                2.565663982421372     4.734051835399332     0.163411530408265
    H                1.931663982421372     4.481051835399333     1.783411530408265
    H                2.960663982421372     2.904051835399332    -1.359588469591736
    H                0.812639982421372     4.522111835399332     0.380341530408265
    C               -2.422336017578628    -0.778948164600668    -2.756588469591736
    C               -1.601336017578628    -1.376948164600668     0.900411530408265
    C               -1.517336017578628    -0.938948164600668    -0.416588469591735
    C               -2.687336017578628    -2.137948164600669     1.310411530408265
    C               -2.516336017578628    -1.259948164600669    -1.333588469591735
    C               -3.688336017578628    -2.459948164600668     0.403411530408265
    C               -3.601336017578628    -2.020948164600668    -0.913588469591735
    H               -0.818336017578628    -1.132948164600668     1.601411530408265
    H               -0.671336017578628    -0.340948164600669    -0.725588469591735
    H               -2.752336017578628    -2.478948164600669     2.335411530408265
    H               -4.539336017578629    -3.043948164600669     0.725411530408265
    H               -2.169336017578629     0.282051835399331    -2.725588469591735
    H               -3.392336017578628    -0.867948164600668    -3.248588469591735
    H               -4.388336017578627    -2.274948164600669    -1.608588469591735
    H               -1.655745017578628    -1.301978164600669    -3.347158469591736

}
e, wfn = energy('scf', return_wfn=True)
gdma(wfn)
dmavals = variable('DMA DISTRIBUTED MULTIPOLES')
charges = np.array(dmavals)
print(charges)
np.save('SSI-052TYR-058PHE-1-dimer.npy', np.array(charges))--------------------------------------------------------------------------

*** tstart() called on ds3
*** at Sun Apr 26 17:19:12 2020

   => Loading Basis Set <=

    Name: CC-PVDZ
    Role: ORBITAL
    Keyword: BASIS
    atoms 1-7, 17-23  entry C          line   138 file /theoryfs2/ds/metcalf/miniconda2/envs/tf2gpu/share/psi4/basis/cc-pvdz.gbs
    atoms 8           entry O          line   198 file /theoryfs2/ds/metcalf/miniconda2/envs/tf2gpu/share/psi4/basis/cc-pvdz.gbs
    atoms 9-16, 24-31 entry H          line    22 file /theoryfs2/ds/metcalf/miniconda2/envs/tf2gpu/share/psi4/basis/cc-pvdz.gbs

         ---------------------------------------------------------
                                   SCF
               by Justin Turney, Rob Parrish, Andy Simmonett
                          and Daniel G. A. Smith
                              RHF Reference
                        1 Threads,    500 MiB Core
         ---------------------------------------------------------

  ==> Geometry <==

    Molecular point group: c1
    Full point group: C1

    Geometry (in Angstrom), charge = 0, multiplicity = 1:

       Center              X                  Y                   Z               Mass
    ------------   -----------------  -----------------  -----------------  -----------------
         C            1.803663982421     4.203051835399     0.735411530408    12.000000000000
         C            1.754663982421     0.457051835399     1.368411530408    12.000000000000
         C            2.368663982421    -0.026948164601     0.219411530408    12.000000000000
         C            1.575663982421     1.827051835399     1.535411530408    12.000000000000
         C            2.016663982421     2.722051835399     0.565411530408    12.000000000000
         C            2.800663982421     0.856051835399    -0.762588469592    12.000000000000
         C            2.619663982421     2.223051835399    -0.589588469592    12.000000000000
         O            2.542663982421    -1.365948164601     0.053411530408    15.994914619570
         H            1.391663982421    -0.241948164601     2.098411530408     1.007825032230
         H            1.094663982421     2.196051835399     2.430411530408     1.007825032230
         H            3.272663982421     0.478051835399    -1.657588469592     1.007825032230
         H            2.851663982421    -1.567948164601    -0.857588469592     1.007825032230
         H            2.565663982421     4.734051835399     0.163411530408     1.007825032230
         H            1.931663982421     4.481051835399     1.783411530408     1.007825032230
         H            2.960663982421     2.904051835399    -1.359588469592     1.007825032230
         H            0.812639982421     4.522111835399     0.380341530408     1.007825032230
         C           -2.422336017579    -0.778948164601    -2.756588469592    12.000000000000
         C           -1.601336017579    -1.376948164601     0.900411530408    12.000000000000
         C           -1.517336017579    -0.938948164601    -0.416588469592    12.000000000000
         C           -2.687336017579    -2.137948164601     1.310411530408    12.000000000000
         C           -2.516336017579    -1.259948164601    -1.333588469592    12.000000000000
         C           -3.688336017579    -2.459948164601     0.403411530408    12.000000000000
         C           -3.601336017579    -2.020948164601    -0.913588469592    12.000000000000
         H           -0.818336017579    -1.132948164601     1.601411530408     1.007825032230
         H           -0.671336017579    -0.340948164601    -0.725588469592     1.007825032230
         H           -2.752336017579    -2.478948164601     2.335411530408     1.007825032230
         H           -4.539336017579    -3.043948164601     0.725411530408     1.007825032230
         H           -2.169336017579     0.282051835399    -2.725588469592     1.007825032230
         H           -3.392336017579    -0.867948164601    -3.248588469592     1.007825032230
         H           -4.388336017579    -2.274948164601    -1.608588469592     1.007825032230
         H           -1.655745017579    -1.301978164601    -3.347158469592     1.007825032230

  Running in c1 symmetry.

  Rotational constants: A =      0.03054  B =      0.00843  C =      0.00828 [cm^-1]
  Rotational constants: A =    915.57491  B =    252.64685  C =    248.23168 [MHz]
  Nuclear repulsion =  874.473923086147124

  Charge       = 0
  Multiplicity = 1
  Electrons    = 108
  Nalpha       = 54
  Nbeta        = 54

  ==> Algorithm <==

  SCF Algorithm Type is PK.
  DIIS enabled.
  MOM disabled.
  Fractional occupation disabled.
  Guess Type is SAD.
  Energy threshold   = 1.00e-06
  Density threshold  = 1.00e-10
  Integral threshold = 0.00e+00

  ==> Primary Basis <==

  Basis Set: CC-PVDZ
    Blend: CC-PVDZ
    Number of shells: 138
    Number of basis function: 290
    Number of Cartesian functions: 305
    Spherical Harmonics?: true
    Max angular momentum: 2

  ==> Pre-Iterations <==

   -------------------------------------------------------
    Irrep   Nso     Nmo     Nalpha   Nbeta   Ndocc  Nsocc
   -------------------------------------------------------
     A        290     290       0       0       0       0
   -------------------------------------------------------
    Total     290     290      54      54      54       0
   -------------------------------------------------------

  ==> Integral Setup <==

  Using integral reordering PK algorithm.
  Sizing the integral batches needed.
  Building batch lookup table.
   Calculation information:
      Number of atoms:                  31
      Number of AO shells:             138
      Number of primitives:            410
      Number of atomic orbitals:       305
      Number of basis functions:       290

      Integral cutoff                 1.00e-12
      Number of threads:                 1

	Batch   1 pq = [       0,    9405] index = [             0,44231715] size =     44231715
	Batch   2 pq = [    9405,   13301] index = [      44231715,88464951] size =     44233236
	Batch   3 pq = [   13301,   16290] index = [      88464951,132690195] size =     44225244
	Batch   4 pq = [   16290,   18810] index = [     132690195,176917455] size =     44227260
	Batch   5 pq = [   18810,   21030] index = [     176917455,221140965] size =     44223510
	Batch   6 pq = [   21030,   23037] index = [     221140965,265363203] size =     44222238
	Batch   7 pq = [   23037,   24883] index = [     265363203,309594286] size =     44231083
	Batch   8 pq = [   24883,   26601] index = [     309594286,353819901] size =     44225615
	Batch   9 pq = [   26601,   28214] index = [     353819901,398029005] size =     44209104
	Batch  10 pq = [   28214,   29740] index = [     398029005,442248670] size =     44219665
	Batch  11 pq = [   29740,   31191] index = [     442248670,486454836] size =     44206166
	Batch  12 pq = [   31191,   32578] index = [     486454836,530679331] size =     44224495
	Batch  13 pq = [   32578,   33908] index = [     530679331,574893186] size =     44213855
	Batch  14 pq = [   33908,   35188] index = [     574893186,619115266] size =     44222080
	Batch  15 pq = [   35188,   36423] index = [     619115266,663335676] size =     44220410
	Batch  16 pq = [   36423,   37617] index = [     663335676,707538153] size =     44202477
	Batch  17 pq = [   37617,   38775] index = [     707538153,751769700] size =     44231547
	Batch  18 pq = [   38775,   39899] index = [     751769700,795985050] size =     44215350
	Batch  19 pq = [   39899,   40992] index = [     795985050,840192528] size =     44207478
	Batch  20 pq = [   40992,   42057] index = [     840192528,884416653] size =     44224125
	Batch  21 pq = [   42057,   42195] index = [     884416653,890230110] size =      5813457
  Task number: 81
  Buffer size: 11059200
  Buffer per thread: 2
  We computed 39809590 shell quartets total.
  Whereas there are 45998436 unique shell quartets.

  ==> DiskJK: Disk-Based J/K Matrices <==

    J tasked:                  Yes
    K tasked:                  Yes
    wK tasked:                  No
    Memory [MiB]:              375
    Schwarz Cutoff:          1E-12

    OpenMP threads:              1

  Minimum eigenvalue in the overlap matrix is 2.9332646969E-04.
  Using Symmetric Orthogonalization.

  SCF Guess: Superposition of Atomic Densities via on-the-fly atomic UHF.

  ==> Iterations <==

                        Total Energy        Delta E     RMS |[F,P]|

   @RHF iter SAD:  -613.23799440701896   -6.13238e+02   0.00000e+00
   @RHF iter   1:  -614.05930443656734   -8.21310e-01   2.38387e-03 DIIS
   @RHF iter   2:  -614.33730261607229   -2.77998e-01   9.92859e-04 DIIS
   @RHF iter   3:  -614.37949850966686   -4.21959e-02   2.34070e-04 DIIS
   @RHF iter   4:  -614.38309311016951   -3.59460e-03   8.98428e-05 DIIS
   @RHF iter   5:  -614.38348839486525   -3.95285e-04   1.73959e-05 DIIS
   @RHF iter   6:  -614.38350974275056   -2.13479e-05   5.65396e-06 DIIS
   @RHF iter   7:  -614.38351208387485   -2.34112e-06   1.68583e-06 DIIS
   @RHF iter   8:  -614.38351237803442   -2.94160e-07   6.39380e-07 DIIS
   @RHF iter   9:  -614.38351242285262   -4.48182e-08   2.59211e-07 DIIS
   @RHF iter  10:  -614.38351243116392   -8.31130e-09   1.01603e-07 DIIS
   @RHF iter  11:  -614.38351243358761   -2.42369e-09   4.63702e-08 DIIS
   @RHF iter  12:  -614.38351243410534   -5.17730e-10   2.35293e-08 DIIS
   @RHF iter  13:  -614.38351243420266   -9.73159e-11   6.94078e-09 DIIS
   @RHF iter  14:  -614.38351243421653   -1.38698e-11   1.80934e-09 DIIS
   @RHF iter  15:  -614.38351243421027    6.25278e-12   6.79503e-10 DIIS
   @RHF iter  16:  -614.38351243421403   -3.75167e-12   2.51850e-10 DIIS
   @RHF iter  17:  -614.38351243421755   -3.52429e-12   1.25654e-10 DIIS
   @RHF iter  18:  -614.38351243421414    3.41061e-12   6.21735e-11 DIIS
  Energy and wave function converged.

  ==> Post-Iterations <==

    Orbital Energies [Eh]
    ---------------------

    Doubly Occupied:

       1A    -20.586163     2A    -11.300097     3A    -11.241164
       4A    -11.239909     5A    -11.234790     6A    -11.234614
       7A    -11.234147     8A    -11.231543     9A    -11.229128
      10A    -11.228988    11A    -11.227540    12A    -11.225696
      13A    -11.224410    14A    -11.224251    15A    -11.222366
      16A     -1.398843    17A     -1.153836    18A     -1.147877
      19A     -1.039595    20A     -1.039182    21A     -1.021288
      22A     -1.005807    23A     -0.926996    24A     -0.926356
      25A     -0.847049    26A     -0.819232    27A     -0.803236
      28A     -0.789595    29A     -0.730795    30A     -0.685472
      31A     -0.670773    32A     -0.644785    33A     -0.626270
      34A     -0.623616    35A     -0.608158    36A     -0.591308
      37A     -0.589276    38A     -0.575711    39A     -0.572636
      40A     -0.572151    41A     -0.568218    42A     -0.556768
      43A     -0.531206    44A     -0.526728    45A     -0.499591
      46A     -0.487752    47A     -0.482150    48A     -0.478019
      49A     -0.475797    50A     -0.469262    51A     -0.341903
      52A     -0.326129    53A     -0.316700    54A     -0.303732

    Virtual:

      55A      0.126891    56A      0.141508    57A      0.148379
      58A      0.154191    59A      0.172267    60A      0.184646
      61A      0.193136    62A      0.201620    63A      0.215427
      64A      0.218710    65A      0.236543    66A      0.252154
      67A      0.256373    68A      0.259960    69A      0.264989
      70A      0.277516    71A      0.278971    72A      0.291377
      73A      0.296762    74A      0.343992    75A      0.367290
      76A      0.374082    77A      0.377456    78A      0.380178
      79A      0.429474    80A      0.453404    81A      0.461981
      82A      0.466340    83A      0.476131    84A      0.480337
      85A      0.498042    86A      0.503526    87A      0.512502
      88A      0.567483    89A      0.597415    90A      0.610141
      91A      0.632023    92A      0.634644    93A      0.649164
      94A      0.662138    95A      0.674342    96A      0.675380
      97A      0.691722    98A      0.697114    99A      0.703745
     100A      0.717119   101A      0.727812   102A      0.734240
     103A      0.735442   104A      0.736791   105A      0.742905
     106A      0.748871   107A      0.753731   108A      0.759425
     109A      0.767767   110A      0.773083   111A      0.776656
     112A      0.782599   113A      0.786403   114A      0.795814
     115A      0.816678   116A      0.834674   117A      0.843025
     118A      0.845484   119A      0.861882   120A      0.872606
     121A      0.875457   122A      0.878189   123A      0.885085
     124A      0.886808   125A      0.887899   126A      0.894298
     127A      0.897917   128A      0.919345   129A      0.922004
     130A      0.928333   131A      0.933332   132A      0.939040
     133A      0.939757   134A      0.943584   135A      0.953722
     136A      0.981198   137A      1.003731   138A      1.016150
     139A      1.024855   140A      1.040892   141A      1.050633
     142A      1.069202   143A      1.121916   144A      1.131107
     145A      1.135675   146A      1.141273   147A      1.148295
     148A      1.161553   149A      1.166871   150A      1.175991
     151A      1.208053   152A      1.210051   153A      1.236397
     154A      1.245281   155A      1.253843   156A      1.256688
     157A      1.259293   158A      1.264766   159A      1.276663
     160A      1.288320   161A      1.302278   162A      1.308745
     163A      1.312088   164A      1.313523   165A      1.323766
     166A      1.330835   167A      1.337797   168A      1.356578
     169A      1.382075   170A      1.386420   171A      1.421758
     172A      1.476868   173A      1.496973   174A      1.521571
     175A      1.533872   176A      1.541792   177A      1.560741
     178A      1.564276   179A      1.609632   180A      1.616677
     181A      1.624778   182A      1.677046   183A      1.683009
     184A      1.696365   185A      1.702096   186A      1.734879
     187A      1.742518   188A      1.745024   189A      1.750896
     190A      1.765417   191A      1.779564   192A      1.796704
     193A      1.805761   194A      1.811754   195A      1.821680
     196A      1.861092   197A      1.876375   198A      1.879279
     199A      1.894598   200A      1.899104   201A      1.902984
     202A      1.909207   203A      1.914094   204A      1.919180
     205A      1.922996   206A      1.925486   207A      1.928136
     208A      1.941340   209A      1.946580   210A      1.961831
     211A      1.967381   212A      1.975061   213A      1.980128
     214A      1.986347   215A      1.995202   216A      2.012552
     217A      2.036085   218A      2.042729   219A      2.050612
     220A      2.058692   221A      2.064176   222A      2.067271
     223A      2.072894   224A      2.082378   225A      2.116141
     226A      2.138780   227A      2.143131   228A      2.144981
     229A      2.156272   230A      2.164589   231A      2.176254
     232A      2.195886   233A      2.202521   234A      2.207480
     235A      2.231393   236A      2.253855   237A      2.261437
     238A      2.281596   239A      2.285067   240A      2.294297
     241A      2.296526   242A      2.314213   243A      2.317957
     244A      2.335110   245A      2.354715   246A      2.381090
     247A      2.422244   248A      2.439818   249A      2.464423
     250A      2.470934   251A      2.481159   252A      2.489255
     253A      2.522795   254A      2.534076   255A      2.541788
     256A      2.566028   257A      2.607079   258A      2.636410
     259A      2.638007   260A      2.741511   261A      2.755793
     262A      2.763574   263A      2.768583   264A      2.774914
     265A      2.788771   266A      2.799987   267A      2.811610
     268A      2.831657   269A      2.841728   270A      2.851667
     271A      2.875421   272A      2.902349   273A      2.971943
     274A      2.992703   275A      3.003393   276A      3.021534
     277A      3.040282   278A      3.090697   279A      3.110984
     280A      3.169051   281A      3.213850   282A      3.250421
     283A      3.286986   284A      3.314247   285A      3.339577
     286A      3.581943   287A      3.676533   288A      3.965081
     289A      3.983691   290A      4.166038

    Final Occupation by Irrep:
              A
    DOCC [    54 ]

  @RHF Final Energy:  -614.38351243421414

   => Energetics <=

    Nuclear Repulsion Energy =            874.4739230861471242
    One-Electron Energy =               -2568.3976586492135539
    Two-Electron Energy =                1079.5402231288524035
    Total Energy =                       -614.3835124342140261

Computation Completed

Properties will be evaluated at   0.000000,   0.000000,   0.000000 [a0]

Properties computed using the SCF density matrix

  Nuclear Dipole Moment: [e a0]
     X:    -3.2744      Y:     5.9425      Z:    -3.7609

  Electronic Dipole Moment: [e a0]
     X:     3.5000      Y:    -5.5620      Z:     3.1664

  Dipole Moment: [e a0]
     X:     0.2257      Y:     0.3805      Z:    -0.5945     Total:     0.7411

  Dipole Moment: [D]
     X:     0.5736      Y:     0.9671      Z:    -1.5112     Total:     1.8836

*** tstop() called on ds3 at Sun Apr 26 17:27:49 2020
Module time:
	user time   =     376.91 seconds =       6.28 minutes
	system time =     147.40 seconds =       2.46 minutes
	total time  =        517 seconds =       8.62 minutes
Total time:
	user time   =     376.91 seconds =       6.28 minutes
	system time =     147.40 seconds =       2.46 minutes
	total time  =        517 seconds =       8.62 minutes
                                     G D M A

                                 by Anthony Stone

                           version 2.2.06, 22 June 2011

               Distributed Multipoles from Gaussian wavefunctions

Starting at 17:27:50 on 26 Apr 2020

Using SCF density matrix from file ./SSI/SSI-052TYR-058PHE-1-dimer.test.18126.fchk

                         Distributed Multipole Analysis

Standard DMA

Positions and radii in angstrom
Multipole moments in atomic units, ea_0^k for rank k

C          x =  1.803664  y =  4.203052  z =  0.735412 angstrom
           Maximum rank =  0   Radius =  0.650 angstrom
                   Q00  =  -0.192260

C          x =  1.754664  y =  0.457052  z =  1.368412 angstrom
           Maximum rank =  0   Radius =  0.650 angstrom
                   Q00  =  -0.119361

C          x =  2.368664  y = -0.026948  z =  0.219412 angstrom
           Maximum rank =  0   Radius =  0.650 angstrom
                   Q00  =   0.300684

C          x =  1.575664  y =  1.827052  z =  1.535412 angstrom
           Maximum rank =  0   Radius =  0.650 angstrom
                   Q00  =  -0.016791

C          x =  2.016664  y =  2.722052  z =  0.565412 angstrom
           Maximum rank =  0   Radius =  0.650 angstrom
                   Q00  =  -0.135760

C          x =  2.800664  y =  0.856052  z = -0.762588 angstrom
           Maximum rank =  0   Radius =  0.650 angstrom
                   Q00  =  -0.181141

C          x =  2.619664  y =  2.223052  z = -0.589588 angstrom
           Maximum rank =  0   Radius =  0.650 angstrom
                   Q00  =   0.032057

O          x =  2.542664  y = -1.365948  z =  0.053412 angstrom
           Maximum rank =  0   Radius =  0.650 angstrom
                   Q00  =  -0.676340

H          x =  1.391664  y = -0.241948  z =  2.098412 angstrom
           Maximum rank =  0   Radius =  0.325 angstrom
                   Q00  =   0.080204

H          x =  1.094664  y =  2.196052  z =  2.430412 angstrom
           Maximum rank =  0   Radius =  0.325 angstrom
                   Q00  =   0.064246

H          x =  3.272664  y =  0.478052  z = -1.657588 angstrom
           Maximum rank =  0   Radius =  0.325 angstrom
                   Q00  =   0.070951

H          x =  2.851664  y = -1.567948  z = -0.857588 angstrom
           Maximum rank =  0   Radius =  0.325 angstrom
                   Q00  =   0.412882

H          x =  2.565664  y =  4.734052  z =  0.163412 angstrom
           Maximum rank =  0   Radius =  0.325 angstrom
                   Q00  =   0.094623

H          x =  1.931664  y =  4.481052  z =  1.783412 angstrom
           Maximum rank =  0   Radius =  0.325 angstrom
                   Q00  =   0.097860

H          x =  2.960664  y =  2.904052  z = -1.359588 angstrom
           Maximum rank =  0   Radius =  0.325 angstrom
                   Q00  =   0.069094

H          x =  0.812640  y =  4.522112  z =  0.380342 angstrom
           Maximum rank =  0   Radius =  0.325 angstrom
                   Q00  =   0.100471

C          x = -2.422336  y = -0.778948  z = -2.756588 angstrom
           Maximum rank =  0   Radius =  0.650 angstrom
                   Q00  =  -0.197999

C          x = -1.601336  y = -1.376948  z =  0.900412 angstrom
           Maximum rank =  0   Radius =  0.650 angstrom
                   Q00  =  -0.066009

C          x = -1.517336  y = -0.938948  z = -0.416588 angstrom
           Maximum rank =  0   Radius =  0.650 angstrom
                   Q00  =  -0.054666

C          x = -2.687336  y = -2.137948  z =  1.310412 angstrom
           Maximum rank =  0   Radius =  0.650 angstrom
                   Q00  =  -0.080831

C          x = -2.516336  y = -1.259948  z = -1.333588 angstrom
           Maximum rank =  0   Radius =  0.650 angstrom
                   Q00  =  -0.106057

C          x = -3.688336  y = -2.459948  z =  0.403412 angstrom
           Maximum rank =  0   Radius =  0.650 angstrom
                   Q00  =  -0.079049

C          x = -3.601336  y = -2.020948  z = -0.913588 angstrom
           Maximum rank =  0   Radius =  0.650 angstrom
                   Q00  =  -0.006891

H          x = -0.818336  y = -1.132948  z =  1.601412 angstrom
           Maximum rank =  0   Radius =  0.325 angstrom
                   Q00  =   0.060015

H          x = -0.671336  y = -0.340948  z = -0.725588 angstrom
           Maximum rank =  0   Radius =  0.325 angstrom
                   Q00  =   0.059943

H          x = -2.752336  y = -2.478948  z =  2.335412 angstrom
           Maximum rank =  0   Radius =  0.325 angstrom
                   Q00  =   0.056894

H          x = -4.539336  y = -3.043948  z =  0.725412 angstrom
           Maximum rank =  0   Radius =  0.325 angstrom
                   Q00  =   0.062138

H          x = -2.169336  y =  0.282052  z = -2.725588 angstrom
           Maximum rank =  0   Radius =  0.325 angstrom
                   Q00  =   0.097937

H          x = -3.392336  y = -0.867948  z = -3.248588 angstrom
           Maximum rank =  0   Radius =  0.325 angstrom
                   Q00  =   0.096876

H          x = -4.388336  y = -2.274948  z = -1.608588 angstrom
           Maximum rank =  0   Radius =  0.325 angstrom
                   Q00  =   0.054837

H          x = -1.655745  y = -1.301978  z = -3.347158 angstrom
           Maximum rank =  0   Radius =  0.325 angstrom
                   Q00  =   0.101443

Total multipoles referred to origin at
           x =   0.000000,  y =    0.000000,  z =    0.000000 angstrom
                   Q00  =  -0.000000

Finished at 17:27:50 on 26 Apr 2020

  DMA results are available in the Python driver through the
	  variable('DMA DISTRIBUTED MULTIPOLES')
  and
	  variable('DMA TOTAL MULTIPOLES')
  commands.

    Psi4 stopped on: Sunday, 26 April 2020 05:27PM
    Psi4 wall time for execution: 0:08:37.37

*** Psi4 exiting successfully. Buy a developer a beer!
