                               Psi4 1.3.2 release

  ==> Input File <==

--------------------------------------------------------------------------
import numpy as np
set {scf_type pk
basis cc-pvdz
d_convergence 10
gdma_switch   0
gdma_limit    0
gdma_origin   [ 0.0,  0.0,  0.0 ]
}
molecule test {
    units Angstrom
    0 1
    --
    0 1
    C               -1.311432499893368     1.262245992634363    -3.029603942967194
    C               -1.175432499893368     2.300245992634363    -4.123603942967194
    H               -2.349432499893368     0.993245992634363    -2.859603942967194
    H               -0.740432499893368     0.373245992634363    -3.290603942967194
    H               -0.909432499893368     1.661245992634363    -2.100603942967194
    H               -0.112432499893368     2.519245992634363    -4.240603942967194
    H               -1.681841499893368     3.236495992634363    -3.846143942967194
    H               -1.528208499893368     1.882220392634363    -5.077963942967195
    C                0.730567500106632    -2.810754007365637     2.152396057032806
    C                0.182567500106632     1.140245992634363     0.447396057032806
    C                1.205567500106632     0.308245992634363     0.028396057032806
    C               -0.698432499893368     0.651245992634363     1.406396057032806
    C                1.373567500106632    -0.986754007365637     0.529396057032806
    C               -0.534432499893368    -0.631754007365637     1.936396057032806
    C                0.513567500106632    -1.468754007365637     1.519396057032806
    H                0.079567500106632     2.141245992634363     0.060396057032806
    H                1.919567500106632     0.682245992634363    -0.689603942967194
    H               -1.489432499893368     1.284245992634363     1.773396057032806
    H                2.209567500106632    -1.583754007365637     0.193396057032806
    H               -1.214432499893368    -0.973754007365637     2.704396057032806
    H                0.314567500106632    -2.778754007365637     3.160396057032806
    H                1.804567500106632    -2.951754007365637     2.257396057032806
    H                0.291174500106632    -3.677958007365637     1.637716057032806

}
e, wfn = energy('scf', return_wfn=True)
gdma(wfn)
dmavals = variable('DMA DISTRIBUTED MULTIPOLES')
charges = np.array(dmavals)
print(charges)
np.save('SSI-043ALA-073PHE-1-dimer.npy', np.array(charges))--------------------------------------------------------------------------

*** tstart() called on ds3
*** at Tue Apr 28 03:18:36 2020

   => Loading Basis Set <=

    Name: CC-PVDZ
    Role: ORBITAL
    Keyword: BASIS
    atoms 1-2, 9-15  entry C          line   138 file /theoryfs2/ds/metcalf/miniconda2/envs/tf2gpu/share/psi4/basis/cc-pvdz.gbs
    atoms 3-8, 16-23 entry H          line    22 file /theoryfs2/ds/metcalf/miniconda2/envs/tf2gpu/share/psi4/basis/cc-pvdz.gbs

         ---------------------------------------------------------
                                   SCF
               by Justin Turney, Rob Parrish, Andy Simmonett
                          and Daniel G. A. Smith
                              RHF Reference
                        1 Threads,    500 MiB Core
         ---------------------------------------------------------

  ==> Geometry <==

    Molecular point group: c1
    Full point group: C1

    Geometry (in Angstrom), charge = 0, multiplicity = 1:

       Center              X                  Y                   Z               Mass
    ------------   -----------------  -----------------  -----------------  -----------------
         C           -1.311432499893     1.262245992634    -3.029603942967    12.000000000000
         C           -1.175432499893     2.300245992634    -4.123603942967    12.000000000000
         H           -2.349432499893     0.993245992634    -2.859603942967     1.007825032230
         H           -0.740432499893     0.373245992634    -3.290603942967     1.007825032230
         H           -0.909432499893     1.661245992634    -2.100603942967     1.007825032230
         H           -0.112432499893     2.519245992634    -4.240603942967     1.007825032230
         H           -1.681841499893     3.236495992634    -3.846143942967     1.007825032230
         H           -1.528208499893     1.882220392634    -5.077963942967     1.007825032230
         C            0.730567500107    -2.810754007366     2.152396057033    12.000000000000
         C            0.182567500107     1.140245992634     0.447396057033    12.000000000000
         C            1.205567500107     0.308245992634     0.028396057033    12.000000000000
         C           -0.698432499893     0.651245992634     1.406396057033    12.000000000000
         C            1.373567500107    -0.986754007366     0.529396057033    12.000000000000
         C           -0.534432499893    -0.631754007366     1.936396057033    12.000000000000
         C            0.513567500107    -1.468754007366     1.519396057033    12.000000000000
         H            0.079567500107     2.141245992634     0.060396057033     1.007825032230
         H            1.919567500107     0.682245992634    -0.689603942967     1.007825032230
         H           -1.489432499893     1.284245992634     1.773396057033     1.007825032230
         H            2.209567500107    -1.583754007366     0.193396057033     1.007825032230
         H           -1.214432499893    -0.973754007366     2.704396057033     1.007825032230
         H            0.314567500107    -2.778754007366     3.160396057033     1.007825032230
         H            1.804567500107    -2.951754007366     2.257396057033     1.007825032230
         H            0.291174500107    -3.677958007366     1.637716057033     1.007825032230

  Running in c1 symmetry.

  Rotational constants: A =      0.10089  B =      0.01852  C =      0.01771 [cm^-1]
  Rotational constants: A =   3024.55465  B =    555.09089  C =    531.04057 [MHz]
  Nuclear repulsion =  398.824517276095605

  Charge       = 0
  Multiplicity = 1
  Electrons    = 68
  Nalpha       = 34
  Nbeta        = 34

  ==> Algorithm <==

  SCF Algorithm Type is PK.
  DIIS enabled.
  MOM disabled.
  Fractional occupation disabled.
  Guess Type is SAD.
  Energy threshold   = 1.00e-06
  Density threshold  = 1.00e-10
  Integral threshold = 0.00e+00

  ==> Primary Basis <==

  Basis Set: CC-PVDZ
    Blend: CC-PVDZ
    Number of shells: 96
    Number of basis function: 196
    Number of Cartesian functions: 205
    Spherical Harmonics?: true
    Max angular momentum: 2

  ==> Pre-Iterations <==

   -------------------------------------------------------
    Irrep   Nso     Nmo     Nalpha   Nbeta   Ndocc  Nsocc
   -------------------------------------------------------
     A        196     196       0       0       0       0
   -------------------------------------------------------
    Total     196     196      34      34      34       0
   -------------------------------------------------------

  ==> Integral Setup <==

  Using integral reordering PK algorithm.
  Sizing the integral batches needed.
  Building batch lookup table.
   Calculation information:
      Number of atoms:                  23
      Number of AO shells:              96
      Number of primitives:            268
      Number of atomic orbitals:       205
      Number of basis functions:       196

      Integral cutoff                 1.00e-12
      Number of threads:                 1

	Batch   1 pq = [       0,    9405] index = [             0,44231715] size =     44231715
	Batch   2 pq = [    9405,   13301] index = [      44231715,88464951] size =     44233236
	Batch   3 pq = [   13301,   16290] index = [      88464951,132690195] size =     44225244
	Batch   4 pq = [   16290,   18810] index = [     132690195,176917455] size =     44227260
	Batch   5 pq = [   18810,   19306] index = [     176917455,186370471] size =      9453016
  Task number: 17
  Buffer size: 11059200
  Buffer per thread: 2
  We computed 8468664 shell quartets total.
  Whereas there are 10841496 unique shell quartets.

  ==> DiskJK: Disk-Based J/K Matrices <==

    J tasked:                  Yes
    K tasked:                  Yes
    wK tasked:                  No
    Memory [MiB]:              375
    Schwarz Cutoff:          1E-12

    OpenMP threads:              1

  Minimum eigenvalue in the overlap matrix is 3.1819134603E-04.
  Using Symmetric Orthogonalization.

  SCF Guess: Superposition of Atomic Densities via on-the-fly atomic UHF.

  ==> Iterations <==

                        Total Energy        Delta E     RMS |[F,P]|

   @RHF iter SAD:  -347.87223738051614   -3.47872e+02   0.00000e+00
   @RHF iter   1:  -348.76369619206412   -8.91459e-01   2.90464e-03 DIIS
   @RHF iter   2:  -348.95735142546010   -1.93655e-01   1.20358e-03 DIIS
   @RHF iter   3:  -348.98764736790861   -3.02959e-02   2.57097e-04 DIIS
   @RHF iter   4:  -348.99012591972854   -2.47855e-03   4.90498e-05 DIIS
   @RHF iter   5:  -348.99019174652369   -6.58268e-05   1.67017e-05 DIIS
   @RHF iter   6:  -348.99019860180476   -6.85528e-06   4.63727e-06 DIIS
   @RHF iter   7:  -348.99019920499484   -6.03190e-07   1.27774e-06 DIIS
   @RHF iter   8:  -348.99019925238446   -4.73896e-08   2.66113e-07 DIIS
   @RHF iter   9:  -348.99019925591671   -3.53225e-09   1.00342e-07 DIIS
   @RHF iter  10:  -348.99019925637589   -4.59181e-10   3.84372e-08 DIIS
   @RHF iter  11:  -348.99019925649179   -1.15904e-10   1.45862e-08 DIIS
   @RHF iter  12:  -348.99019925651453   -2.27374e-11   7.70674e-09 DIIS
   @RHF iter  13:  -348.99019925651851   -3.97904e-12   3.66722e-09 DIIS
   @RHF iter  14:  -348.99019925651641    2.10321e-12   9.30423e-10 DIIS
   @RHF iter  15:  -348.99019925652090   -4.49063e-12   3.53541e-10 DIIS
   @RHF iter  16:  -348.99019925651709    3.80851e-12   9.95812e-11 DIIS
  Energy and wave function converged.

  ==> Post-Iterations <==

    Orbital Energies [Eh]
    ---------------------

    Doubly Occupied:

       1A    -11.242952     2A    -11.235560     3A    -11.234435
       4A    -11.231552     5A    -11.231389     6A    -11.230683
       7A    -11.229785     8A    -11.215240     9A    -11.208481
      10A     -1.150963    11A     -1.046583    12A     -1.017878
      13A     -1.007965    14A     -0.933588    15A     -0.831170
      16A     -0.823874    17A     -0.795027    18A     -0.692137
      19A     -0.630781    20A     -0.630129    21A     -0.598550
      22A     -0.593399    23A     -0.579364    24A     -0.576780
      25A     -0.566118    26A     -0.534797    27A     -0.499541
      28A     -0.489569    29A     -0.485016    30A     -0.481751
      31A     -0.479759    32A     -0.475036    33A     -0.329587
      34A     -0.322684

    Virtual:

      35A      0.135616    36A      0.139020    37A      0.174217
      38A      0.191860    39A      0.209653    40A      0.218229
      41A      0.239777    42A      0.246174    43A      0.249491
      44A      0.259471    45A      0.265397    46A      0.275103
      47A      0.281882    48A      0.289066    49A      0.291062
      50A      0.339132    51A      0.371532    52A      0.378048
      53A      0.405566    54A      0.451008    55A      0.464288
      56A      0.477817    57A      0.494289    58A      0.557811
      59A      0.587315    60A      0.595743    61A      0.603608
      62A      0.609730    63A      0.639266    64A      0.658942
      65A      0.681521    66A      0.683747    67A      0.691400
      68A      0.712635    69A      0.717420    70A      0.742076
      71A      0.746789    72A      0.750069    73A      0.757674
      74A      0.765428    75A      0.775830    76A      0.820991
      77A      0.844026    78A      0.851380    79A      0.863924
      80A      0.872294    81A      0.877636    82A      0.883478
      83A      0.891610    84A      0.895208    85A      0.898425
      86A      0.901719    87A      0.908313    88A      0.915300
      89A      0.925251    90A      0.930106    91A      0.938368
      92A      0.964994    93A      0.989260    94A      0.997379
      95A      1.020573    96A      1.062359    97A      1.117753
      98A      1.131513    99A      1.137456   100A      1.148698
     101A      1.149869   102A      1.154720   103A      1.180338
     104A      1.228610   105A      1.233673   106A      1.255794
     107A      1.262275   108A      1.271960   109A      1.299243
     110A      1.305146   111A      1.321343   112A      1.333145
     113A      1.411395   114A      1.482743   115A      1.488645
     116A      1.512969   117A      1.521026   118A      1.538536
     119A      1.589536   120A      1.595524   121A      1.678120
     122A      1.682879   123A      1.695972   124A      1.702348
     125A      1.732578   126A      1.752081   127A      1.765053
     128A      1.785727   129A      1.803810   130A      1.850815
     131A      1.859878   132A      1.874258   133A      1.888947
     134A      1.898245   135A      1.905615   136A      1.909484
     137A      1.915150   138A      1.921003   139A      1.941694
     140A      1.948592   141A      1.954786   142A      1.961739
     143A      1.963264   144A      1.967543   145A      1.977055
     146A      1.981232   147A      1.991709   148A      2.010773
     149A      2.043292   150A      2.056184   151A      2.063656
     152A      2.102720   153A      2.114884   154A      2.124682
     155A      2.143566   156A      2.156564   157A      2.164493
     158A      2.176306   159A      2.178244   160A      2.249074
     161A      2.274312   162A      2.299321   163A      2.300358
     164A      2.304770   165A      2.310290   166A      2.327587
     167A      2.332773   168A      2.456488   169A      2.468653
     170A      2.471122   171A      2.481319   172A      2.498447
     173A      2.542896   174A      2.569523   175A      2.584087
     176A      2.612957   177A      2.736023   178A      2.754126
     179A      2.764437   180A      2.766732   181A      2.777757
     182A      2.811489   183A      2.817103   184A      2.852743
     185A      2.863261   186A      2.868119   187A      2.876163
     188A      2.956590   189A      2.979580   190A      2.983350
     191A      3.005827   192A      3.021745   193A      3.150326
     194A      3.197366   195A      3.292179   196A      3.955212

    Final Occupation by Irrep:
              A
    DOCC [    34 ]

  @RHF Final Energy:  -348.99019925651709

   => Energetics <=

    Nuclear Repulsion Energy =            398.8245172760956052
    One-Electron Energy =               -1260.3651853694475449
    Two-Electron Energy =                 512.5504688368348525
    Total Energy =                       -348.9901992565171440

Computation Completed

Properties will be evaluated at   0.000000,   0.000000,   0.000000 [a0]

Properties computed using the SCF density matrix

  Nuclear Dipole Moment: [e a0]
     X:    -3.1936      Y:     2.6319      Z:    -9.6728

  Electronic Dipole Moment: [e a0]
     X:     3.2670      Y:    -2.7616      Z:     9.8216

  Dipole Moment: [e a0]
     X:     0.0734      Y:    -0.1297      Z:     0.1487     Total:     0.2105

  Dipole Moment: [D]
     X:     0.1865      Y:    -0.3297      Z:     0.3780     Total:     0.5352

*** tstop() called on ds3 at Tue Apr 28 03:20:01 2020
Module time:
	user time   =      60.09 seconds =       1.00 minutes
	system time =      28.05 seconds =       0.47 minutes
	total time  =         85 seconds =       1.42 minutes
Total time:
	user time   =      60.09 seconds =       1.00 minutes
	system time =      28.05 seconds =       0.47 minutes
	total time  =         85 seconds =       1.42 minutes
                                     G D M A

                                 by Anthony Stone

                           version 2.2.06, 22 June 2011

               Distributed Multipoles from Gaussian wavefunctions

Starting at 3:20:1 on 28 Apr 2020

Using SCF density matrix from file ./SSI/SSI-043ALA-073PHE-1-dimer.test.10033.fchk

                         Distributed Multipole Analysis

Standard DMA

Positions and radii in angstrom
Multipole moments in atomic units, ea_0^k for rank k

C          x = -1.311433  y =  1.262246  z = -3.029604 angstrom
           Maximum rank =  0   Radius =  0.650 angstrom
                   Q00  =  -0.213241

C          x = -1.175432  y =  2.300246  z = -4.123604 angstrom
           Maximum rank =  0   Radius =  0.650 angstrom
                   Q00  =  -0.245880

H          x = -2.349433  y =  0.993246  z = -2.859604 angstrom
           Maximum rank =  0   Radius =  0.325 angstrom
                   Q00  =   0.077551

H          x = -0.740433  y =  0.373246  z = -3.290604 angstrom
           Maximum rank =  0   Radius =  0.325 angstrom
                   Q00  =   0.078271

H          x = -0.909432  y =  1.661246  z = -2.100604 angstrom
           Maximum rank =  0   Radius =  0.325 angstrom
                   Q00  =   0.077356

H          x = -0.112432  y =  2.519246  z = -4.240604 angstrom
           Maximum rank =  0   Radius =  0.325 angstrom
                   Q00  =   0.071406

H          x = -1.681842  y =  3.236496  z = -3.846144 angstrom
           Maximum rank =  0   Radius =  0.325 angstrom
                   Q00  =   0.077478

H          x = -1.528209  y =  1.882220  z = -5.077964 angstrom
           Maximum rank =  0   Radius =  0.325 angstrom
                   Q00  =   0.077286

C          x =  0.730567  y = -2.810754  z =  2.152396 angstrom
           Maximum rank =  0   Radius =  0.650 angstrom
                   Q00  =  -0.209026

C          x =  0.182568  y =  1.140246  z =  0.447396 angstrom
           Maximum rank =  0   Radius =  0.650 angstrom
                   Q00  =  -0.091123

C          x =  1.205568  y =  0.308246  z =  0.028396 angstrom
           Maximum rank =  0   Radius =  0.650 angstrom
                   Q00  =   0.026318

C          x = -0.698432  y =  0.651246  z =  1.406396 angstrom
           Maximum rank =  0   Radius =  0.650 angstrom
                   Q00  =  -0.078237

C          x =  1.373568  y = -0.986754  z =  0.529396 angstrom
           Maximum rank =  0   Radius =  0.650 angstrom
                   Q00  =  -0.096933

C          x = -0.534433  y = -0.631754  z =  1.936396 angstrom
           Maximum rank =  0   Radius =  0.650 angstrom
                   Q00  =  -0.068709

C          x =  0.513568  y = -1.468754  z =  1.519396 angstrom
           Maximum rank =  0   Radius =  0.650 angstrom
                   Q00  =  -0.092181

H          x =  0.079568  y =  2.141246  z =  0.060396 angstrom
           Maximum rank =  0   Radius =  0.325 angstrom
                   Q00  =   0.065223

H          x =  1.919567  y =  0.682246  z = -0.689604 angstrom
           Maximum rank =  0   Radius =  0.325 angstrom
                   Q00  =   0.061072

H          x = -1.489433  y =  1.284246  z =  1.773396 angstrom
           Maximum rank =  0   Radius =  0.325 angstrom
                   Q00  =   0.064852

H          x =  2.209568  y = -1.583754  z =  0.193396 angstrom
           Maximum rank =  0   Radius =  0.325 angstrom
                   Q00  =   0.058377

H          x = -1.214432  y = -0.973754  z =  2.704396 angstrom
           Maximum rank =  0   Radius =  0.325 angstrom
                   Q00  =   0.056837

H          x =  0.314568  y = -2.778754  z =  3.160396 angstrom
           Maximum rank =  0   Radius =  0.325 angstrom
                   Q00  =   0.096978

H          x =  1.804568  y = -2.951754  z =  2.257396 angstrom
           Maximum rank =  0   Radius =  0.325 angstrom
                   Q00  =   0.099090

H          x =  0.291175  y = -3.677958  z =  1.637716 angstrom
           Maximum rank =  0   Radius =  0.325 angstrom
                   Q00  =   0.107235

Total multipoles referred to origin at
           x =   0.000000,  y =    0.000000,  z =    0.000000 angstrom
                   Q00  =  -0.000000

Finished at 3:20:1 on 28 Apr 2020

  DMA results are available in the Python driver through the
	  variable('DMA DISTRIBUTED MULTIPOLES')
  and
	  variable('DMA TOTAL MULTIPOLES')
  commands.

    Psi4 stopped on: Tuesday, 28 April 2020 03:20AM
    Psi4 wall time for execution: 0:01:24.86

*** Psi4 exiting successfully. Buy a developer a beer!
