                               Psi4 1.3.2 release

  ==> Input File <==

--------------------------------------------------------------------------
import numpy as np
set {scf_type pk
basis cc-pvdz
d_convergence 10
gdma_switch   0
gdma_limit    0
gdma_origin   [ 0.0,  0.0,  0.0 ]
}
molecule test {
    units Angstrom
    0 1
    --
    0 1
    C               -0.996053251658239    -4.236014956536171    -0.212140460119830
    C                0.574946748341761    -0.970014956536171    -1.445140460119830
    C               -0.370053251658239    -2.011014956536170    -1.232140460119830
    C                1.823946748341761    -1.025014956536171    -0.827140460119830
    C               -0.016053251658239    -3.120014956536171    -0.449140460119830
    C                2.157946748341761    -2.125014956536171    -0.010140460119830
    C                1.242946748341761    -3.152014956536171     0.164859539880170
    H                0.318946748341761    -0.133014956536171    -2.077140460119830
    H               -1.340053251658239    -1.958014956536170    -1.704140460119830
    H                2.535946748341761    -0.225014956536171    -0.980140460119830
    H                3.127946748341761    -2.178014956536171     0.460859539880170
    H               -0.514053251658239    -5.028014956536171     0.362859539880170
    H               -1.271053251658240    -4.649014956536170    -1.179140460119830
    H                1.497946748341761    -3.990014956536171     0.793859539880170
    H               -1.901803251658239    -3.908522956536171     0.319239539880170
    C               -0.706053251658239     2.364985043463829    -0.133140460119830
    C               -0.478053251658239     3.355985043463829    -1.277140460119830
    C               -0.810053251658239     3.025985043463829     1.236859539880170
    O                0.095946748341761     3.699985043463829     1.701859539880170
    N               -1.850053251658239     2.715985043463829     1.967859539880170
    H               -1.596053251658239     1.766985043463829    -0.337140460119830
    H                0.141946748341761     1.679985043463829    -0.086140460119830
    H                0.303946748341761     4.045985043463829    -0.952140460119830
    H               -1.911053251658239     3.108985043463830     2.894859539880170
    H               -2.592053251658239     2.157985043463829     1.576859539880170
    H               -1.394463251658239     3.943065043463829    -1.436910460119830
    H               -0.079363251658239     2.878815043463829    -2.184530460119829

}
e, wfn = energy('scf', return_wfn=True)
gdma(wfn)
dmavals = variable('DMA DISTRIBUTED MULTIPOLES')
charges = np.array(dmavals)
print(charges)
np.save('SSI-162PHE-207ASN-1-dimer.npy', np.array(charges))--------------------------------------------------------------------------

*** tstart() called on ds3
*** at Tue Apr 28 05:17:17 2020

   => Loading Basis Set <=

    Name: CC-PVDZ
    Role: ORBITAL
    Keyword: BASIS
    atoms 1-7, 16-18  entry C          line   138 file /theoryfs2/ds/metcalf/miniconda2/envs/tf2gpu/share/psi4/basis/cc-pvdz.gbs
    atoms 8-15, 21-27 entry H          line    22 file /theoryfs2/ds/metcalf/miniconda2/envs/tf2gpu/share/psi4/basis/cc-pvdz.gbs
    atoms 19          entry O          line   198 file /theoryfs2/ds/metcalf/miniconda2/envs/tf2gpu/share/psi4/basis/cc-pvdz.gbs
    atoms 20          entry N          line   168 file /theoryfs2/ds/metcalf/miniconda2/envs/tf2gpu/share/psi4/basis/cc-pvdz.gbs

         ---------------------------------------------------------
                                   SCF
               by Justin Turney, Rob Parrish, Andy Simmonett
                          and Daniel G. A. Smith
                              RHF Reference
                        1 Threads,    500 MiB Core
         ---------------------------------------------------------

  ==> Geometry <==

    Molecular point group: c1
    Full point group: C1

    Geometry (in Angstrom), charge = 0, multiplicity = 1:

       Center              X                  Y                   Z               Mass
    ------------   -----------------  -----------------  -----------------  -----------------
         C           -0.996053251658    -4.236014956536    -0.212140460120    12.000000000000
         C            0.574946748342    -0.970014956536    -1.445140460120    12.000000000000
         C           -0.370053251658    -2.011014956536    -1.232140460120    12.000000000000
         C            1.823946748342    -1.025014956536    -0.827140460120    12.000000000000
         C           -0.016053251658    -3.120014956536    -0.449140460120    12.000000000000
         C            2.157946748342    -2.125014956536    -0.010140460120    12.000000000000
         C            1.242946748342    -3.152014956536     0.164859539880    12.000000000000
         H            0.318946748342    -0.133014956536    -2.077140460120     1.007825032230
         H           -1.340053251658    -1.958014956536    -1.704140460120     1.007825032230
         H            2.535946748342    -0.225014956536    -0.980140460120     1.007825032230
         H            3.127946748342    -2.178014956536     0.460859539880     1.007825032230
         H           -0.514053251658    -5.028014956536     0.362859539880     1.007825032230
         H           -1.271053251658    -4.649014956536    -1.179140460120     1.007825032230
         H            1.497946748342    -3.990014956536     0.793859539880     1.007825032230
         H           -1.901803251658    -3.908522956536     0.319239539880     1.007825032230
         C           -0.706053251658     2.364985043464    -0.133140460120    12.000000000000
         C           -0.478053251658     3.355985043464    -1.277140460120    12.000000000000
         C           -0.810053251658     3.025985043464     1.236859539880    12.000000000000
         O            0.095946748342     3.699985043464     1.701859539880    15.994914619570
         N           -1.850053251658     2.715985043464     1.967859539880    14.003074004430
         H           -1.596053251658     1.766985043464    -0.337140460120     1.007825032230
         H            0.141946748342     1.679985043464    -0.086140460120     1.007825032230
         H            0.303946748342     4.045985043464    -0.952140460120     1.007825032230
         H           -1.911053251658     3.108985043464     2.894859539880     1.007825032230
         H           -2.592053251658     2.157985043464     1.576859539880     1.007825032230
         H           -1.394463251658     3.943065043464    -1.436910460120     1.007825032230
         H           -0.079363251658     2.878815043464    -2.184530460120     1.007825032230

  Running in c1 symmetry.

  Rotational constants: A =      0.04573  B =      0.01049  C =      0.01011 [cm^-1]
  Rotational constants: A =   1370.89471  B =    314.61091  C =    302.97899 [MHz]
  Nuclear repulsion =  626.782220915121457

  Charge       = 0
  Multiplicity = 1
  Electrons    = 90
  Nalpha       = 45
  Nbeta        = 45

  ==> Algorithm <==

  SCF Algorithm Type is PK.
  DIIS enabled.
  MOM disabled.
  Fractional occupation disabled.
  Guess Type is SAD.
  Energy threshold   = 1.00e-06
  Density threshold  = 1.00e-10
  Integral threshold = 0.00e+00

  ==> Primary Basis <==

  Basis Set: CC-PVDZ
    Blend: CC-PVDZ
    Number of shells: 117
    Number of basis function: 243
    Number of Cartesian functions: 255
    Spherical Harmonics?: true
    Max angular momentum: 2

  ==> Pre-Iterations <==

   -------------------------------------------------------
    Irrep   Nso     Nmo     Nalpha   Nbeta   Ndocc  Nsocc
   -------------------------------------------------------
     A        243     243       0       0       0       0
   -------------------------------------------------------
    Total     243     243      45      45      45       0
   -------------------------------------------------------

  ==> Integral Setup <==

  Using integral reordering PK algorithm.
  Sizing the integral batches needed.
  Building batch lookup table.
   Calculation information:
      Number of atoms:                  27
      Number of AO shells:             117
      Number of primitives:            339
      Number of atomic orbitals:       255
      Number of basis functions:       243

      Integral cutoff                 1.00e-12
      Number of threads:                 1

	Batch   1 pq = [       0,    9405] index = [             0,44231715] size =     44231715
	Batch   2 pq = [    9405,   13301] index = [      44231715,88464951] size =     44233236
	Batch   3 pq = [   13301,   16290] index = [      88464951,132690195] size =     44225244
	Batch   4 pq = [   16290,   18810] index = [     132690195,176917455] size =     44227260
	Batch   5 pq = [   18810,   21030] index = [     176917455,221140965] size =     44223510
	Batch   6 pq = [   21030,   23037] index = [     221140965,265363203] size =     44222238
	Batch   7 pq = [   23037,   24883] index = [     265363203,309594286] size =     44231083
	Batch   8 pq = [   24883,   26601] index = [     309594286,353819901] size =     44225615
	Batch   9 pq = [   26601,   28214] index = [     353819901,398029005] size =     44209104
	Batch  10 pq = [   28214,   29646] index = [     398029005,439457481] size =     41428476
  Task number: 40
  Buffer size: 11059200
  Buffer per thread: 2
  We computed 18911748 shell quartets total.
  Whereas there are 23829156 unique shell quartets.

  ==> DiskJK: Disk-Based J/K Matrices <==

    J tasked:                  Yes
    K tasked:                  Yes
    wK tasked:                  No
    Memory [MiB]:              375
    Schwarz Cutoff:          1E-12

    OpenMP threads:              1

  Minimum eigenvalue in the overlap matrix is 3.3278940866E-04.
  Using Symmetric Orthogonalization.

  SCF Guess: Superposition of Atomic Densities via on-the-fly atomic UHF.

  ==> Iterations <==

                        Total Energy        Delta E     RMS |[F,P]|

   @RHF iter SAD:  -515.38673328149912   -5.15387e+02   0.00000e+00
   @RHF iter   1:  -516.46941344273216   -1.08268e+00   2.98090e-03 DIIS
   @RHF iter   2:  -516.72289748214962   -2.53484e-01   1.55058e-03 DIIS
   @RHF iter   3:  -516.78060572843788   -5.77082e-02   3.61814e-04 DIIS
   @RHF iter   4:  -516.78513337800564   -4.52765e-03   1.46415e-04 DIIS
   @RHF iter   5:  -516.78585347789988   -7.20100e-04   2.08733e-05 DIIS
   @RHF iter   6:  -516.78588672648493   -3.32486e-05   9.06608e-06 DIIS
   @RHF iter   7:  -516.78589200555950   -5.27907e-06   3.57029e-06 DIIS
   @RHF iter   8:  -516.78589311050041   -1.10494e-06   1.35312e-06 DIIS
   @RHF iter   9:  -516.78589326442648   -1.53926e-07   4.58742e-07 DIIS
   @RHF iter  10:  -516.78589327657357   -1.21471e-08   1.54415e-07 DIIS
   @RHF iter  11:  -516.78589327824477   -1.67120e-09   4.59287e-08 DIIS
   @RHF iter  12:  -516.78589327839745   -1.52681e-10   1.70082e-08 DIIS
   @RHF iter  13:  -516.78589327842678   -2.93312e-11   6.49073e-09 DIIS
   @RHF iter  14:  -516.78589327843576   -8.98126e-12   2.84636e-09 DIIS
   @RHF iter  15:  -516.78589327843599   -2.27374e-13   1.19631e-09 DIIS
   @RHF iter  16:  -516.78589327843531    6.82121e-13   3.82975e-10 DIIS
   @RHF iter  17:  -516.78589327843451    7.95808e-13   1.50860e-10 DIIS
   @RHF iter  18:  -516.78589327843429    2.27374e-13   5.42181e-11 DIIS
  Energy and wave function converged.

  ==> Post-Iterations <==

    Orbital Energies [Eh]
    ---------------------

    Doubly Occupied:

       1A    -20.495350     2A    -15.583959     3A    -11.336793
       4A    -11.246722     5A    -11.244110     6A    -11.240649
       7A    -11.239340     8A    -11.237676     9A    -11.236903
      10A    -11.234128    11A    -11.233074    12A    -11.227902
      13A     -1.369249    14A     -1.215953    15A     -1.150649
      16A     -1.046316    17A     -1.044661    18A     -1.012116
      19A     -0.933544    20A     -0.885541    21A     -0.827802
      22A     -0.797238    23A     -0.785129    24A     -0.724632
      25A     -0.692067    26A     -0.661204    27A     -0.637268
      28A     -0.631255    29A     -0.621631    30A     -0.586043
      31A     -0.581579    32A     -0.580394    33A     -0.566632
      34A     -0.564994    35A     -0.538698    36A     -0.522432
      37A     -0.498595    38A     -0.492613    39A     -0.489033
      40A     -0.486494    41A     -0.482841    42A     -0.402522
      43A     -0.398163    44A     -0.334034    45A     -0.323468

    Virtual:

      46A      0.125750    47A      0.137460    48A      0.157659
      49A      0.180494    50A      0.187089    51A      0.206249
      52A      0.213767    53A      0.224005    54A      0.233650
      55A      0.238146    56A      0.245984    57A      0.255112
      58A      0.263515    59A      0.277782    60A      0.278869
      61A      0.291147    62A      0.307501    63A      0.320666
      64A      0.354899    65A      0.371623    66A      0.388238
      67A      0.432016    68A      0.447230    69A      0.456751
      70A      0.468979    71A      0.473799    72A      0.495674
      73A      0.565385    74A      0.579703    75A      0.593852
      76A      0.608070    77A      0.612787    78A      0.623291
      79A      0.644542    80A      0.670494    81A      0.679920
      82A      0.686982    83A      0.695801    84A      0.709601
      85A      0.716129    86A      0.733141    87A      0.736289
      88A      0.742960    89A      0.749340    90A      0.755044
      91A      0.761445    92A      0.778358    93A      0.783727
      94A      0.800719    95A      0.830156    96A      0.839078
      97A      0.857006    98A      0.862063    99A      0.868359
     100A      0.871539   101A      0.885181   102A      0.887789
     103A      0.891266   104A      0.893298   105A      0.903583
     106A      0.913581   107A      0.919068   108A      0.921710
     109A      0.935511   110A      0.939444   111A      0.955939
     112A      0.962417   113A      0.971996   114A      0.985335
     115A      1.011925   116A      1.019666   117A      1.040888
     118A      1.054656   119A      1.075504   120A      1.107320
     121A      1.115896   122A      1.133947   123A      1.140061
     124A      1.153443   125A      1.160825   126A      1.193109
     127A      1.212525   128A      1.235718   129A      1.238674
     130A      1.249571   131A      1.287431   132A      1.296001
     133A      1.299526   134A      1.309395   135A      1.318490
     136A      1.329568   137A      1.381311   138A      1.392185
     139A      1.409782   140A      1.420374   141A      1.436322
     142A      1.472273   143A      1.484947   144A      1.509970
     145A      1.517609   146A      1.548221   147A      1.556165
     148A      1.602359   149A      1.646070   150A      1.671101
     151A      1.675441   152A      1.681265   153A      1.726405
     154A      1.728681   155A      1.738253   156A      1.748830
     157A      1.769604   158A      1.786643   159A      1.806454
     160A      1.831254   161A      1.851603   162A      1.863206
     163A      1.869987   164A      1.882004   165A      1.886194
     166A      1.891730   167A      1.899148   168A      1.910767
     169A      1.915049   170A      1.920289   171A      1.934156
     172A      1.937678   173A      1.943411   174A      1.950445
     175A      1.956837   176A      1.963483   177A      1.975967
     178A      1.986898   179A      2.000478   180A      2.008990
     181A      2.025055   182A      2.038520   183A      2.046892
     184A      2.061684   185A      2.086942   186A      2.098736
     187A      2.100196   188A      2.118034   189A      2.142115
     190A      2.148351   191A      2.157887   192A      2.186460
     193A      2.200489   194A      2.225361   195A      2.238438
     196A      2.258554   197A      2.266893   198A      2.277905
     199A      2.292500   200A      2.309212   201A      2.330891
     202A      2.350822   203A      2.397748   204A      2.436404
     205A      2.462605   206A      2.464510   207A      2.467424
     208A      2.513721   209A      2.517397   210A      2.529349
     211A      2.552571   212A      2.584567   213A      2.601873
     214A      2.624716   215A      2.653041   216A      2.717542
     217A      2.741098   218A      2.761105   219A      2.765923
     220A      2.774580   221A      2.776530   222A      2.804567
     223A      2.823427   224A      2.838329   225A      2.858859
     226A      2.860084   227A      2.912768   228A      2.951971
     229A      2.981887   230A      2.993466   231A      2.998158
     232A      3.009911   233A      3.108885   234A      3.145456
     235A      3.147278   236A      3.177159   237A      3.279697
     238A      3.313030   239A      3.498768   240A      3.557042
     241A      3.890475   242A      3.930754   243A      3.934485

    Final Occupation by Irrep:
              A
    DOCC [    45 ]

  @RHF Final Energy:  -516.78589327843429

   => Energetics <=

    Nuclear Repulsion Energy =            626.7822209151214565
    One-Electron Energy =               -1944.2534396205624034
    Two-Electron Energy =                 800.6853254270067737
    Total Energy =                       -516.7858932784342869

Computation Completed

Properties will be evaluated at   0.000000,   0.000000,   0.000000 [a0]

Properties computed using the SCF density matrix

  Nuclear Dipole Moment: [e a0]
     X:    -4.3752      Y:    -2.3224      Z:    -4.2432

  Electronic Dipole Moment: [e a0]
     X:     3.0273      Y:     1.2945      Z:     3.9496

  Dipole Moment: [e a0]
     X:    -1.3479      Y:    -1.0279      Z:    -0.2937     Total:     1.7203

  Dipole Moment: [D]
     X:    -3.4259      Y:    -2.6126      Z:    -0.7464     Total:     4.3726

*** tstop() called on ds3 at Tue Apr 28 05:22:32 2020
Module time:
	user time   =     138.37 seconds =       2.31 minutes
	system time =      62.51 seconds =       1.04 minutes
	total time  =        315 seconds =       5.25 minutes
Total time:
	user time   =     138.37 seconds =       2.31 minutes
	system time =      62.51 seconds =       1.04 minutes
	total time  =        315 seconds =       5.25 minutes
                                     G D M A

                                 by Anthony Stone

                           version 2.2.06, 22 June 2011

               Distributed Multipoles from Gaussian wavefunctions

Starting at 5:22:33 on 28 Apr 2020

Using SCF density matrix from file ./SSI/SSI-162PHE-207ASN-1-dimer.test.28276.fchk

                         Distributed Multipole Analysis

Standard DMA

Positions and radii in angstrom
Multipole moments in atomic units, ea_0^k for rank k

C          x = -0.996053  y = -4.236015  z = -0.212140 angstrom
           Maximum rank =  0   Radius =  0.650 angstrom
                   Q00  =  -0.202722

C          x =  0.574947  y = -0.970015  z = -1.445140 angstrom
           Maximum rank =  0   Radius =  0.650 angstrom
                   Q00  =  -0.075007

C          x = -0.370053  y = -2.011015  z = -1.232140 angstrom
           Maximum rank =  0   Radius =  0.650 angstrom
                   Q00  =  -0.103315

C          x =  1.823947  y = -1.025015  z = -0.827140 angstrom
           Maximum rank =  0   Radius =  0.650 angstrom
                   Q00  =  -0.061217

C          x = -0.016053  y = -3.120015  z = -0.449140 angstrom
           Maximum rank =  0   Radius =  0.650 angstrom
                   Q00  =  -0.102608

C          x =  2.157947  y = -2.125015  z = -0.010140 angstrom
           Maximum rank =  0   Radius =  0.650 angstrom
                   Q00  =  -0.080686

C          x =  1.242947  y = -3.152015  z =  0.164860 angstrom
           Maximum rank =  0   Radius =  0.650 angstrom
                   Q00  =  -0.000474

H          x =  0.318947  y = -0.133015  z = -2.077140 angstrom
           Maximum rank =  0   Radius =  0.325 angstrom
                   Q00  =   0.066858

H          x = -1.340053  y = -1.958015  z = -1.704140 angstrom
           Maximum rank =  0   Radius =  0.325 angstrom
                   Q00  =   0.059092

H          x =  2.535947  y = -0.225015  z = -0.980140 angstrom
           Maximum rank =  0   Radius =  0.325 angstrom
                   Q00  =   0.067367

H          x =  3.127947  y = -2.178015  z =  0.460860 angstrom
           Maximum rank =  0   Radius =  0.325 angstrom
                   Q00  =   0.071066

H          x = -0.514053  y = -5.028015  z =  0.362860 angstrom
           Maximum rank =  0   Radius =  0.325 angstrom
                   Q00  =   0.097754

H          x = -1.271053  y = -4.649015  z = -1.179140 angstrom
           Maximum rank =  0   Radius =  0.325 angstrom
                   Q00  =   0.102943

H          x =  1.497947  y = -3.990015  z =  0.793860 angstrom
           Maximum rank =  0   Radius =  0.325 angstrom
                   Q00  =   0.059270

H          x = -1.901803  y = -3.908523  z =  0.319240 angstrom
           Maximum rank =  0   Radius =  0.325 angstrom
                   Q00  =   0.101766

C          x = -0.706053  y =  2.364985  z = -0.133140 angstrom
           Maximum rank =  0   Radius =  0.650 angstrom
                   Q00  =  -0.129211

C          x = -0.478053  y =  3.355985  z = -1.277140 angstrom
           Maximum rank =  0   Radius =  0.650 angstrom
                   Q00  =  -0.191984

C          x = -0.810053  y =  3.025985  z =  1.236860 angstrom
           Maximum rank =  0   Radius =  0.650 angstrom
                   Q00  =   0.826756

O          x =  0.095947  y =  3.699985  z =  1.701860 angstrom
           Maximum rank =  0   Radius =  0.650 angstrom
                   Q00  =  -0.814230

N          x = -1.850053  y =  2.715985  z =  1.967860 angstrom
           Maximum rank =  0   Radius =  0.650 angstrom
                   Q00  =  -0.512909

H          x = -1.596053  y =  1.766985  z = -0.337140 angstrom
           Maximum rank =  0   Radius =  0.325 angstrom
                   Q00  =   0.038306

H          x =  0.141947  y =  1.679985  z = -0.086140 angstrom
           Maximum rank =  0   Radius =  0.325 angstrom
                   Q00  =   0.115152

H          x =  0.303947  y =  4.045985  z = -0.952140 angstrom
           Maximum rank =  0   Radius =  0.325 angstrom
                   Q00  =   0.105556

H          x = -1.911053  y =  3.108985  z =  2.894860 angstrom
           Maximum rank =  0   Radius =  0.325 angstrom
                   Q00  =   0.219995

H          x = -2.592053  y =  2.157985  z =  1.576860 angstrom
           Maximum rank =  0   Radius =  0.325 angstrom
                   Q00  =   0.203621

H          x = -1.394463  y =  3.943065  z = -1.436910 angstrom
           Maximum rank =  0   Radius =  0.325 angstrom
                   Q00  =   0.064128

H          x = -0.079363  y =  2.878815  z = -2.184530 angstrom
           Maximum rank =  0   Radius =  0.325 angstrom
                   Q00  =   0.074732

Total multipoles referred to origin at
           x =   0.000000,  y =    0.000000,  z =    0.000000 angstrom
                   Q00  =  -0.000000

Finished at 5:22:33 on 28 Apr 2020

  DMA results are available in the Python driver through the
	  variable('DMA DISTRIBUTED MULTIPOLES')
  and
	  variable('DMA TOTAL MULTIPOLES')
  commands.

    Psi4 stopped on: Tuesday, 28 April 2020 05:22AM
    Psi4 wall time for execution: 0:05:15.17

*** Psi4 exiting successfully. Buy a developer a beer!
