                               Psi4 1.3.2 release

  ==> Input File <==

--------------------------------------------------------------------------
import numpy as np
set {scf_type pk
basis cc-pvdz
d_convergence 10
gdma_switch   0
gdma_limit    0
gdma_origin   [ 0.0,  0.0,  0.0 ]
}
molecule test {
    units Angstrom
    0 1
    --
    0 1
    C                1.652112480905646     2.385972506412973     1.969044319501341
    C               -0.730887519094354     0.089972506412972     0.243044319501341
    C               -0.072887519094354     1.198972506412972     0.695044319501341
    C               -0.295887519094354    -1.150027493587028     0.622044319501341
    C                1.031112480905646     1.110972506412972     1.533044319501341
    C                0.836112480905646    -1.270027493587028     1.466044319501342
    C                1.500112480905645    -0.122027493587028     1.944044319501341
    O               -0.912887519094354    -2.279027493587028     0.165044319501341
    H               -1.597887519094354     0.189972506412972    -0.388955680498659
    H               -0.431887519094354     2.170972506412972     0.386044319501341
    H               -1.727887519094354    -2.019027493587028    -0.311955680498659
    H                1.178112480905645    -2.253027493587028     1.751044319501341
    H                1.435112480905646     3.149972506412972     1.222044319501341
    H                2.733112480905646     2.276972506412972     1.981044319501341
    H                2.359112480905646    -0.205027493587028     2.595044319501341
    H                1.281613480905646     2.735732506412972     2.943924319501341
    C               -0.832887519094354     0.206972506412972    -3.182955680498659
    C               -1.675887519094354     0.021972506412972    -4.442955680498659
    H               -0.912887519094354    -0.676027493587028    -2.547955680498659
    H                0.213112480905646     0.350972506412972    -3.447955680498659
    H               -1.149887519094354     1.087972506412972    -2.625955680498659
    H               -1.577887519094354     0.907972506412972    -5.071955680498658
    H               -2.728341519094355    -0.123962493587028    -4.158275680498659
    H               -1.386003919094354    -0.866288493587028    -5.023435680498658

}
e, wfn = energy('scf', return_wfn=True)
gdma(wfn)
dmavals = variable('DMA DISTRIBUTED MULTIPOLES')
charges = np.array(dmavals)
print(charges)
np.save('SSI-062TYR-093ILE-1-dimer.npy', np.array(charges))--------------------------------------------------------------------------

*** tstart() called on ds3
*** at Tue Apr 28 03:07:43 2020

   => Loading Basis Set <=

    Name: CC-PVDZ
    Role: ORBITAL
    Keyword: BASIS
    atoms 1-7, 17-18  entry C          line   138 file /theoryfs2/ds/metcalf/miniconda2/envs/tf2gpu/share/psi4/basis/cc-pvdz.gbs
    atoms 8           entry O          line   198 file /theoryfs2/ds/metcalf/miniconda2/envs/tf2gpu/share/psi4/basis/cc-pvdz.gbs
    atoms 9-16, 19-24 entry H          line    22 file /theoryfs2/ds/metcalf/miniconda2/envs/tf2gpu/share/psi4/basis/cc-pvdz.gbs

         ---------------------------------------------------------
                                   SCF
               by Justin Turney, Rob Parrish, Andy Simmonett
                          and Daniel G. A. Smith
                              RHF Reference
                        1 Threads,    500 MiB Core
         ---------------------------------------------------------

  ==> Geometry <==

    Molecular point group: c1
    Full point group: C1

    Geometry (in Angstrom), charge = 0, multiplicity = 1:

       Center              X                  Y                   Z               Mass
    ------------   -----------------  -----------------  -----------------  -----------------
         C            1.652112480906     2.385972506413     1.969044319501    12.000000000000
         C           -0.730887519094     0.089972506413     0.243044319501    12.000000000000
         C           -0.072887519094     1.198972506413     0.695044319501    12.000000000000
         C           -0.295887519094    -1.150027493587     0.622044319501    12.000000000000
         C            1.031112480906     1.110972506413     1.533044319501    12.000000000000
         C            0.836112480906    -1.270027493587     1.466044319501    12.000000000000
         C            1.500112480906    -0.122027493587     1.944044319501    12.000000000000
         O           -0.912887519094    -2.279027493587     0.165044319501    15.994914619570
         H           -1.597887519094     0.189972506413    -0.388955680499     1.007825032230
         H           -0.431887519094     2.170972506413     0.386044319501     1.007825032230
         H           -1.727887519094    -2.019027493587    -0.311955680499     1.007825032230
         H            1.178112480906    -2.253027493587     1.751044319501     1.007825032230
         H            1.435112480906     3.149972506413     1.222044319501     1.007825032230
         H            2.733112480906     2.276972506413     1.981044319501     1.007825032230
         H            2.359112480906    -0.205027493587     2.595044319501     1.007825032230
         H            1.281613480906     2.735732506413     2.943924319501     1.007825032230
         C           -0.832887519094     0.206972506413    -3.182955680499    12.000000000000
         C           -1.675887519094     0.021972506413    -4.442955680499    12.000000000000
         H           -0.912887519094    -0.676027493587    -2.547955680499     1.007825032230
         H            0.213112480906     0.350972506413    -3.447955680499     1.007825032230
         H           -1.149887519094     1.087972506413    -2.625955680499     1.007825032230
         H           -1.577887519094     0.907972506413    -5.071955680499     1.007825032230
         H           -2.728341519094    -0.123962493587    -4.158275680499     1.007825032230
         H           -1.386003919094    -0.866288493587    -5.023435680499     1.007825032230

  Running in c1 symmetry.

  Rotational constants: A =      0.05627  B =      0.02075  C =      0.01620 [cm^-1]
  Rotational constants: A =   1686.78230  B =    622.14728  C =    485.61999 [MHz]
  Nuclear repulsion =  493.553001832420364

  Charge       = 0
  Multiplicity = 1
  Electrons    = 76
  Nalpha       = 38
  Nbeta        = 38

  ==> Algorithm <==

  SCF Algorithm Type is PK.
  DIIS enabled.
  MOM disabled.
  Fractional occupation disabled.
  Guess Type is SAD.
  Energy threshold   = 1.00e-06
  Density threshold  = 1.00e-10
  Integral threshold = 0.00e+00

  ==> Primary Basis <==

  Basis Set: CC-PVDZ
    Blend: CC-PVDZ
    Number of shells: 102
    Number of basis function: 210
    Number of Cartesian functions: 220
    Spherical Harmonics?: true
    Max angular momentum: 2

  ==> Pre-Iterations <==

   -------------------------------------------------------
    Irrep   Nso     Nmo     Nalpha   Nbeta   Ndocc  Nsocc
   -------------------------------------------------------
     A        210     210       0       0       0       0
   -------------------------------------------------------
    Total     210     210      38      38      38       0
   -------------------------------------------------------

  ==> Integral Setup <==

  Using integral reordering PK algorithm.
  Sizing the integral batches needed.
  Building batch lookup table.
   Calculation information:
      Number of atoms:                  24
      Number of AO shells:             102
      Number of primitives:            290
      Number of atomic orbitals:       220
      Number of basis functions:       210

      Integral cutoff                 1.00e-12
      Number of threads:                 1

	Batch   1 pq = [       0,    9405] index = [             0,44231715] size =     44231715
	Batch   2 pq = [    9405,   13301] index = [      44231715,88464951] size =     44233236
	Batch   3 pq = [   13301,   16290] index = [      88464951,132690195] size =     44225244
	Batch   4 pq = [   16290,   18810] index = [     132690195,176917455] size =     44227260
	Batch   5 pq = [   18810,   21030] index = [     176917455,221140965] size =     44223510
	Batch   6 pq = [   21030,   22155] index = [     221140965,245433090] size =     24292125
  Task number: 23
  Buffer size: 11059200
  Buffer per thread: 2
  We computed 11239769 shell quartets total.
  Whereas there are 13799631 unique shell quartets.

  ==> DiskJK: Disk-Based J/K Matrices <==

    J tasked:                  Yes
    K tasked:                  Yes
    wK tasked:                  No
    Memory [MiB]:              375
    Schwarz Cutoff:          1E-12

    OpenMP threads:              1

  Minimum eigenvalue in the overlap matrix is 3.2311941985E-04.
  Using Symmetric Orthogonalization.

  SCF Guess: Superposition of Atomic Densities via on-the-fly atomic UHF.

  ==> Iterations <==

                        Total Energy        Delta E     RMS |[F,P]|

   @RHF iter SAD:  -422.79554553829456   -4.22796e+02   0.00000e+00
   @RHF iter   1:  -423.59016975151275   -7.94624e-01   3.00972e-03 DIIS
   @RHF iter   2:  -423.81041169711654   -2.20242e-01   1.28654e-03 DIIS
   @RHF iter   3:  -423.84689426102454   -3.64826e-02   2.93793e-04 DIIS
   @RHF iter   4:  -423.84987676100639   -2.98250e-03   1.25897e-04 DIIS
   @RHF iter   5:  -423.85028642152247   -4.09661e-04   2.08204e-05 DIIS
   @RHF iter   6:  -423.85030422800565   -1.78065e-05   6.61929e-06 DIIS
   @RHF iter   7:  -423.85030590015521   -1.67215e-06   2.01016e-06 DIIS
   @RHF iter   8:  -423.85030609825162   -1.98096e-07   7.26125e-07 DIIS
   @RHF iter   9:  -423.85030612138797   -2.31364e-08   2.16422e-07 DIIS
   @RHF iter  10:  -423.85030612371497   -2.32700e-09   6.60451e-08 DIIS
   @RHF iter  11:  -423.85030612402710   -3.12127e-10   2.73675e-08 DIIS
   @RHF iter  12:  -423.85030612408957   -6.24709e-11   1.37104e-08 DIIS
   @RHF iter  13:  -423.85030612411509   -2.55227e-11   6.18124e-09 DIIS
   @RHF iter  14:  -423.85030612411970   -4.60432e-12   1.93805e-09 DIIS
   @RHF iter  15:  -423.85030612411634    3.35376e-12   6.78655e-10 DIIS
   @RHF iter  16:  -423.85030612411833   -1.98952e-12   1.91373e-10 DIIS
   @RHF iter  17:  -423.85030612411811    2.27374e-13   6.89766e-11 DIIS
  Energy and wave function converged.

  ==> Post-Iterations <==

    Orbital Energies [Eh]
    ---------------------

    Doubly Occupied:

       1A    -20.585862     2A    -11.296362     3A    -11.238390
       4A    -11.233525     5A    -11.231811     6A    -11.227954
       7A    -11.226711     8A    -11.223232     9A    -11.222379
      10A    -11.219714    11A     -1.397284    12A     -1.154389
      13A     -1.041688    14A     -1.021645    15A     -1.017486
      16A     -0.923984    17A     -0.846336    18A     -0.839832
      19A     -0.799589    20A     -0.727835    21A     -0.673009
      22A     -0.641023    23A     -0.606030    24A     -0.602763
      25A     -0.596276    26A     -0.588847    27A     -0.585917
      28A     -0.573093    29A     -0.568814    30A     -0.522340
      31A     -0.508213    32A     -0.496850    33A     -0.491351
      34A     -0.486101    35A     -0.482200    36A     -0.467625
      37A     -0.339421    38A     -0.299746

    Virtual:

      39A      0.130803    40A      0.156654    41A      0.162087
      42A      0.183932    43A      0.201465    44A      0.212403
      45A      0.219477    46A      0.244627    47A      0.254446
      48A      0.260614    49A      0.265036    50A      0.272318
      51A      0.280383    52A      0.286017    53A      0.309519
      54A      0.320889    55A      0.374991    56A      0.381197
      57A      0.394941    58A      0.430584    59A      0.455446
      60A      0.485553    61A      0.500948    62A      0.511399
      63A      0.580414    64A      0.588279    65A      0.603518
      66A      0.612002    67A      0.641386    68A      0.649976
      69A      0.667228    70A      0.680423    71A      0.686763
      72A      0.691392    73A      0.708843    74A      0.717685
      75A      0.728128    76A      0.743053    77A      0.759580
      78A      0.766986    79A      0.786342    80A      0.789598
      81A      0.810231    82A      0.833620    83A      0.842473
      84A      0.850604    85A      0.875017    86A      0.883012
      87A      0.887164    88A      0.890648    89A      0.892448
      90A      0.895048    91A      0.904901    92A      0.921274
      93A      0.927000    94A      0.935306    95A      0.939821
      96A      0.943599    97A      0.955800    98A      0.965465
      99A      0.981889   100A      1.026494   101A      1.031973
     102A      1.061854   103A      1.115441   104A      1.125127
     105A      1.144591   106A      1.151057   107A      1.154380
     108A      1.174056   109A      1.206138   110A      1.225520
     111A      1.246097   112A      1.262323   113A      1.268780
     114A      1.300136   115A      1.314270   116A      1.320951
     117A      1.347230   118A      1.365099   119A      1.371602
     120A      1.388264   121A      1.458337   122A      1.463791
     123A      1.489807   124A      1.506308   125A      1.538860
     126A      1.566092   127A      1.575890   128A      1.611370
     129A      1.634123   130A      1.681457   131A      1.693221
     132A      1.693618   133A      1.708290   134A      1.736516
     135A      1.750491   136A      1.780397   137A      1.808538
     138A      1.814819   139A      1.861641   140A      1.867205
     141A      1.875955   142A      1.893329   143A      1.895208
     144A      1.906511   145A      1.913085   146A      1.916419
     147A      1.924663   148A      1.938908   149A      1.944812
     150A      1.947803   151A      1.956275   152A      1.964227
     153A      1.980939   154A      1.990402   155A      1.997545
     156A      2.011412   157A      2.046287   158A      2.058846
     159A      2.068845   160A      2.070011   161A      2.072967
     162A      2.092690   163A      2.111051   164A      2.153607
     165A      2.160853   166A      2.166787   167A      2.223380
     168A      2.237180   169A      2.268312   170A      2.284732
     171A      2.305082   172A      2.310749   173A      2.324328
     174A      2.337590   175A      2.372897   176A      2.431572
     177A      2.439385   178A      2.461548   179A      2.465580
     180A      2.482145   181A      2.497493   182A      2.536021
     183A      2.546167   184A      2.549800   185A      2.572405
     186A      2.616426   187A      2.646803   188A      2.753527
     189A      2.760962   190A      2.775727   191A      2.788883
     192A      2.812706   193A      2.813325   194A      2.849834
     195A      2.853451   196A      2.877486   197A      2.910548
     198A      2.953807   199A      2.958872   200A      2.979411
     201A      3.005394   202A      3.097320   203A      3.142806
     204A      3.259041   205A      3.296662   206A      3.333936
     207A      3.584701   208A      3.687007   209A      3.969708
     210A      4.169401

    Final Occupation by Irrep:
              A
    DOCC [    38 ]

  @RHF Final Energy:  -423.85030612411811

   => Energetics <=

    Nuclear Repulsion Energy =            493.5530018324203638
    One-Electron Energy =               -1552.7953650578338056
    Two-Electron Energy =                 635.3920571012954497
    Total Energy =                       -423.8503061241181058

Computation Completed

Properties will be evaluated at   0.000000,   0.000000,   0.000000 [a0]

Properties computed using the SCF density matrix

  Nuclear Dipole Moment: [e a0]
     X:    -2.1723      Y:     6.2956      Z:   -11.9025

  Electronic Dipole Moment: [e a0]
     X:     1.8973      Y:    -5.7967      Z:    11.7388

  Dipole Moment: [e a0]
     X:    -0.2750      Y:     0.4988      Z:    -0.1638     Total:     0.5927

  Dipole Moment: [D]
     X:    -0.6990      Y:     1.2679      Z:    -0.4163     Total:     1.5065

*** tstop() called on ds3 at Tue Apr 28 03:09:41 2020
Module time:
	user time   =      84.59 seconds =       1.41 minutes
	system time =      38.27 seconds =       0.64 minutes
	total time  =        118 seconds =       1.97 minutes
Total time:
	user time   =      84.59 seconds =       1.41 minutes
	system time =      38.27 seconds =       0.64 minutes
	total time  =        118 seconds =       1.97 minutes
                                     G D M A

                                 by Anthony Stone

                           version 2.2.06, 22 June 2011

               Distributed Multipoles from Gaussian wavefunctions

Starting at 3:9:41 on 28 Apr 2020

Using SCF density matrix from file ./SSI/SSI-062TYR-093ILE-1-dimer.test.17836.fchk

                         Distributed Multipole Analysis

Standard DMA

Positions and radii in angstrom
Multipole moments in atomic units, ea_0^k for rank k

C          x =  1.652112  y =  2.385973  z =  1.969044 angstrom
           Maximum rank =  0   Radius =  0.650 angstrom
                   Q00  =  -0.196618

C          x = -0.730888  y =  0.089973  z =  0.243044 angstrom
           Maximum rank =  0   Radius =  0.650 angstrom
                   Q00  =  -0.194257

C          x = -0.072888  y =  1.198973  z =  0.695044 angstrom
           Maximum rank =  0   Radius =  0.650 angstrom
                   Q00  =   0.060265

C          x = -0.295888  y = -1.150027  z =  0.622044 angstrom
           Maximum rank =  0   Radius =  0.650 angstrom
                   Q00  =   0.320609

C          x =  1.031112  y =  1.110973  z =  1.533044 angstrom
           Maximum rank =  0   Radius =  0.650 angstrom
                   Q00  =  -0.106415

C          x =  0.836112  y = -1.270027  z =  1.466044 angstrom
           Maximum rank =  0   Radius =  0.650 angstrom
                   Q00  =  -0.109925

C          x =  1.500112  y = -0.122027  z =  1.944044 angstrom
           Maximum rank =  0   Radius =  0.650 angstrom
                   Q00  =  -0.061182

O          x = -0.912888  y = -2.279027  z =  0.165044 angstrom
           Maximum rank =  0   Radius =  0.650 angstrom
                   Q00  =  -0.681991

H          x = -1.597888  y =  0.189973  z = -0.388956 angstrom
           Maximum rank =  0   Radius =  0.325 angstrom
                   Q00  =   0.071252

H          x = -0.431888  y =  2.170973  z =  0.386044 angstrom
           Maximum rank =  0   Radius =  0.325 angstrom
                   Q00  =   0.061456

H          x = -1.727888  y = -2.019027  z = -0.311956 angstrom
           Maximum rank =  0   Radius =  0.325 angstrom
                   Q00  =   0.408745

H          x =  1.178112  y = -2.253027  z =  1.751044 angstrom
           Maximum rank =  0   Radius =  0.325 angstrom
                   Q00  =   0.082654

H          x =  1.435112  y =  3.149973  z =  1.222044 angstrom
           Maximum rank =  0   Radius =  0.325 angstrom
                   Q00  =   0.089909

H          x =  2.733112  y =  2.276973  z =  1.981044 angstrom
           Maximum rank =  0   Radius =  0.325 angstrom
                   Q00  =   0.094739

H          x =  2.359112  y = -0.205027  z =  2.595044 angstrom
           Maximum rank =  0   Radius =  0.325 angstrom
                   Q00  =   0.067674

H          x =  1.281613  y =  2.735733  z =  2.943924 angstrom
           Maximum rank =  0   Radius =  0.325 angstrom
                   Q00  =   0.097783

C          x = -0.832888  y =  0.206973  z = -3.182956 angstrom
           Maximum rank =  0   Radius =  0.650 angstrom
                   Q00  =  -0.220417

C          x = -1.675888  y =  0.021973  z = -4.442956 angstrom
           Maximum rank =  0   Radius =  0.650 angstrom
                   Q00  =  -0.241143

H          x = -0.912888  y = -0.676027  z = -2.547956 angstrom
           Maximum rank =  0   Radius =  0.325 angstrom
                   Q00  =   0.061446

H          x =  0.213112  y =  0.350973  z = -3.447956 angstrom
           Maximum rank =  0   Radius =  0.325 angstrom
                   Q00  =   0.086636

H          x = -1.149888  y =  1.087973  z = -2.625956 angstrom
           Maximum rank =  0   Radius =  0.325 angstrom
                   Q00  =   0.073407

H          x = -1.577888  y =  0.907973  z = -5.071956 angstrom
           Maximum rank =  0   Radius =  0.325 angstrom
                   Q00  =   0.081800

H          x = -2.728342  y = -0.123962  z = -4.158276 angstrom
           Maximum rank =  0   Radius =  0.325 angstrom
                   Q00  =   0.070986

H          x = -1.386004  y = -0.866288  z = -5.023436 angstrom
           Maximum rank =  0   Radius =  0.325 angstrom
                   Q00  =   0.082587

Total multipoles referred to origin at
           x =   0.000000,  y =    0.000000,  z =    0.000000 angstrom
                   Q00  =  -0.000000

Finished at 3:9:41 on 28 Apr 2020

  DMA results are available in the Python driver through the
	  variable('DMA DISTRIBUTED MULTIPOLES')
  and
	  variable('DMA TOTAL MULTIPOLES')
  commands.

    Psi4 stopped on: Tuesday, 28 April 2020 03:09AM
    Psi4 wall time for execution: 0:01:58.56

*** Psi4 exiting successfully. Buy a developer a beer!
