                               Psi4 1.3.2 release

  ==> Input File <==

--------------------------------------------------------------------------
import numpy as np
set {scf_type pk
basis cc-pvdz
d_convergence 10
gdma_switch   0
gdma_limit    0
gdma_origin   [ 0.0,  0.0,  0.0 ]
}
molecule test {
    units Angstrom
    0 1
    --
    0 1
    C                2.041661210126020     0.476799243015953    -1.050040213031444
    C                0.578661210126019     0.193799243015953    -1.178040213031444
    C               -0.347338789873981     1.221799243015953    -1.083040213031444
    C                0.119661210126019    -1.106200756984047    -1.329040213031444
    C               -1.715338789873980     0.954799243015953    -1.157040213031444
    C               -1.250338789873980    -1.369200756984047    -1.400040213031444
    C               -2.162338789873981    -0.342200756984047    -1.324040213031444
    H                2.603661210126019    -0.457200756984047    -1.104040213031444
    H                2.222661210126020     0.898799243015953    -0.064040213031444
    H               -0.016338789873981     2.240799243015952    -0.936040213031444
    H                0.821661210126019    -1.927200756984047    -1.386040213031444
    H               -2.421338789873980     1.768799243015953    -1.081040213031444
    H               -1.587338789873980    -2.387200756984047    -1.517040213031444
    H               -3.216338789873981    -0.554200756984047    -1.400040213031444
    H                2.434171210126020     1.172738243015953    -1.806090213031444
    C                0.153661210126019    -0.184200756984047     2.512959786968556
    C                0.656661210126019     1.253799243015953     2.602959786968556
    O                1.239661210126019    -1.009200756984047     2.193959786968556
    H               -0.289338789873981    -0.485200756984047     3.463959786968556
    H               -0.598338789873981    -0.263200756984047     1.724959786968556
    H                1.165661210126020     1.460799243015953     1.664959786968556
    H                0.911661210126020    -1.916200756984047     2.101959786968556
    H                1.382641210126019     1.394920243015953     3.417229786968556
    H               -0.166178789873981     1.982393243015953     2.648629786968556

}
e, wfn = energy('scf', return_wfn=True)
gdma(wfn)
dmavals = variable('DMA DISTRIBUTED MULTIPOLES')
charges = np.array(dmavals)
print(charges)
np.save('SSI-017PHE-022SER-2-dimer.npy', np.array(charges))--------------------------------------------------------------------------

*** tstart() called on ds3
*** at Tue Apr 28 00:10:41 2020

   => Loading Basis Set <=

    Name: CC-PVDZ
    Role: ORBITAL
    Keyword: BASIS
    atoms 1-7, 16-17  entry C          line   138 file /theoryfs2/ds/metcalf/miniconda2/envs/tf2gpu/share/psi4/basis/cc-pvdz.gbs
    atoms 8-15, 19-24 entry H          line    22 file /theoryfs2/ds/metcalf/miniconda2/envs/tf2gpu/share/psi4/basis/cc-pvdz.gbs
    atoms 18          entry O          line   198 file /theoryfs2/ds/metcalf/miniconda2/envs/tf2gpu/share/psi4/basis/cc-pvdz.gbs

         ---------------------------------------------------------
                                   SCF
               by Justin Turney, Rob Parrish, Andy Simmonett
                          and Daniel G. A. Smith
                              RHF Reference
                        1 Threads,    500 MiB Core
         ---------------------------------------------------------

  ==> Geometry <==

    Molecular point group: c1
    Full point group: C1

    Geometry (in Angstrom), charge = 0, multiplicity = 1:

       Center              X                  Y                   Z               Mass
    ------------   -----------------  -----------------  -----------------  -----------------
         C            2.041661210126     0.476799243016    -1.050040213031    12.000000000000
         C            0.578661210126     0.193799243016    -1.178040213031    12.000000000000
         C           -0.347338789874     1.221799243016    -1.083040213031    12.000000000000
         C            0.119661210126    -1.106200756984    -1.329040213031    12.000000000000
         C           -1.715338789874     0.954799243016    -1.157040213031    12.000000000000
         C           -1.250338789874    -1.369200756984    -1.400040213031    12.000000000000
         C           -2.162338789874    -0.342200756984    -1.324040213031    12.000000000000
         H            2.603661210126    -0.457200756984    -1.104040213031     1.007825032230
         H            2.222661210126     0.898799243016    -0.064040213031     1.007825032230
         H           -0.016338789874     2.240799243016    -0.936040213031     1.007825032230
         H            0.821661210126    -1.927200756984    -1.386040213031     1.007825032230
         H           -2.421338789874     1.768799243016    -1.081040213031     1.007825032230
         H           -1.587338789874    -2.387200756984    -1.517040213031     1.007825032230
         H           -3.216338789874    -0.554200756984    -1.400040213031     1.007825032230
         H            2.434171210126     1.172738243016    -1.806090213031     1.007825032230
         C            0.153661210126    -0.184200756984     2.512959786969    12.000000000000
         C            0.656661210126     1.253799243016     2.602959786969    12.000000000000
         O            1.239661210126    -1.009200756984     2.193959786969    15.994914619570
         H           -0.289338789874    -0.485200756984     3.463959786969     1.007825032230
         H           -0.598338789874    -0.263200756984     1.724959786969     1.007825032230
         H            1.165661210126     1.460799243016     1.664959786969     1.007825032230
         H            0.911661210126    -1.916200756984     2.101959786969     1.007825032230
         H            1.382641210126     1.394920243016     3.417229786969     1.007825032230
         H           -0.166178789874     1.982393243016     2.648629786969     1.007825032230

  Running in c1 symmetry.

  Rotational constants: A =      0.05406  B =      0.02736  C =      0.02582 [cm^-1]
  Rotational constants: A =   1620.81365  B =    820.37483  C =    774.11976 [MHz]
  Nuclear repulsion =  514.757528995154644

  Charge       = 0
  Multiplicity = 1
  Electrons    = 76
  Nalpha       = 38
  Nbeta        = 38

  ==> Algorithm <==

  SCF Algorithm Type is PK.
  DIIS enabled.
  MOM disabled.
  Fractional occupation disabled.
  Guess Type is SAD.
  Energy threshold   = 1.00e-06
  Density threshold  = 1.00e-10
  Integral threshold = 0.00e+00

  ==> Primary Basis <==

  Basis Set: CC-PVDZ
    Blend: CC-PVDZ
    Number of shells: 102
    Number of basis function: 210
    Number of Cartesian functions: 220
    Spherical Harmonics?: true
    Max angular momentum: 2

  ==> Pre-Iterations <==

   -------------------------------------------------------
    Irrep   Nso     Nmo     Nalpha   Nbeta   Ndocc  Nsocc
   -------------------------------------------------------
     A        210     210       0       0       0       0
   -------------------------------------------------------
    Total     210     210      38      38      38       0
   -------------------------------------------------------

  ==> Integral Setup <==

  Using integral reordering PK algorithm.
  Sizing the integral batches needed.
  Building batch lookup table.
   Calculation information:
      Number of atoms:                  24
      Number of AO shells:             102
      Number of primitives:            290
      Number of atomic orbitals:       220
      Number of basis functions:       210

      Integral cutoff                 1.00e-12
      Number of threads:                 1

	Batch   1 pq = [       0,    9405] index = [             0,44231715] size =     44231715
	Batch   2 pq = [    9405,   13301] index = [      44231715,88464951] size =     44233236
	Batch   3 pq = [   13301,   16290] index = [      88464951,132690195] size =     44225244
	Batch   4 pq = [   16290,   18810] index = [     132690195,176917455] size =     44227260
	Batch   5 pq = [   18810,   21030] index = [     176917455,221140965] size =     44223510
	Batch   6 pq = [   21030,   22155] index = [     221140965,245433090] size =     24292125
  Task number: 23
  Buffer size: 11059200
  Buffer per thread: 2
  We computed 14413015 shell quartets total.
  Whereas there are 13799631 unique shell quartets.
     4.44 percent of shell quartets recomputed by reordering.

  ==> DiskJK: Disk-Based J/K Matrices <==

    J tasked:                  Yes
    K tasked:                  Yes
    wK tasked:                  No
    Memory [MiB]:              375
    Schwarz Cutoff:          1E-12

    OpenMP threads:              1

  Minimum eigenvalue in the overlap matrix is 3.0032255874E-04.
  Using Symmetric Orthogonalization.

  SCF Guess: Superposition of Atomic Densities via on-the-fly atomic UHF.

  ==> Iterations <==

                        Total Energy        Delta E     RMS |[F,P]|

   @RHF iter SAD:  -422.72853969965917   -4.22729e+02   0.00000e+00
   @RHF iter   1:  -423.59969124501487   -8.71152e-01   2.97371e-03 DIIS
   @RHF iter   2:  -423.80924818018514   -2.09557e-01   1.36379e-03 DIIS
   @RHF iter   3:  -423.84708842910533   -3.78402e-02   2.86778e-04 DIIS
   @RHF iter   4:  -423.84991362768568   -2.82520e-03   8.90100e-05 DIIS
   @RHF iter   5:  -423.85010668344199   -1.93056e-04   1.95318e-05 DIIS
   @RHF iter   6:  -423.85011836038137   -1.16769e-05   5.99728e-06 DIIS
   @RHF iter   7:  -423.85011955524448   -1.19486e-06   1.91473e-06 DIIS
   @RHF iter   8:  -423.85011967767758   -1.22433e-07   4.81950e-07 DIIS
   @RHF iter   9:  -423.85011969066653   -1.29889e-08   1.88908e-07 DIIS
   @RHF iter  10:  -423.85011969325592   -2.58939e-09   6.75727e-08 DIIS
   @RHF iter  11:  -423.85011969392173   -6.65807e-10   2.77084e-08 DIIS
   @RHF iter  12:  -423.85011969404417   -1.22441e-10   1.13426e-08 DIIS
   @RHF iter  13:  -423.85011969406042   -1.62572e-11   4.10470e-09 DIIS
   @RHF iter  14:  -423.85011969406332   -2.89901e-12   1.32256e-09 DIIS
   @RHF iter  15:  -423.85011969406048    2.84217e-12   4.50358e-10 DIIS
   @RHF iter  16:  -423.85011969405826    2.21689e-12   1.41233e-10 DIIS
   @RHF iter  17:  -423.85011969405883   -5.68434e-13   7.40979e-11 DIIS
  Energy and wave function converged.

  ==> Post-Iterations <==

    Orbital Energies [Eh]
    ---------------------

    Doubly Occupied:

       1A    -20.543755     2A    -11.265745     3A    -11.237397
       4A    -11.235269     5A    -11.234092     6A    -11.229386
       7A    -11.229194     8A    -11.228908     9A    -11.221657
      10A    -11.214244    11A     -1.352322    12A     -1.156347
      13A     -1.047518    14A     -1.011182    15A     -0.999684
      16A     -0.930190    17A     -0.827498    18A     -0.825892
      19A     -0.794994    20A     -0.692903    21A     -0.688645
      22A     -0.640189    23A     -0.632648    24A     -0.629172
      25A     -0.581297    26A     -0.572284    27A     -0.565326
      28A     -0.562197    29A     -0.531616    30A     -0.528011
      31A     -0.513638    32A     -0.488968    33A     -0.485143
      34A     -0.480284    35A     -0.470363    36A     -0.427138
      37A     -0.331731    38A     -0.324625

    Virtual:

      39A      0.134780    40A      0.143595    41A      0.175432
      42A      0.198864    43A      0.204002    44A      0.211741
      45A      0.235417    46A      0.243703    47A      0.255336
      48A      0.259499    49A      0.265326    50A      0.272100
      51A      0.277565    52A      0.296521    53A      0.302286
      54A      0.362197    55A      0.372504    56A      0.382935
      57A      0.400887    58A      0.436210    59A      0.453169
      60A      0.468916    61A      0.475576    62A      0.506996
      63A      0.570173    64A      0.580867    65A      0.604445
      66A      0.622710    67A      0.644042    68A      0.664141
      69A      0.683455    70A      0.687922    71A      0.704010
      72A      0.727579    73A      0.738658    74A      0.741267
      75A      0.750432    76A      0.758885    77A      0.762868
      78A      0.767618    79A      0.773940    80A      0.794453
      81A      0.801774    82A      0.835462    83A      0.850685
      84A      0.854371    85A      0.866073    86A      0.870675
      87A      0.886445    88A      0.892485    89A      0.900143
      90A      0.903784    91A      0.909408    92A      0.919580
      93A      0.931107    94A      0.937358    95A      0.947544
      96A      0.969731    97A      0.989619    98A      1.009734
      99A      1.024496   100A      1.038849   101A      1.104936
     102A      1.124847   103A      1.139117   104A      1.142943
     105A      1.153774   106A      1.156456   107A      1.165697
     108A      1.190272   109A      1.220886   110A      1.239013
     111A      1.250606   112A      1.259576   113A      1.264204
     114A      1.283438   115A      1.303029   116A      1.308006
     117A      1.324058   118A      1.332780   119A      1.349350
     120A      1.426999   121A      1.446556   122A      1.473203
     123A      1.505369   124A      1.526310   125A      1.533121
     126A      1.578434   127A      1.605287   128A      1.613921
     129A      1.615913   130A      1.687292   131A      1.690942
     132A      1.700433   133A      1.741396   134A      1.759271
     135A      1.764467   136A      1.783002   137A      1.819221
     138A      1.839353   139A      1.860548   140A      1.880305
     141A      1.886448   142A      1.896223   143A      1.902515
     144A      1.919815   145A      1.924280   146A      1.925664
     147A      1.931451   148A      1.941925   149A      1.953562
     150A      1.959184   151A      1.969990   152A      1.975316
     153A      1.980483   154A      2.005283   155A      2.013949
     156A      2.023008   157A      2.031440   158A      2.058389
     159A      2.060378   160A      2.091093   161A      2.116959
     162A      2.132065   163A      2.141738   164A      2.160762
     165A      2.171123   166A      2.175901   167A      2.197941
     168A      2.217921   169A      2.255416   170A      2.267691
     171A      2.268723   172A      2.287063   173A      2.297024
     174A      2.304726   175A      2.324357   176A      2.335461
     177A      2.374957   178A      2.450010   179A      2.478657
     180A      2.494278   181A      2.516582   182A      2.529147
     183A      2.545244   184A      2.574311   185A      2.607322
     186A      2.652348   187A      2.739418   188A      2.757358
     189A      2.762715   190A      2.783748   191A      2.800248
     192A      2.805856   193A      2.812433   194A      2.837831
     195A      2.867186   196A      2.877034   197A      2.913791
     198A      2.943393   199A      3.005165   200A      3.022064
     201A      3.050903   202A      3.174821   203A      3.217978
     204A      3.310499   205A      3.338950   206A      3.435044
     207A      3.481890   208A      3.629485   209A      3.991263
     210A      4.118974

    Final Occupation by Irrep:
              A
    DOCC [    38 ]

  @RHF Final Energy:  -423.85011969405883

   => Energetics <=

    Nuclear Repulsion Energy =            514.7575289951546438
    One-Electron Energy =               -1595.7523962173017935
    Two-Electron Energy =                 657.1447475280883737
    Total Energy =                       -423.8501196940587761

Computation Completed

Properties will be evaluated at   0.000000,   0.000000,   0.000000 [a0]

Properties computed using the SCF density matrix

  Nuclear Dipole Moment: [e a0]
     X:     3.0498      Y:     2.7409      Z:     5.3797

  Electronic Dipole Moment: [e a0]
     X:    -3.5107      Y:    -2.9417      Z:    -5.3169

  Dipole Moment: [e a0]
     X:    -0.4608      Y:    -0.2008      Z:     0.0628     Total:     0.5066

  Dipole Moment: [D]
     X:    -1.1713      Y:    -0.5105      Z:     0.1597     Total:     1.2877

*** tstop() called on ds3 at Tue Apr 28 00:14:07 2020
Module time:
	user time   =     107.15 seconds =       1.79 minutes
	system time =      34.99 seconds =       0.58 minutes
	total time  =        206 seconds =       3.43 minutes
Total time:
	user time   =     107.15 seconds =       1.79 minutes
	system time =      34.99 seconds =       0.58 minutes
	total time  =        206 seconds =       3.43 minutes
                                     G D M A

                                 by Anthony Stone

                           version 2.2.06, 22 June 2011

               Distributed Multipoles from Gaussian wavefunctions

Starting at 0:14:7 on 28 Apr 2020

Using SCF density matrix from file ./SSI/SSI-017PHE-022SER-2-dimer.test.4908.fchk

                         Distributed Multipole Analysis

Standard DMA

Positions and radii in angstrom
Multipole moments in atomic units, ea_0^k for rank k

C          x =  2.041661  y =  0.476799  z = -1.050040 angstrom
           Maximum rank =  0   Radius =  0.650 angstrom
                   Q00  =  -0.201162

C          x =  0.578661  y =  0.193799  z = -1.178040 angstrom
           Maximum rank =  0   Radius =  0.650 angstrom
                   Q00  =  -0.089805

C          x = -0.347339  y =  1.221799  z = -1.083040 angstrom
           Maximum rank =  0   Radius =  0.650 angstrom
                   Q00  =  -0.098694

C          x =  0.119661  y = -1.106201  z = -1.329040 angstrom
           Maximum rank =  0   Radius =  0.650 angstrom
                   Q00  =  -0.033373

C          x = -1.715339  y =  0.954799  z = -1.157040 angstrom
           Maximum rank =  0   Radius =  0.650 angstrom
                   Q00  =  -0.043175

C          x = -1.250339  y = -1.369201  z = -1.400040 angstrom
           Maximum rank =  0   Radius =  0.650 angstrom
                   Q00  =  -0.047270

C          x = -2.162339  y = -0.342201  z = -1.324040 angstrom
           Maximum rank =  0   Radius =  0.650 angstrom
                   Q00  =  -0.085569

H          x =  2.603661  y = -0.457201  z = -1.104040 angstrom
           Maximum rank =  0   Radius =  0.325 angstrom
                   Q00  =   0.101063

H          x =  2.222661  y =  0.898799  z = -0.064040 angstrom
           Maximum rank =  0   Radius =  0.325 angstrom
                   Q00  =   0.110016

H          x = -0.016339  y =  2.240799  z = -0.936040 angstrom
           Maximum rank =  0   Radius =  0.325 angstrom
                   Q00  =   0.054965

H          x =  0.821661  y = -1.927201  z = -1.386040 angstrom
           Maximum rank =  0   Radius =  0.325 angstrom
                   Q00  =   0.058661

H          x = -2.421339  y =  1.768799  z = -1.081040 angstrom
           Maximum rank =  0   Radius =  0.325 angstrom
                   Q00  =   0.062932

H          x = -1.587339  y = -2.387201  z = -1.517040 angstrom
           Maximum rank =  0   Radius =  0.325 angstrom
                   Q00  =   0.060782

H          x = -3.216339  y = -0.554201  z = -1.400040 angstrom
           Maximum rank =  0   Radius =  0.325 angstrom
                   Q00  =   0.058123

H          x =  2.434171  y =  1.172738  z = -1.806090 angstrom
           Maximum rank =  0   Radius =  0.325 angstrom
                   Q00  =   0.095036

C          x =  0.153661  y = -0.184201  z =  2.512960 angstrom
           Maximum rank =  0   Radius =  0.650 angstrom
                   Q00  =   0.085785

C          x =  0.656661  y =  1.253799  z =  2.602960 angstrom
           Maximum rank =  0   Radius =  0.650 angstrom
                   Q00  =  -0.245727

O          x =  1.239661  y = -1.009201  z =  2.193960 angstrom
           Maximum rank =  0   Radius =  0.650 angstrom
                   Q00  =  -0.575624

H          x = -0.289339  y = -0.485201  z =  3.463960 angstrom
           Maximum rank =  0   Radius =  0.325 angstrom
                   Q00  =   0.033802

H          x = -0.598339  y = -0.263201  z =  1.724960 angstrom
           Maximum rank =  0   Radius =  0.325 angstrom
                   Q00  =   0.052146

H          x =  1.165661  y =  1.460799  z =  1.664960 angstrom
           Maximum rank =  0   Radius =  0.325 angstrom
                   Q00  =   0.087053

H          x =  0.911661  y = -1.916201  z =  2.101960 angstrom
           Maximum rank =  0   Radius =  0.325 angstrom
                   Q00  =   0.388330

H          x =  1.382641  y =  1.394920  z =  3.417230 angstrom
           Maximum rank =  0   Radius =  0.325 angstrom
                   Q00  =   0.087572

H          x = -0.166179  y =  1.982393  z =  2.648630 angstrom
           Maximum rank =  0   Radius =  0.325 angstrom
                   Q00  =   0.084133

Total multipoles referred to origin at
           x =   0.000000,  y =    0.000000,  z =    0.000000 angstrom
                   Q00  =  -0.000000

Finished at 0:14:7 on 28 Apr 2020

  DMA results are available in the Python driver through the
	  variable('DMA DISTRIBUTED MULTIPOLES')
  and
	  variable('DMA TOTAL MULTIPOLES')
  commands.

    Psi4 stopped on: Tuesday, 28 April 2020 12:14AM
    Psi4 wall time for execution: 0:03:26.91

*** Psi4 exiting successfully. Buy a developer a beer!
