                               Psi4 1.3.2 release

  ==> Input File <==

--------------------------------------------------------------------------
import numpy as np
set {scf_type pk
basis cc-pvdz
d_convergence 10
gdma_switch   0
gdma_limit    0
gdma_origin   [ 0.0,  0.0,  0.0 ]
}
molecule test {
    units Angstrom
    0 1
    --
    0 1
    C                1.819281620961408     0.123779277213421    -1.327704772780205
    C                1.545281620961408     1.469779277213421    -2.013704772780205
    C                2.648281620961408     0.221779277213421    -0.059704772780205
    H                0.945281620961408    -0.490220722786579    -1.188704772780205
    H                2.434281620961408    -0.452220722786579    -2.020704772780205
    H                2.482281620961408     1.813779277213421    -2.456704772780205
    H                2.040281620961407     0.591779277213421     0.765295227219795
    H                3.032281620961408    -0.764220722786579     0.203295227219795
    H                3.476281620961407     0.901779277213421    -0.233704772780205
    H                0.800151620961408     1.344159277213421    -2.813079772780205
    H                1.217071620961408     2.233699277213420    -1.293496772780205
    C               -1.311718379038592    -0.369220722786579     0.568295227219795
    C               -2.528718379038593    -1.127220722786579     0.024295227219795
    C               -1.719718379038592     0.901779277213421     1.270295227219795
    C               -0.522718379038592    -1.244220722786579     1.532295227219795
    H               -0.711718379038592    -0.072220722786579    -0.265704772780205
    H               -3.256718379038592    -1.256220722786579     0.824295227219795
    H               -2.184718379038593    -2.127220722786579    -0.227704772780205
    H               -2.534718379038592     0.713779277213421     1.970295227219795
    H               -0.870718379038592     1.307779277213421     1.821295227219795
    H               -2.026718379038592     1.651779277213421     0.550295227219795
    H               -0.154718379038592    -2.129220722786580     1.018295227219795
    H                0.332281620961408    -0.693220722786579     1.923295227219795
    H               -1.149718379038593    -1.558220722786579     2.363295227219795
    H               -3.036628379038592    -0.735200722786579    -0.869203772780205

}
e, wfn = energy('scf', return_wfn=True)
gdma(wfn)
dmavals = variable('DMA DISTRIBUTED MULTIPOLES')
charges = np.array(dmavals)
print(charges)
np.save('SSI-101ILE-110LEU-1-dimer.npy', np.array(charges))--------------------------------------------------------------------------

*** tstart() called on ds3
*** at Tue Apr 28 20:07:02 2020

   => Loading Basis Set <=

    Name: CC-PVDZ
    Role: ORBITAL
    Keyword: BASIS
    atoms 1-3, 12-15  entry C          line   138 file /theoryfs2/ds/metcalf/miniconda2/envs/tf2gpu/share/psi4/basis/cc-pvdz.gbs
    atoms 4-11, 16-25 entry H          line    22 file /theoryfs2/ds/metcalf/miniconda2/envs/tf2gpu/share/psi4/basis/cc-pvdz.gbs

         ---------------------------------------------------------
                                   SCF
               by Justin Turney, Rob Parrish, Andy Simmonett
                          and Daniel G. A. Smith
                              RHF Reference
                        1 Threads,    500 MiB Core
         ---------------------------------------------------------

  ==> Geometry <==

    Molecular point group: c1
    Full point group: C1

    Geometry (in Angstrom), charge = 0, multiplicity = 1:

       Center              X                  Y                   Z               Mass
    ------------   -----------------  -----------------  -----------------  -----------------
         C            1.819281620961     0.123779277213    -1.327704772780    12.000000000000
         C            1.545281620961     1.469779277213    -2.013704772780    12.000000000000
         C            2.648281620961     0.221779277213    -0.059704772780    12.000000000000
         H            0.945281620961    -0.490220722787    -1.188704772780     1.007825032230
         H            2.434281620961    -0.452220722787    -2.020704772780     1.007825032230
         H            2.482281620961     1.813779277213    -2.456704772780     1.007825032230
         H            2.040281620961     0.591779277213     0.765295227220     1.007825032230
         H            3.032281620961    -0.764220722787     0.203295227220     1.007825032230
         H            3.476281620961     0.901779277213    -0.233704772780     1.007825032230
         H            0.800151620961     1.344159277213    -2.813079772780     1.007825032230
         H            1.217071620961     2.233699277213    -1.293496772780     1.007825032230
         C           -1.311718379039    -0.369220722787     0.568295227220    12.000000000000
         C           -2.528718379039    -1.127220722787     0.024295227220    12.000000000000
         C           -1.719718379039     0.901779277213     1.270295227220    12.000000000000
         C           -0.522718379039    -1.244220722787     1.532295227220    12.000000000000
         H           -0.711718379039    -0.072220722787    -0.265704772780     1.007825032230
         H           -3.256718379039    -1.256220722787     0.824295227220     1.007825032230
         H           -2.184718379039    -2.127220722787    -0.227704772780     1.007825032230
         H           -2.534718379039     0.713779277213     1.970295227220     1.007825032230
         H           -0.870718379039     1.307779277213     1.821295227220     1.007825032230
         H           -2.026718379039     1.651779277213     0.550295227220     1.007825032230
         H           -0.154718379039    -2.129220722787     1.018295227220     1.007825032230
         H            0.332281620961    -0.693220722787     1.923295227220     1.007825032230
         H           -1.149718379039    -1.558220722787     2.363295227220     1.007825032230
         H           -3.036628379039    -0.735200722787    -0.869203772780     1.007825032230

  Running in c1 symmetry.

  Rotational constants: A =      0.09982  B =      0.03183  C =      0.02961 [cm^-1]
  Rotational constants: A =   2992.48315  B =    954.18238  C =    887.60320 [MHz]
  Nuclear repulsion =  322.463319807681330

  Charge       = 0
  Multiplicity = 1
  Electrons    = 60
  Nalpha       = 30
  Nbeta        = 30

  ==> Algorithm <==

  SCF Algorithm Type is PK.
  DIIS enabled.
  MOM disabled.
  Fractional occupation disabled.
  Guess Type is SAD.
  Energy threshold   = 1.00e-06
  Density threshold  = 1.00e-10
  Integral threshold = 0.00e+00

  ==> Primary Basis <==

  Basis Set: CC-PVDZ
    Blend: CC-PVDZ
    Number of shells: 96
    Number of basis function: 188
    Number of Cartesian functions: 195
    Spherical Harmonics?: true
    Max angular momentum: 2

  ==> Pre-Iterations <==

   -------------------------------------------------------
    Irrep   Nso     Nmo     Nalpha   Nbeta   Ndocc  Nsocc
   -------------------------------------------------------
     A        188     188       0       0       0       0
   -------------------------------------------------------
    Total     188     188      30      30      30       0
   -------------------------------------------------------

  ==> Integral Setup <==

  Using integral reordering PK algorithm.
  Sizing the integral batches needed.
  Building batch lookup table.
   Calculation information:
      Number of atoms:                  25
      Number of AO shells:              96
      Number of primitives:            244
      Number of atomic orbitals:       195
      Number of basis functions:       188

      Integral cutoff                 1.00e-12
      Number of threads:                 1

	Batch   1 pq = [       0,    9405] index = [             0,44231715] size =     44231715
	Batch   2 pq = [    9405,   13301] index = [      44231715,88464951] size =     44233236
	Batch   3 pq = [   13301,   16290] index = [      88464951,132690195] size =     44225244
	Batch   4 pq = [   16290,   17766] index = [     132690195,157824261] size =     25134066
  Task number: 15
  Buffer size: 11059200
  Buffer per thread: 2
  We computed 10553510 shell quartets total.
  Whereas there are 10841496 unique shell quartets.

  ==> DiskJK: Disk-Based J/K Matrices <==

    J tasked:                  Yes
    K tasked:                  Yes
    wK tasked:                  No
    Memory [MiB]:              375
    Schwarz Cutoff:          1E-12

    OpenMP threads:              1

  Minimum eigenvalue in the overlap matrix is 4.2958642786E-03.
  Using Symmetric Orthogonalization.

  SCF Guess: Superposition of Atomic Densities via on-the-fly atomic UHF.

  ==> Iterations <==

                        Total Energy        Delta E     RMS |[F,P]|

   @RHF iter SAD:  -274.55888314234244   -2.74559e+02   0.00000e+00
   @RHF iter   1:  -275.30621722907676   -7.47334e-01   3.30266e-03 DIIS
   @RHF iter   2:  -275.52498805351530   -2.18771e-01   1.44811e-03 DIIS
   @RHF iter   3:  -275.56465619449551   -3.96681e-02   2.97406e-04 DIIS
   @RHF iter   4:  -275.56769827055439   -3.04208e-03   6.39743e-05 DIIS
   @RHF iter   5:  -275.56779423553695   -9.59650e-05   1.41542e-05 DIIS
   @RHF iter   6:  -275.56780021136785   -5.97583e-06   2.42935e-06 DIIS
   @RHF iter   7:  -275.56780040117667   -1.89809e-07   6.34934e-07 DIIS
   @RHF iter   8:  -275.56780041507125   -1.38946e-08   1.71161e-07 DIIS
   @RHF iter   9:  -275.56780041606186   -9.90610e-10   4.36044e-08 DIIS
   @RHF iter  10:  -275.56780041615087   -8.90168e-11   9.29433e-09 DIIS
   @RHF iter  11:  -275.56780041615542   -4.54747e-12   2.30042e-09 DIIS
   @RHF iter  12:  -275.56780041615394    1.47793e-12   5.84535e-10 DIIS
   @RHF iter  13:  -275.56780041615480   -8.52651e-13   1.31001e-10 DIIS
   @RHF iter  14:  -275.56780041615383    9.66338e-13   3.57340e-11 DIIS
  Energy and wave function converged.

  ==> Post-Iterations <==

    Orbital Energies [Eh]
    ---------------------

    Doubly Occupied:

       1A    -11.220117     2A    -11.218132     3A    -11.216685
       4A    -11.214762     5A    -11.213237     6A    -11.213018
       7A    -11.208931     8A     -1.086659     9A     -1.055205
      10A     -0.928637    11A     -0.927874    12A     -0.924980
      13A     -0.800543    14A     -0.768993    15A     -0.641684
      16A     -0.618819    17A     -0.598071    18A     -0.595167
      19A     -0.583042    20A     -0.551817    21A     -0.540012
      22A     -0.532393    23A     -0.530827    24A     -0.503923
      25A     -0.483527    26A     -0.473442    27A     -0.463722
      28A     -0.462913    29A     -0.455299    30A     -0.447906

    Virtual:

      31A      0.163757    32A      0.194936    33A      0.206443
      34A      0.208736    35A      0.229391    36A      0.244237
      37A      0.253059    38A      0.254100    39A      0.257010
      40A      0.266979    41A      0.281608    42A      0.282938
      43A      0.293678    44A      0.307686    45A      0.316535
      46A      0.323328    47A      0.343929    48A      0.359506
      49A      0.371680    50A      0.386738    51A      0.413054
      52A      0.422299    53A      0.436552    54A      0.547618
      55A      0.569537    56A      0.592610    57A      0.596355
      58A      0.613864    59A      0.618714    60A      0.639842
      61A      0.642086    62A      0.659131    63A      0.736424
      64A      0.744180    65A      0.779124    66A      0.784768
      67A      0.801393    68A      0.818065    69A      0.833876
      70A      0.850390    71A      0.862450    72A      0.868451
      73A      0.877260    74A      0.878765    75A      0.892858
      76A      0.898020    77A      0.906689    78A      0.907397
      79A      0.912837    80A      0.918114    81A      0.919859
      82A      0.931494    83A      0.939172    84A      0.945154
      85A      0.947893    86A      0.965373    87A      0.970108
      88A      0.982500    89A      1.012329    90A      1.016368
      91A      1.024676    92A      1.071026    93A      1.121385
      94A      1.124276    95A      1.133606    96A      1.145764
      97A      1.210979    98A      1.235811    99A      1.361580
     100A      1.377897   101A      1.401973   102A      1.424698
     103A      1.467296   104A      1.501066   105A      1.527826
     106A      1.543866   107A      1.563642   108A      1.634594
     109A      1.647279   110A      1.666777   111A      1.673697
     112A      1.683178   113A      1.692196   114A      1.705131
     115A      1.708062   116A      1.735162   117A      1.737917
     118A      1.751920   119A      1.830080   120A      1.842366
     121A      1.854849   122A      1.860858   123A      1.864719
     124A      1.890106   125A      1.911277   126A      1.933391
     127A      1.940896   128A      1.946284   129A      1.948654
     130A      1.969141   131A      1.972249   132A      1.980245
     133A      1.984914   134A      1.991427   135A      1.992428
     136A      2.005310   137A      2.014658   138A      2.029426
     139A      2.040117   140A      2.056660   141A      2.068398
     142A      2.078103   143A      2.097490   144A      2.108711
     145A      2.145211   146A      2.155265   147A      2.161297
     148A      2.196629   149A      2.238962   150A      2.274085
     151A      2.293327   152A      2.301011   153A      2.316273
     154A      2.321831   155A      2.340826   156A      2.347964
     157A      2.351394   158A      2.365433   159A      2.406921
     160A      2.468504   161A      2.490715   162A      2.542036
     163A      2.574535   164A      2.581341   165A      2.601968
     166A      2.629979   167A      2.639003   168A      2.688954
     169A      2.696705   170A      2.748680   171A      2.755454
     172A      2.768670   173A      2.773531   174A      2.796170
     175A      2.804359   176A      2.810932   177A      2.817934
     178A      2.836098   179A      2.846966   180A      2.862506
     181A      2.872448   182A      2.928343   183A      2.962435
     184A      2.973547   185A      3.020425   186A      3.058407
     187A      3.105786   188A      3.182814

    Final Occupation by Irrep:
              A
    DOCC [    30 ]

  @RHF Final Energy:  -275.56780041615383

   => Energetics <=

    Nuclear Repulsion Energy =            322.4633198076813301
    One-Electron Energy =               -1009.1015650399688184
    Two-Electron Energy =                 411.0704448161337154
    Total Energy =                       -275.5678004161538297

Computation Completed

Properties will be evaluated at   0.000000,   0.000000,   0.000000 [a0]

Properties computed using the SCF density matrix

  Nuclear Dipole Moment: [e a0]
     X:     0.7817      Y:     0.2628      Z:     0.0662

  Electronic Dipole Moment: [e a0]
     X:    -0.7203      Y:    -0.2984      Z:    -0.1354

  Dipole Moment: [e a0]
     X:     0.0614      Y:    -0.0356      Z:    -0.0692     Total:     0.0991

  Dipole Moment: [D]
     X:     0.1561      Y:    -0.0904      Z:    -0.1758     Total:     0.2519

*** tstop() called on ds3 at Tue Apr 28 20:08:32 2020
Module time:
	user time   =      58.49 seconds =       0.97 minutes
	system time =      21.72 seconds =       0.36 minutes
	total time  =         90 seconds =       1.50 minutes
Total time:
	user time   =      58.49 seconds =       0.97 minutes
	system time =      21.72 seconds =       0.36 minutes
	total time  =         90 seconds =       1.50 minutes
                                     G D M A

                                 by Anthony Stone

                           version 2.2.06, 22 June 2011

               Distributed Multipoles from Gaussian wavefunctions

Starting at 20:8:32 on 28 Apr 2020

Using SCF density matrix from file ./SSI/SSI-101ILE-110LEU-1-dimer.test.2554.fchk

                         Distributed Multipole Analysis

Standard DMA

Positions and radii in angstrom
Multipole moments in atomic units, ea_0^k for rank k

C          x =  1.819282  y =  0.123779  z = -1.327705 angstrom
           Maximum rank =  0   Radius =  0.650 angstrom
                   Q00  =  -0.098507

C          x =  1.545282  y =  1.469779  z = -2.013705 angstrom
           Maximum rank =  0   Radius =  0.650 angstrom
                   Q00  =  -0.242533

C          x =  2.648282  y =  0.221779  z = -0.059705 angstrom
           Maximum rank =  0   Radius =  0.650 angstrom
                   Q00  =  -0.235641

H          x =  0.945282  y = -0.490221  z = -1.188705 angstrom
           Maximum rank =  0   Radius =  0.325 angstrom
                   Q00  =   0.054140

H          x =  2.434282  y = -0.452221  z = -2.020705 angstrom
           Maximum rank =  0   Radius =  0.325 angstrom
                   Q00  =   0.043133

H          x =  2.482282  y =  1.813779  z = -2.456705 angstrom
           Maximum rank =  0   Radius =  0.325 angstrom
                   Q00  =   0.085602

H          x =  2.040282  y =  0.591779  z =  0.765295 angstrom
           Maximum rank =  0   Radius =  0.325 angstrom
                   Q00  =   0.076103

H          x =  3.032282  y = -0.764221  z =  0.203295 angstrom
           Maximum rank =  0   Radius =  0.325 angstrom
                   Q00  =   0.082716

H          x =  3.476282  y =  0.901779  z = -0.233705 angstrom
           Maximum rank =  0   Radius =  0.325 angstrom
                   Q00  =   0.077071

H          x =  0.800152  y =  1.344159  z = -2.813080 angstrom
           Maximum rank =  0   Radius =  0.325 angstrom
                   Q00  =   0.085941

H          x =  1.217072  y =  2.233699  z = -1.293497 angstrom
           Maximum rank =  0   Radius =  0.325 angstrom
                   Q00  =   0.075251

C          x = -1.311718  y = -0.369221  z =  0.568295 angstrom
           Maximum rank =  0   Radius =  0.650 angstrom
                   Q00  =   0.015282

C          x = -2.528718  y = -1.127221  z =  0.024295 angstrom
           Maximum rank =  0   Radius =  0.650 angstrom
                   Q00  =  -0.262870

C          x = -1.719718  y =  0.901779  z =  1.270295 angstrom
           Maximum rank =  0   Radius =  0.650 angstrom
                   Q00  =  -0.234853

C          x = -0.522718  y = -1.244221  z =  1.532295 angstrom
           Maximum rank =  0   Radius =  0.650 angstrom
                   Q00  =  -0.243213

H          x = -0.711718  y = -0.072221  z = -0.265705 angstrom
           Maximum rank =  0   Radius =  0.325 angstrom
                   Q00  =   0.021165

H          x = -3.256718  y = -1.256221  z =  0.824295 angstrom
           Maximum rank =  0   Radius =  0.325 angstrom
                   Q00  =   0.075170

H          x = -2.184718  y = -2.127221  z = -0.227705 angstrom
           Maximum rank =  0   Radius =  0.325 angstrom
                   Q00  =   0.072481

H          x = -2.534718  y =  0.713779  z =  1.970295 angstrom
           Maximum rank =  0   Radius =  0.325 angstrom
                   Q00  =   0.073847

H          x = -0.870718  y =  1.307779  z =  1.821295 angstrom
           Maximum rank =  0   Radius =  0.325 angstrom
                   Q00  =   0.072344

H          x = -2.026718  y =  1.651779  z =  0.550295 angstrom
           Maximum rank =  0   Radius =  0.325 angstrom
                   Q00  =   0.079523

H          x = -0.154718  y = -2.129221  z =  1.018295 angstrom
           Maximum rank =  0   Radius =  0.325 angstrom
                   Q00  =   0.079062

H          x =  0.332282  y = -0.693221  z =  1.923295 angstrom
           Maximum rank =  0   Radius =  0.325 angstrom
                   Q00  =   0.082753

H          x = -1.149718  y = -1.558221  z =  2.363295 angstrom
           Maximum rank =  0   Radius =  0.325 angstrom
                   Q00  =   0.078851

H          x = -3.036628  y = -0.735201  z = -0.869204 angstrom
           Maximum rank =  0   Radius =  0.325 angstrom
                   Q00  =   0.087185

Total multipoles referred to origin at
           x =   0.000000,  y =    0.000000,  z =    0.000000 angstrom
                   Q00  =  -0.000000

Finished at 20:8:32 on 28 Apr 2020

  DMA results are available in the Python driver through the
	  variable('DMA DISTRIBUTED MULTIPOLES')
  and
	  variable('DMA TOTAL MULTIPOLES')
  commands.

    Psi4 stopped on: Tuesday, 28 April 2020 08:08PM
    Psi4 wall time for execution: 0:01:30.14

*** Psi4 exiting successfully. Buy a developer a beer!
