                               Psi4 1.3.2 release

  ==> Input File <==

--------------------------------------------------------------------------
import numpy as np
set {scf_type pk
basis cc-pvdz
d_convergence 10
gdma_switch   0
gdma_limit    0
gdma_origin   [ 0.0,  0.0,  0.0 ]
}
molecule test {
    units Angstrom
    -1 1
    --
    -1 1
    C               -0.163801588636055    -1.301216510608160    -1.981595857600123
    C                1.872198411363945    -1.458216510608160    -0.088595857600123
    S                1.551198411363945    -1.529216510608160    -1.866595857600123
    H               -0.379801588636055    -0.278216510608160    -2.286595857600123
    H               -0.555801588636055    -1.966216510608160    -2.751595857600123
    H               -0.648801588636055    -1.546216510608160    -1.035595857600123
    H                1.762198411363945    -2.471216510608160     0.301404142399877
    H                1.104198411363945    -0.897216510608160     0.415404142399877
    H                2.868401411363945    -1.089628510608160     0.197277242399877
    C               -0.427801588636055     1.169783489391840     0.325404142399877
    C               -0.491801588636055     2.646783489391840    -0.067595857600123
    C               -1.181801588636055     0.859783489391840     1.609404142399877
    O               -1.860801588636055     1.765783489391840     2.152404142399877
    O               -1.092801588636055    -0.296216510608160     2.086404142399877
    H               -0.854801588636055     0.593783489391840    -0.481595857600123
    H                0.628198411363945     0.969783489391840     0.471404142399877
    H               -0.308801588636055     3.276783489391839     0.804404142399877
    H               -1.501801588636055     2.850783489391840    -0.426595857600123
    H                0.232160411363945     2.922681489391840    -0.848466557600123

}
e, wfn = energy('scf', return_wfn=True)
gdma(wfn)
dmavals = variable('DMA DISTRIBUTED MULTIPOLES')
charges = np.array(dmavals)
print(charges)
np.save('SSI-001MET-047GLU-1-dimer.npy', np.array(charges))--------------------------------------------------------------------------

*** tstart() called on ds3
*** at Sun Apr 26 18:36:30 2020

   => Loading Basis Set <=

    Name: CC-PVDZ
    Role: ORBITAL
    Keyword: BASIS
    atoms 1-2, 10-12 entry C          line   138 file /theoryfs2/ds/metcalf/miniconda2/envs/tf2gpu/share/psi4/basis/cc-pvdz.gbs
    atoms 3          entry S          line   598 file /theoryfs2/ds/metcalf/miniconda2/envs/tf2gpu/share/psi4/basis/cc-pvdz.gbs
    atoms 4-9, 15-19 entry H          line    22 file /theoryfs2/ds/metcalf/miniconda2/envs/tf2gpu/share/psi4/basis/cc-pvdz.gbs
    atoms 13-14      entry O          line   198 file /theoryfs2/ds/metcalf/miniconda2/envs/tf2gpu/share/psi4/basis/cc-pvdz.gbs

         ---------------------------------------------------------
                                   SCF
               by Justin Turney, Rob Parrish, Andy Simmonett
                          and Daniel G. A. Smith
                              RHF Reference
                        1 Threads,    500 MiB Core
         ---------------------------------------------------------

  ==> Geometry <==

    Molecular point group: c1
    Full point group: C1

    Geometry (in Angstrom), charge = -1, multiplicity = 1:

       Center              X                  Y                   Z               Mass
    ------------   -----------------  -----------------  -----------------  -----------------
         C           -0.163801588636    -1.301216510608    -1.981595857600    12.000000000000
         C            1.872198411364    -1.458216510608    -0.088595857600    12.000000000000
         S            1.551198411364    -1.529216510608    -1.866595857600    31.972071174400
         H           -0.379801588636    -0.278216510608    -2.286595857600     1.007825032230
         H           -0.555801588636    -1.966216510608    -2.751595857600     1.007825032230
         H           -0.648801588636    -1.546216510608    -1.035595857600     1.007825032230
         H            1.762198411364    -2.471216510608     0.301404142400     1.007825032230
         H            1.104198411364    -0.897216510608     0.415404142400     1.007825032230
         H            2.868401411364    -1.089628510608     0.197277242400     1.007825032230
         C           -0.427801588636     1.169783489392     0.325404142400    12.000000000000
         C           -0.491801588636     2.646783489392    -0.067595857600    12.000000000000
         C           -1.181801588636     0.859783489392     1.609404142400    12.000000000000
         O           -1.860801588636     1.765783489392     2.152404142400    15.994914619570
         O           -1.092801588636    -0.296216510608     2.086404142400    15.994914619570
         H           -0.854801588636     0.593783489392    -0.481595857600     1.007825032230
         H            0.628198411364     0.969783489392     0.471404142400     1.007825032230
         H           -0.308801588636     3.276783489392     0.804404142400     1.007825032230
         H           -1.501801588636     2.850783489392    -0.426595857600     1.007825032230
         H            0.232160411364     2.922681489392    -0.848466557600     1.007825032230

  Running in c1 symmetry.

  Rotational constants: A =      0.08551  B =      0.02189  C =      0.01984 [cm^-1]
  Rotational constants: A =   2563.56313  B =    656.16490  C =    594.79549 [MHz]
  Nuclear repulsion =  437.105985948281443

  Charge       = -1
  Multiplicity = 1
  Electrons    = 74
  Nalpha       = 37
  Nbeta        = 37

  ==> Algorithm <==

  SCF Algorithm Type is PK.
  DIIS enabled.
  MOM disabled.
  Fractional occupation disabled.
  Guess Type is SAD.
  Energy threshold   = 1.00e-06
  Density threshold  = 1.00e-10
  Integral threshold = 0.00e+00

  ==> Primary Basis <==

  Basis Set: CC-PVDZ
    Blend: CC-PVDZ
    Number of shells: 83
    Number of basis function: 171
    Number of Cartesian functions: 179
    Spherical Harmonics?: true
    Max angular momentum: 2

  ==> Pre-Iterations <==

   -------------------------------------------------------
    Irrep   Nso     Nmo     Nalpha   Nbeta   Ndocc  Nsocc
   -------------------------------------------------------
     A        171     171       0       0       0       0
   -------------------------------------------------------
    Total     171     171      37      37      37       0
   -------------------------------------------------------

  ==> Integral Setup <==

  Using integral reordering PK algorithm.
  Sizing the integral batches needed.
  Building batch lookup table.
   Calculation information:
      Number of atoms:                  19
      Number of AO shells:              83
      Number of primitives:            259
      Number of atomic orbitals:       179
      Number of basis functions:       171

      Integral cutoff                 1.00e-12
      Number of threads:                 1

	Batch   1 pq = [       0,    9405] index = [             0,44231715] size =     44231715
	Batch   2 pq = [    9405,   13301] index = [      44231715,88464951] size =     44233236
	Batch   3 pq = [   13301,   14706] index = [      88464951,108140571] size =     19675620
  Task number: 10
  Buffer size: 11059200
  Buffer per thread: 2
  We computed 5608908 shell quartets total.
  Whereas there are 6077841 unique shell quartets.

  ==> DiskJK: Disk-Based J/K Matrices <==

    J tasked:                  Yes
    K tasked:                  Yes
    wK tasked:                  No
    Memory [MiB]:              375
    Schwarz Cutoff:          1E-12

    OpenMP threads:              1

  Minimum eigenvalue in the overlap matrix is 3.3992773270E-03.
  Using Symmetric Orthogonalization.

  SCF Guess: Superposition of Atomic Densities via on-the-fly atomic UHF.

  ==> Iterations <==

                        Total Energy        Delta E     RMS |[F,P]|

   @RHF iter SAD:  -741.61805801085313   -7.41618e+02   0.00000e+00
   @RHF iter   1:  -742.74766758183182   -1.12961e+00   4.26704e-03 DIIS
   @RHF iter   2:  -742.96041978546657   -2.12752e-01   2.36975e-03 DIIS
   @RHF iter   3:  -743.02090533252158   -6.04855e-02   3.97951e-04 DIIS
   @RHF iter   4:  -743.02423070700456   -3.32537e-03   1.43504e-04 DIIS
   @RHF iter   5:  -743.02465395072159   -4.23244e-04   2.34216e-05 DIIS
   @RHF iter   6:  -743.02466932301604   -1.53723e-05   6.00564e-06 DIIS
   @RHF iter   7:  -743.02467015370871   -8.30693e-07   2.43698e-06 DIIS
   @RHF iter   8:  -743.02467027487853   -1.21170e-07   8.95439e-07 DIIS
   @RHF iter   9:  -743.02467029336287   -1.84843e-08   2.73656e-07 DIIS
   @RHF iter  10:  -743.02467029695072   -3.58784e-09   1.05232e-07 DIIS
   @RHF iter  11:  -743.02467029749494   -5.44219e-10   3.07082e-08 DIIS
   @RHF iter  12:  -743.02467029754087   -4.59295e-11   9.85962e-09 DIIS
   @RHF iter  13:  -743.02467029754871   -7.84439e-12   3.02474e-09 DIIS
   @RHF iter  14:  -743.02467029755121   -2.50111e-12   9.07536e-10 DIIS
   @RHF iter  15:  -743.02467029754757    3.63798e-12   3.21355e-10 DIIS
   @RHF iter  16:  -743.02467029754689    6.82121e-13   1.24607e-10 DIIS
   @RHF iter  17:  -743.02467029754791   -1.02318e-12   5.54132e-11 DIIS
  Energy and wave function converged.

  ==> Post-Iterations <==

    Orbital Energies [Eh]
    ---------------------

    Doubly Occupied:

       1A    -91.825558     2A    -20.269225     3A    -20.268497
       4A    -11.142788     5A    -11.137561     6A    -11.122844
       7A    -11.071425     8A    -11.058186     9A     -8.831138
      10A     -6.513553    11A     -6.511770    12A     -6.509639
      13A     -1.155964    14A     -1.042293    15A     -0.964561
      16A     -0.877502    17A     -0.844976    18A     -0.710219
      19A     -0.693670    20A     -0.520539    21A     -0.499594
      22A     -0.487531    23A     -0.479479    24A     -0.458091
      25A     -0.446553    26A     -0.437007    27A     -0.401975
      28A     -0.395077    29A     -0.367219    30A     -0.357895
      31A     -0.328399    32A     -0.311716    33A     -0.308739
      34A     -0.221163    35A     -0.190537    36A     -0.178949
      37A     -0.168526

    Virtual:

      38A      0.288667    39A      0.300047    40A      0.324884
      41A      0.344987    42A      0.357086    43A      0.360763
      44A      0.375232    45A      0.386093    46A      0.397633
      47A      0.407295    48A      0.413012    49A      0.437316
      50A      0.490176    51A      0.498810    52A      0.549626
      53A      0.603952    54A      0.649164    55A      0.676636
      56A      0.694675    57A      0.703730    58A      0.712501
      59A      0.731492    60A      0.750434    61A      0.762528
      62A      0.805705    63A      0.834887    64A      0.851998
      65A      0.876850    66A      0.895457    67A      0.909120
      68A      0.922971    69A      0.941196    70A      0.956534
      71A      0.975729    72A      0.987119    73A      0.992499
      74A      1.004374    75A      1.010519    76A      1.028058
      77A      1.029360    78A      1.039103    79A      1.044686
      80A      1.050569    81A      1.054178    82A      1.063530
      83A      1.078226    84A      1.103982    85A      1.123010
      86A      1.153794    87A      1.165140    88A      1.185871
      89A      1.268255    90A      1.296340    91A      1.305306
      92A      1.322823    93A      1.388601    94A      1.402310
      95A      1.408880    96A      1.448502    97A      1.464365
      98A      1.475508    99A      1.492754   100A      1.514800
     101A      1.527812   102A      1.573947   103A      1.614178
     104A      1.629252   105A      1.638274   106A      1.656259
     107A      1.736622   108A      1.750119   109A      1.780265
     110A      1.806787   111A      1.822226   112A      1.841871
     113A      1.856997   114A      1.946129   115A      1.986341
     116A      2.001855   117A      2.013643   118A      2.028701
     119A      2.045253   120A      2.054598   121A      2.070902
     122A      2.073237   123A      2.081897   124A      2.099069
     125A      2.128678   126A      2.144039   127A      2.148868
     128A      2.151536   129A      2.177653   130A      2.207363
     131A      2.222661   132A      2.235595   133A      2.245920
     134A      2.277158   135A      2.332749   136A      2.349414
     137A      2.375315   138A      2.407431   139A      2.471852
     140A      2.502113   141A      2.525364   142A      2.531926
     143A      2.552371   144A      2.566689   145A      2.595949
     146A      2.606460   147A      2.676550   148A      2.742161
     149A      2.780061   150A      2.810450   151A      2.853796
     152A      2.876718   153A      2.908264   154A      2.913106
     155A      2.931968   156A      2.939878   157A      2.987690
     158A      3.005427   159A      3.015379   160A      3.110723
     161A      3.142571   162A      3.237184   163A      3.290924
     164A      3.300055   165A      3.357580   166A      3.630417
     167A      3.767858   168A      3.814790   169A      4.039445
     170A      4.085936   171A      4.198989

    Final Occupation by Irrep:
              A
    DOCC [    37 ]

  @RHF Final Energy:  -743.02467029754791

   => Energetics <=

    Nuclear Repulsion Energy =            437.1059859482814431
    One-Electron Energy =               -1902.0405909406122191
    Two-Electron Energy =                 721.9099346947829190
    Total Energy =                       -743.0246702975479138

Computation Completed

Properties will be evaluated at   0.000000,   0.000000,   0.000000 [a0]

Properties computed using the SCF density matrix

  Nuclear Dipole Moment: [e a0]
     X:     2.2254      Y:     2.1839      Z:    -5.3167

  Electronic Dipole Moment: [e a0]
     X:    -0.1596      Y:    -3.3346      Z:     2.1524

  Dipole Moment: [e a0]
     X:     2.0658      Y:    -1.1507      Z:    -3.1643     Total:     3.9503

  Dipole Moment: [D]
     X:     5.2508      Y:    -2.9249      Z:    -8.0429     Total:    10.0406

*** tstop() called on ds3 at Sun Apr 26 18:37:31 2020
Module time:
	user time   =      46.85 seconds =       0.78 minutes
	system time =      16.02 seconds =       0.27 minutes
	total time  =         61 seconds =       1.02 minutes
Total time:
	user time   =      46.85 seconds =       0.78 minutes
	system time =      16.02 seconds =       0.27 minutes
	total time  =         61 seconds =       1.02 minutes
                                     G D M A

                                 by Anthony Stone

                           version 2.2.06, 22 June 2011

               Distributed Multipoles from Gaussian wavefunctions

Starting at 18:37:31 on 26 Apr 2020

Using SCF density matrix from file ./SSI/SSI-001MET-047GLU-1-dimer.test.16741.fchk

                         Distributed Multipole Analysis

Standard DMA

Positions and radii in angstrom
Multipole moments in atomic units, ea_0^k for rank k

C          x = -0.163802  y = -1.301217  z = -1.981596 angstrom
           Maximum rank =  0   Radius =  0.650 angstrom
                   Q00  =  -0.283789

C          x =  1.872198  y = -1.458217  z = -0.088596 angstrom
           Maximum rank =  0   Radius =  0.650 angstrom
                   Q00  =  -0.280874

S          x =  1.551198  y = -1.529217  z = -1.866596 angstrom
           Maximum rank =  0   Radius =  0.650 angstrom
                   Q00  =   0.029928

H          x = -0.379802  y = -0.278217  z = -2.286596 angstrom
           Maximum rank =  0   Radius =  0.325 angstrom
                   Q00  =   0.077824

H          x = -0.555802  y = -1.966217  z = -2.751596 angstrom
           Maximum rank =  0   Radius =  0.325 angstrom
                   Q00  =   0.080134

H          x = -0.648802  y = -1.546217  z = -1.035596 angstrom
           Maximum rank =  0   Radius =  0.325 angstrom
                   Q00  =   0.108351

H          x =  1.762198  y = -2.471217  z =  0.301404 angstrom
           Maximum rank =  0   Radius =  0.325 angstrom
                   Q00  =   0.072504

H          x =  1.104198  y = -0.897217  z =  0.415404 angstrom
           Maximum rank =  0   Radius =  0.325 angstrom
                   Q00  =   0.077783

H          x =  2.868401  y = -1.089629  z =  0.197277 angstrom
           Maximum rank =  0   Radius =  0.325 angstrom
                   Q00  =   0.098039

C          x = -0.427802  y =  1.169783  z =  0.325404 angstrom
           Maximum rank =  0   Radius =  0.650 angstrom
                   Q00  =  -0.167572

C          x = -0.491802  y =  2.646783  z = -0.067596 angstrom
           Maximum rank =  0   Radius =  0.650 angstrom
                   Q00  =  -0.221734

C          x = -1.181802  y =  0.859783  z =  1.609404 angstrom
           Maximum rank =  0   Radius =  0.650 angstrom
                   Q00  =   1.057692

O          x = -1.860802  y =  1.765783  z =  2.152404 angstrom
           Maximum rank =  0   Radius =  0.650 angstrom
                   Q00  =  -0.969471

O          x = -1.092802  y = -0.296217  z =  2.086404 angstrom
           Maximum rank =  0   Radius =  0.650 angstrom
                   Q00  =  -0.956278

H          x = -0.854802  y =  0.593783  z = -0.481596 angstrom
           Maximum rank =  0   Radius =  0.325 angstrom
                   Q00  =   0.054154

H          x =  0.628198  y =  0.969783  z =  0.471404 angstrom
           Maximum rank =  0   Radius =  0.325 angstrom
                   Q00  =   0.041156

H          x = -0.308802  y =  3.276783  z =  0.804404 angstrom
           Maximum rank =  0   Radius =  0.325 angstrom
                   Q00  =   0.095193

H          x = -1.501802  y =  2.850783  z = -0.426596 angstrom
           Maximum rank =  0   Radius =  0.325 angstrom
                   Q00  =   0.069466

H          x =  0.232160  y =  2.922681  z = -0.848467 angstrom
           Maximum rank =  0   Radius =  0.325 angstrom
                   Q00  =   0.017494

Total multipoles referred to origin at
           x =   0.000000,  y =    0.000000,  z =    0.000000 angstrom
                   Q00  =  -1.000000

Finished at 18:37:31 on 26 Apr 2020

  DMA results are available in the Python driver through the
	  variable('DMA DISTRIBUTED MULTIPOLES')
  and
	  variable('DMA TOTAL MULTIPOLES')
  commands.

    Psi4 stopped on: Sunday, 26 April 2020 06:37PM
    Psi4 wall time for execution: 0:01:01.92

*** Psi4 exiting successfully. Buy a developer a beer!
