                               Psi4 1.3.2 release

  ==> Input File <==

--------------------------------------------------------------------------
import numpy as np
set {scf_type pk
basis cc-pvdz
d_convergence 10
gdma_switch   0
gdma_limit    0
gdma_origin   [ 0.0,  0.0,  0.0 ]
}
molecule test {
    units Angstrom
    0 1
    --
    0 1
    C                5.895207064259421    -0.157709514608436     1.205418202597560
    C                1.741207064259422    -0.049709514608436     0.006418202597560
    C                2.064207064259422    -0.131709514608436     1.315418202597560
    C                2.761207064259422     0.014290485391564    -0.933581797402440
    C                3.418207064259422    -0.188709514608436     1.717418202597561
    C                4.092207064259422    -0.035709514608436    -0.554581797402440
    C                4.447207064259422    -0.116709514608436     0.778418202597560
    H                0.706207064259422    -0.024709514608436    -0.305581797402440
    H                1.280207064259422    -0.180709514608436     2.060418202597560
    H                2.504207064259422     0.082290485391564    -1.979581797402439
    H                3.655207064259422    -0.287709514608436     2.766418202597560
    H                4.859207064259421     0.005290485391564    -1.315581797402440
    H                6.053207064259422     0.600290485391564     1.972418202597560
    H                6.508207064259422     0.106290485391564     0.348418202597560
    H                6.234567064259422    -1.131879514608436     1.587288202597561
    C               -1.392792935740578     1.898290485391564     0.777418202597560
    C               -2.338792935740578     2.923290485391564     1.382418202597560
    C               -2.081792935740578     0.781290485391564     0.067418202597560
    C               -2.411792935740578    -0.366709514608436     0.737418202597560
    C               -2.404792935740578     0.885290485391564    -1.285581797402440
    C               -2.970792935740578    -1.434709514608436     0.049418202597560
    C               -3.002792935740578    -0.159709514608436    -1.959581797402440
    C               -3.306792935740578    -1.346709514608436    -1.303581797402440
    O               -3.879792935740578    -2.411709514608436    -1.974581797402440
    H               -0.730792935740578     2.393290485391564     0.076418202597560
    H               -0.768792935740578     1.479290485391564     1.569418202597560
    H               -2.967792935740578     2.444290485391564     2.135418202597560
    H               -2.189792935740578    -0.462709514608436     1.793418202597560
    H               -2.172792935740578     1.795290485391564    -1.822581797402439
    H               -3.219792935740578    -2.329709514608436     0.601418202597560
    H               -3.233792935740578    -0.064709514608436    -3.010581797402440
    H               -3.993792935740578    -3.182709514608436    -1.408581797402439
    H               -2.937252935740578     3.410980485391564     0.598838202597560
    H               -1.700442935740578     3.685100485391564     1.853738202597560

}
e, wfn = energy('scf', return_wfn=True)
gdma(wfn)
dmavals = variable('DMA DISTRIBUTED MULTIPOLES')
charges = np.array(dmavals)
print(charges)
np.save('SSI-013PHE-060TYR-1-dimer.npy', np.array(charges))--------------------------------------------------------------------------

*** tstart() called on ds3
*** at Sun Apr 26 19:01:35 2020

   => Loading Basis Set <=

    Name: CC-PVDZ
    Role: ORBITAL
    Keyword: BASIS
    atoms 1-7, 16-23  entry C          line   138 file /theoryfs2/ds/metcalf/miniconda2/envs/tf2gpu/share/psi4/basis/cc-pvdz.gbs
    atoms 8-15, 25-34 entry H          line    22 file /theoryfs2/ds/metcalf/miniconda2/envs/tf2gpu/share/psi4/basis/cc-pvdz.gbs
    atoms 24          entry O          line   198 file /theoryfs2/ds/metcalf/miniconda2/envs/tf2gpu/share/psi4/basis/cc-pvdz.gbs

         ---------------------------------------------------------
                                   SCF
               by Justin Turney, Rob Parrish, Andy Simmonett
                          and Daniel G. A. Smith
                              RHF Reference
                        1 Threads,    500 MiB Core
         ---------------------------------------------------------

  ==> Geometry <==

    Molecular point group: c1
    Full point group: C1

    Geometry (in Angstrom), charge = 0, multiplicity = 1:

       Center              X                  Y                   Z               Mass
    ------------   -----------------  -----------------  -----------------  -----------------
         C            5.895207064259    -0.157709514608     1.205418202598    12.000000000000
         C            1.741207064259    -0.049709514608     0.006418202598    12.000000000000
         C            2.064207064259    -0.131709514608     1.315418202598    12.000000000000
         C            2.761207064259     0.014290485392    -0.933581797402    12.000000000000
         C            3.418207064259    -0.188709514608     1.717418202598    12.000000000000
         C            4.092207064259    -0.035709514608    -0.554581797402    12.000000000000
         C            4.447207064259    -0.116709514608     0.778418202598    12.000000000000
         H            0.706207064259    -0.024709514608    -0.305581797402     1.007825032230
         H            1.280207064259    -0.180709514608     2.060418202598     1.007825032230
         H            2.504207064259     0.082290485392    -1.979581797402     1.007825032230
         H            3.655207064259    -0.287709514608     2.766418202598     1.007825032230
         H            4.859207064259     0.005290485392    -1.315581797402     1.007825032230
         H            6.053207064259     0.600290485392     1.972418202598     1.007825032230
         H            6.508207064259     0.106290485392     0.348418202598     1.007825032230
         H            6.234567064259    -1.131879514608     1.587288202598     1.007825032230
         C           -1.392792935741     1.898290485392     0.777418202598    12.000000000000
         C           -2.338792935741     2.923290485392     1.382418202598    12.000000000000
         C           -2.081792935741     0.781290485392     0.067418202598    12.000000000000
         C           -2.411792935741    -0.366709514608     0.737418202598    12.000000000000
         C           -2.404792935741     0.885290485392    -1.285581797402    12.000000000000
         C           -2.970792935741    -1.434709514608     0.049418202598    12.000000000000
         C           -3.002792935741    -0.159709514608    -1.959581797402    12.000000000000
         C           -3.306792935741    -1.346709514608    -1.303581797402    12.000000000000
         O           -3.879792935741    -2.411709514608    -1.974581797402    15.994914619570
         H           -0.730792935741     2.393290485392     0.076418202598     1.007825032230
         H           -0.768792935741     1.479290485392     1.569418202598     1.007825032230
         H           -2.967792935741     2.444290485392     2.135418202598     1.007825032230
         H           -2.189792935741    -0.462709514608     1.793418202598     1.007825032230
         H           -2.172792935741     1.795290485392    -1.822581797402     1.007825032230
         H           -3.219792935741    -2.329709514608     0.601418202598     1.007825032230
         H           -3.233792935741    -0.064709514608    -3.010581797402     1.007825032230
         H           -3.993792935741    -3.182709514608    -1.408581797402     1.007825032230
         H           -2.937252935741     3.410980485392     0.598838202598     1.007825032230
         H           -1.700442935741     3.685100485392     1.853738202598     1.007825032230

  Running in c1 symmetry.

  Rotational constants: A =      0.02746  B =      0.00670  C =      0.00599 [cm^-1]
  Rotational constants: A =    823.29075  B =    200.74062  C =    179.58044 [MHz]
  Nuclear repulsion =  967.233103112105482

  Charge       = 0
  Multiplicity = 1
  Electrons    = 116
  Nalpha       = 58
  Nbeta        = 58

  ==> Algorithm <==

  SCF Algorithm Type is PK.
  DIIS enabled.
  MOM disabled.
  Fractional occupation disabled.
  Guess Type is SAD.
  Energy threshold   = 1.00e-06
  Density threshold  = 1.00e-10
  Integral threshold = 0.00e+00

  ==> Primary Basis <==

  Basis Set: CC-PVDZ
    Blend: CC-PVDZ
    Number of shells: 150
    Number of basis function: 314
    Number of Cartesian functions: 330
    Spherical Harmonics?: true
    Max angular momentum: 2

  ==> Pre-Iterations <==

   -------------------------------------------------------
    Irrep   Nso     Nmo     Nalpha   Nbeta   Ndocc  Nsocc
   -------------------------------------------------------
     A        314     314       0       0       0       0
   -------------------------------------------------------
    Total     314     314      58      58      58       0
   -------------------------------------------------------

  ==> Integral Setup <==

  Using integral reordering PK algorithm.
  Sizing the integral batches needed.
  Building batch lookup table.
   Calculation information:
      Number of atoms:                  34
      Number of AO shells:             150
      Number of primitives:            442
      Number of atomic orbitals:       330
      Number of basis functions:       314

      Integral cutoff                 1.00e-12
      Number of threads:                 1

	Batch   1 pq = [       0,    9405] index = [             0,44231715] size =     44231715
	Batch   2 pq = [    9405,   13301] index = [      44231715,88464951] size =     44233236
	Batch   3 pq = [   13301,   16290] index = [      88464951,132690195] size =     44225244
	Batch   4 pq = [   16290,   18810] index = [     132690195,176917455] size =     44227260
	Batch   5 pq = [   18810,   21030] index = [     176917455,221140965] size =     44223510
	Batch   6 pq = [   21030,   23037] index = [     221140965,265363203] size =     44222238
	Batch   7 pq = [   23037,   24883] index = [     265363203,309594286] size =     44231083
	Batch   8 pq = [   24883,   26601] index = [     309594286,353819901] size =     44225615
	Batch   9 pq = [   26601,   28214] index = [     353819901,398029005] size =     44209104
	Batch  10 pq = [   28214,   29740] index = [     398029005,442248670] size =     44219665
	Batch  11 pq = [   29740,   31191] index = [     442248670,486454836] size =     44206166
	Batch  12 pq = [   31191,   32578] index = [     486454836,530679331] size =     44224495
	Batch  13 pq = [   32578,   33908] index = [     530679331,574893186] size =     44213855
	Batch  14 pq = [   33908,   35188] index = [     574893186,619115266] size =     44222080
	Batch  15 pq = [   35188,   36423] index = [     619115266,663335676] size =     44220410
	Batch  16 pq = [   36423,   37617] index = [     663335676,707538153] size =     44202477
	Batch  17 pq = [   37617,   38775] index = [     707538153,751769700] size =     44231547
	Batch  18 pq = [   38775,   39899] index = [     751769700,795985050] size =     44215350
	Batch  19 pq = [   39899,   40992] index = [     795985050,840192528] size =     44207478
	Batch  20 pq = [   40992,   42057] index = [     840192528,884416653] size =     44224125
	Batch  21 pq = [   42057,   43095] index = [     884416653,928611060] size =     44194407
	Batch  22 pq = [   43095,   44109] index = [     928611060,972823995] size =     44212935
	Batch  23 pq = [   44109,   45100] index = [     972823995,1017027550] size =     44203555
	Batch  24 pq = [   45100,   46070] index = [    1017027550,1061245485] size =     44217935
	Batch  25 pq = [   46070,   47020] index = [    1061245485,1105463710] size =     44218225
	Batch  26 pq = [   47020,   47951] index = [    1105463710,1149673176] size =     44209466
	Batch  27 pq = [   47951,   48864] index = [    1149673176,1193869680] size =     44196504
	Batch  28 pq = [   48864,   49455] index = [    1193869680,1222923240] size =     29053560
  Task number: 111
  Buffer size: 11059200
  Buffer per thread: 2
  We computed 56309380 shell quartets total.
  Whereas there are 64133475 unique shell quartets.

  ==> DiskJK: Disk-Based J/K Matrices <==

    J tasked:                  Yes
    K tasked:                  Yes
    wK tasked:                  No
    Memory [MiB]:              375
    Schwarz Cutoff:          1E-12

    OpenMP threads:              1

  Minimum eigenvalue in the overlap matrix is 2.8675503517E-04.
  Using Symmetric Orthogonalization.

  SCF Guess: Superposition of Atomic Densities via on-the-fly atomic UHF.

  ==> Iterations <==

                        Total Energy        Delta E     RMS |[F,P]|

   @RHF iter SAD:  -652.34888868039900   -6.52349e+02   0.00000e+00
   @RHF iter   1:  -653.05943012165153   -7.10541e-01   2.31268e-03 DIIS
   @RHF iter   2:  -653.36260527156401   -3.03175e-01   9.83106e-04 DIIS
   @RHF iter   3:  -653.41121772511451   -4.86125e-02   2.33888e-04 DIIS
   @RHF iter   4:  -653.41530712953568   -4.08940e-03   9.69556e-05 DIIS
   @RHF iter   5:  -653.41584421539756   -5.37086e-04   1.65804e-05 DIIS
   @RHF iter   6:  -653.41586849477505   -2.42794e-05   5.35533e-06 DIIS
   @RHF iter   7:  -653.41587108178123   -2.58701e-06   1.68946e-06 DIIS
   @RHF iter   8:  -653.41587146754091   -3.85760e-07   7.37573e-07 DIIS
   @RHF iter   9:  -653.41587154844683   -8.09059e-08   3.01025e-07 DIIS
   @RHF iter  10:  -653.41587156721766   -1.87708e-08   1.33596e-07 DIIS
   @RHF iter  11:  -653.41587157270192   -5.48425e-09   5.91309e-08 DIIS
   @RHF iter  12:  -653.41587157355457   -8.52651e-10   2.27189e-08 DIIS
   @RHF iter  13:  -653.41587157366178   -1.07207e-10   7.25238e-09 DIIS
   @RHF iter  14:  -653.41587157367098   -9.20863e-12   2.22269e-09 DIIS
   @RHF iter  15:  -653.41587157366496    6.02540e-12   7.69596e-10 DIIS
   @RHF iter  16:  -653.41587157366928   -4.32010e-12   4.03300e-10 DIIS
   @RHF iter  17:  -653.41587157366939   -1.13687e-13   2.18868e-10 DIIS
   @RHF iter  18:  -653.41587157366951   -1.13687e-13   7.47648e-11 DIIS
  Energy and wave function converged.

  ==> Post-Iterations <==

    Orbital Energies [Eh]
    ---------------------

    Doubly Occupied:

       1A    -20.584722     2A    -11.301906     3A    -11.237376
       4A    -11.237296     5A    -11.236224     6A    -11.234000
       7A    -11.232007     8A    -11.229941     9A    -11.228997
      10A    -11.228739    11A    -11.228514    12A    -11.228019
      13A    -11.225773    14A    -11.224758    15A    -11.222396
      16A    -11.221285    17A     -1.391475    18A     -1.159777
      19A     -1.153617    20A     -1.064059    21A     -1.046585
      22A     -1.020645    23A     -1.005790    24A     -0.980618
      25A     -0.932233    26A     -0.863128    27A     -0.842618
      28A     -0.824812    29A     -0.792765    30A     -0.791195
      31A     -0.732133    32A     -0.690300    33A     -0.673091
      34A     -0.647624    35A     -0.630526    36A     -0.625222
      37A     -0.615306    38A     -0.599797    39A     -0.584787
      40A     -0.581665    41A     -0.577069    42A     -0.574328
      43A     -0.567911    44A     -0.562578    45A     -0.549701
      46A     -0.535122    47A     -0.524804    48A     -0.497486
      49A     -0.487754    50A     -0.482065    51A     -0.479082
      52A     -0.477298    53A     -0.473760    54A     -0.466046
      55A     -0.341377    56A     -0.330475    57A     -0.320668
      58A     -0.305284

    Virtual:

      59A      0.130558    60A      0.135483    61A      0.149029
      62A      0.151183    63A      0.172710    64A      0.181340
      65A      0.191079    66A      0.200078    67A      0.210824
      68A      0.216752    69A      0.226665    70A      0.244499
      71A      0.249150    72A      0.253902    73A      0.255408
      74A      0.269701    75A      0.278286    76A      0.283888
      77A      0.297267    78A      0.299509    79A      0.302263
      80A      0.329564    81A      0.354953    82A      0.373703
      83A      0.381197    84A      0.383424    85A      0.414846
      86A      0.423600    87A      0.453650    88A      0.472575
      89A      0.474510    90A      0.478918    91A      0.487248
      92A      0.503056    93A      0.505311    94A      0.515849
      95A      0.563329    96A      0.590550    97A      0.594970
      98A      0.607663    99A      0.630579   100A      0.642012
     101A      0.648520   102A      0.653341   103A      0.673236
     104A      0.683193   105A      0.692428   106A      0.699815
     107A      0.712154   108A      0.716080   109A      0.718160
     110A      0.721692   111A      0.727840   112A      0.734703
     113A      0.743293   114A      0.750163   115A      0.752068
     116A      0.757734   117A      0.759986   118A      0.763907
     119A      0.777305   120A      0.785865   121A      0.789118
     122A      0.798210   123A      0.810860   124A      0.827006
     125A      0.830027   126A      0.845218   127A      0.855270
     128A      0.861815   129A      0.868904   130A      0.872398
     131A      0.880100   132A      0.884701   133A      0.891445
     134A      0.893609   135A      0.898125   136A      0.900451
     137A      0.910308   138A      0.914818   139A      0.923369
     140A      0.930349   141A      0.940618   142A      0.946090
     143A      0.950839   144A      0.956546   145A      0.962159
     146A      0.970214   147A      0.991191   148A      0.999517
     149A      1.015556   150A      1.025656   151A      1.033576
     152A      1.053337   153A      1.069218   154A      1.091231
     155A      1.126686   156A      1.139298   157A      1.148002
     158A      1.153721   159A      1.157879   160A      1.167068
     161A      1.170676   162A      1.181531   163A      1.192770
     164A      1.208341   165A      1.231556   166A      1.246649
     167A      1.252476   168A      1.256596   169A      1.263099
     170A      1.265204   171A      1.283303   172A      1.290244
     173A      1.297117   174A      1.302844   175A      1.308978
     176A      1.315737   177A      1.317009   178A      1.332639
     179A      1.338225   180A      1.349327   181A      1.357096
     182A      1.376398   183A      1.423417   184A      1.433996
     185A      1.448642   186A      1.493870   187A      1.503497
     188A      1.512977   189A      1.539060   190A      1.553216
     191A      1.557350   192A      1.598300   193A      1.612191
     194A      1.620090   195A      1.625569   196A      1.673853
     197A      1.680850   198A      1.688703   199A      1.700911
     200A      1.720896   201A      1.730087   202A      1.738601
     203A      1.753173   204A      1.774004   205A      1.779111
     206A      1.795888   207A      1.806568   208A      1.818147
     209A      1.856692   210A      1.857367   211A      1.872217
     212A      1.878619   213A      1.879727   214A      1.887712
     215A      1.893061   216A      1.895632   217A      1.904211
     218A      1.905961   219A      1.906677   220A      1.914067
     221A      1.923870   222A      1.931878   223A      1.936606
     224A      1.946355   225A      1.953474   226A      1.959266
     227A      1.963835   228A      1.974473   229A      1.980312
     230A      1.989362   231A      1.996218   232A      2.002894
     233A      2.010689   234A      2.020990   235A      2.044346
     236A      2.049064   237A      2.053938   238A      2.066746
     239A      2.074510   240A      2.077173   241A      2.084938
     242A      2.087862   243A      2.109571   244A      2.119667
     245A      2.135593   246A      2.141086   247A      2.148673
     248A      2.161244   249A      2.174104   250A      2.185376
     251A      2.199110   252A      2.202097   253A      2.217609
     254A      2.233006   255A      2.252777   256A      2.269335
     257A      2.274587   258A      2.279654   259A      2.293935
     260A      2.306246   261A      2.318364   262A      2.329458
     263A      2.349565   264A      2.355031   265A      2.359756
     266A      2.371157   267A      2.451070   268A      2.458555
     269A      2.474292   270A      2.474607   271A      2.478558
     272A      2.493601   273A      2.503003   274A      2.521288
     275A      2.531517   276A      2.545506   277A      2.549291
     278A      2.563643   279A      2.625791   280A      2.636055
     281A      2.643086   282A      2.739573   283A      2.757507
     284A      2.768861   285A      2.775566   286A      2.783622
     287A      2.801594   288A      2.807937   289A      2.820858
     290A      2.824463   291A      2.853989   292A      2.861657
     293A      2.877309   294A      2.885910   295A      2.925018
     296A      2.971524   297A      2.994102   298A      3.002798
     299A      3.020542   300A      3.031731   301A      3.039603
     302A      3.095483   303A      3.172735   304A      3.186880
     305A      3.219725   306A      3.239518   307A      3.307871
     308A      3.315128   309A      3.339982   310A      3.554915
     311A      3.658122   312A      3.970867   313A      3.988645
     314A      4.184280

    Final Occupation by Irrep:
              A
    DOCC [    58 ]

  @RHF Final Energy:  -653.41587157366951

   => Energetics <=

    Nuclear Repulsion Energy =            967.2331031121054821
    One-Electron Energy =               -2805.4888831359139658
    Two-Electron Energy =                1184.8399084501388643
    Total Energy =                       -653.4158715736696195

Computation Completed

Properties will be evaluated at   0.000000,   0.000000,   0.000000 [a0]

Properties computed using the SCF density matrix

  Nuclear Dipole Moment: [e a0]
     X:     7.3742      Y:     7.8046      Z:     7.0413

  Electronic Dipole Moment: [e a0]
     X:    -7.2036      Y:    -7.9397      Z:    -6.5059

  Dipole Moment: [e a0]
     X:     0.1706      Y:    -0.1351      Z:     0.5354     Total:     0.5780

  Dipole Moment: [D]
     X:     0.4337      Y:    -0.3434      Z:     1.3609     Total:     1.4691

*** tstop() called on ds3 at Sun Apr 26 20:04:18 2020
Module time:
	user time   =     489.08 seconds =       8.15 minutes
	system time =     203.05 seconds =       3.38 minutes
	total time  =       3763 seconds =      62.72 minutes
Total time:
	user time   =     489.08 seconds =       8.15 minutes
	system time =     203.05 seconds =       3.38 minutes
	total time  =       3763 seconds =      62.72 minutes
                                     G D M A

                                 by Anthony Stone

                           version 2.2.06, 22 June 2011

               Distributed Multipoles from Gaussian wavefunctions

Starting at 20:4:18 on 26 Apr 2020

Using SCF density matrix from file ./SSI/SSI-013PHE-060TYR-1-dimer.test.29899.fchk

                         Distributed Multipole Analysis

Standard DMA

Positions and radii in angstrom
Multipole moments in atomic units, ea_0^k for rank k

C          x =  5.895207  y = -0.157710  z =  1.205418 angstrom
           Maximum rank =  0   Radius =  0.650 angstrom
                   Q00  =  -0.216973

C          x =  1.741207  y = -0.049710  z =  0.006418 angstrom
           Maximum rank =  0   Radius =  0.650 angstrom
                   Q00  =  -0.084152

C          x =  2.064207  y = -0.131710  z =  1.315418 angstrom
           Maximum rank =  0   Radius =  0.650 angstrom
                   Q00  =  -0.078179

C          x =  2.761207  y =  0.014290  z = -0.933582 angstrom
           Maximum rank =  0   Radius =  0.650 angstrom
                   Q00  =   0.002885

C          x =  3.418207  y = -0.188710  z =  1.717418 angstrom
           Maximum rank =  0   Radius =  0.650 angstrom
                   Q00  =  -0.035506

C          x =  4.092207  y = -0.035710  z = -0.554582 angstrom
           Maximum rank =  0   Radius =  0.650 angstrom
                   Q00  =  -0.095124

C          x =  4.447207  y = -0.116710  z =  0.778418 angstrom
           Maximum rank =  0   Radius =  0.650 angstrom
                   Q00  =  -0.096021

H          x =  0.706207  y = -0.024710  z = -0.305582 angstrom
           Maximum rank =  0   Radius =  0.325 angstrom
                   Q00  =   0.070400

H          x =  1.280207  y = -0.180710  z =  2.060418 angstrom
           Maximum rank =  0   Radius =  0.325 angstrom
                   Q00  =   0.055037

H          x =  2.504207  y =  0.082290  z = -1.979582 angstrom
           Maximum rank =  0   Radius =  0.325 angstrom
                   Q00  =   0.060347

H          x =  3.655207  y = -0.287710  z =  2.766418 angstrom
           Maximum rank =  0   Radius =  0.325 angstrom
                   Q00  =   0.053851

H          x =  4.859207  y =  0.005290  z = -1.315582 angstrom
           Maximum rank =  0   Radius =  0.325 angstrom
                   Q00  =   0.054290

H          x =  6.053207  y =  0.600290  z =  1.972418 angstrom
           Maximum rank =  0   Radius =  0.325 angstrom
                   Q00  =   0.102582

H          x =  6.508207  y =  0.106290  z =  0.348418 angstrom
           Maximum rank =  0   Radius =  0.325 angstrom
                   Q00  =   0.097474

H          x =  6.234567  y = -1.131880  z =  1.587288 angstrom
           Maximum rank =  0   Radius =  0.325 angstrom
                   Q00  =   0.105356

C          x = -1.392793  y =  1.898290  z =  0.777418 angstrom
           Maximum rank =  0   Radius =  0.650 angstrom
                   Q00  =  -0.022821

C          x = -2.338793  y =  2.923290  z =  1.382418 angstrom
           Maximum rank =  0   Radius =  0.650 angstrom
                   Q00  =  -0.234902

C          x = -2.081793  y =  0.781290  z =  0.067418 angstrom
           Maximum rank =  0   Radius =  0.650 angstrom
                   Q00  =  -0.147381

C          x = -2.411793  y = -0.366710  z =  0.737418 angstrom
           Maximum rank =  0   Radius =  0.650 angstrom
                   Q00  =  -0.053478

C          x = -2.404793  y =  0.885290  z = -1.285582 angstrom
           Maximum rank =  0   Radius =  0.650 angstrom
                   Q00  =   0.014908

C          x = -2.970793  y = -1.434710  z =  0.049418 angstrom
           Maximum rank =  0   Radius =  0.650 angstrom
                   Q00  =  -0.109502

C          x = -3.002793  y = -0.159710  z = -1.959582 angstrom
           Maximum rank =  0   Radius =  0.650 angstrom
                   Q00  =  -0.117274

C          x = -3.306793  y = -1.346710  z = -1.303582 angstrom
           Maximum rank =  0   Radius =  0.650 angstrom
                   Q00  =   0.308057

O          x = -3.879793  y = -2.411710  z = -1.974582 angstrom
           Maximum rank =  0   Radius =  0.650 angstrom
                   Q00  =  -0.691218

H          x = -0.730793  y =  2.393290  z =  0.076418 angstrom
           Maximum rank =  0   Radius =  0.325 angstrom
                   Q00  =   0.069314

H          x = -0.768793  y =  1.479290  z =  1.569418 angstrom
           Maximum rank =  0   Radius =  0.325 angstrom
                   Q00  =   0.061073

H          x = -2.967793  y =  2.444290  z =  2.135418 angstrom
           Maximum rank =  0   Radius =  0.325 angstrom
                   Q00  =   0.082935

H          x = -2.189793  y = -0.462710  z =  1.793418 angstrom
           Maximum rank =  0   Radius =  0.325 angstrom
                   Q00  =   0.065134

H          x = -2.172793  y =  1.795290  z = -1.822582 angstrom
           Maximum rank =  0   Radius =  0.325 angstrom
                   Q00  =   0.060093

H          x = -3.219793  y = -2.329710  z =  0.601418 angstrom
           Maximum rank =  0   Radius =  0.325 angstrom
                   Q00  =   0.070417

H          x = -3.233793  y = -0.064710  z = -3.010582 angstrom
           Maximum rank =  0   Radius =  0.325 angstrom
                   Q00  =   0.078748

H          x = -3.993793  y = -3.182710  z = -1.408582 angstrom
           Maximum rank =  0   Radius =  0.325 angstrom
                   Q00  =   0.409034

H          x = -2.937253  y =  3.410980  z =  0.598838 angstrom
           Maximum rank =  0   Radius =  0.325 angstrom
                   Q00  =   0.083453

H          x = -1.700443  y =  3.685100  z =  1.853738 angstrom
           Maximum rank =  0   Radius =  0.325 angstrom
                   Q00  =   0.077143

Total multipoles referred to origin at
           x =   0.000000,  y =    0.000000,  z =    0.000000 angstrom
                   Q00  =  -0.000000

Finished at 20:4:18 on 26 Apr 2020

  DMA results are available in the Python driver through the
	  variable('DMA DISTRIBUTED MULTIPOLES')
  and
	  variable('DMA TOTAL MULTIPOLES')
  commands.

    Psi4 stopped on: Sunday, 26 April 2020 08:04PM
    Psi4 wall time for execution: 1:02:42.85

*** Psi4 exiting successfully. Buy a developer a beer!
