                               Psi4 1.3.2 release

  ==> Input File <==

--------------------------------------------------------------------------
import numpy as np
set {scf_type pk
basis cc-pvdz
d_convergence 10
gdma_switch   0
gdma_limit    0
gdma_origin   [ 0.0,  0.0,  0.0 ]
}
molecule test {
    units Angstrom
    0 1
    --
    0 1
    C                0.603118658900844     0.585391927643503    -1.032638711861920
    C                2.051118658900844     1.051391927643503    -1.293638711861920
    C               -0.383881341099156     1.737391927643503    -0.738638711861920
    C                0.188118658900844    -0.159608072356497    -2.313638711861920
    H                0.623118658900844    -0.096608072356497    -0.183638711861920
    H                2.060118658900844     1.717391927643503    -2.156638711861920
    H                2.666118658900844     0.179391927643503    -1.515638711861920
    H               -0.418881341099156     2.420391927643503    -1.587638711861920
    H               -1.382881341099156     1.334391927643503    -0.562638711861920
    H               -0.060881341099156     2.284391927643503     0.148361288138080
    H                0.857118658900844    -1.005608072356497    -2.480638711861920
    H               -0.829881341099156    -0.524608072356497    -2.213638711861920
    H                0.245118658900844     0.516391927643503    -3.167638711861919
    H                2.573628658900844     1.601781927643503    -0.497358711861920
    C               -0.919881341099156    -1.320608072356497     1.955361288138080
    C               -1.469881341099156    -1.812608072356497     3.293361288138080
    H               -1.454881341099156    -1.806608072356497     1.139361288138080
    H               -1.048881341099156    -0.240608072356497     1.880361288138080
    H                0.140118658900844    -1.562608072356497     1.883361288138080
    H               -0.924881341099156    -1.322608072356497     4.101361288138080
    H               -1.326841341099156    -2.901428072356497     3.356701288138080
    H               -2.535471341099156    -1.562088072356496     3.401851288138081

}
e, wfn = energy('scf', return_wfn=True)
gdma(wfn)
dmavals = variable('DMA DISTRIBUTED MULTIPOLES')
charges = np.array(dmavals)
print(charges)
np.save('SSI-170LEU-178LEU-1-dimer.npy', np.array(charges))--------------------------------------------------------------------------

*** tstart() called on ds3
*** at Mon Apr 27 20:04:23 2020

   => Loading Basis Set <=

    Name: CC-PVDZ
    Role: ORBITAL
    Keyword: BASIS
    atoms 1-4, 15-16  entry C          line   138 file /theoryfs2/ds/metcalf/miniconda2/envs/tf2gpu/share/psi4/basis/cc-pvdz.gbs
    atoms 5-14, 17-22 entry H          line    22 file /theoryfs2/ds/metcalf/miniconda2/envs/tf2gpu/share/psi4/basis/cc-pvdz.gbs

         ---------------------------------------------------------
                                   SCF
               by Justin Turney, Rob Parrish, Andy Simmonett
                          and Daniel G. A. Smith
                              RHF Reference
                        1 Threads,    500 MiB Core
         ---------------------------------------------------------

  ==> Geometry <==

    Molecular point group: c1
    Full point group: C1

    Geometry (in Angstrom), charge = 0, multiplicity = 1:

       Center              X                  Y                   Z               Mass
    ------------   -----------------  -----------------  -----------------  -----------------
         C            0.603118658901     0.585391927644    -1.032638711862    12.000000000000
         C            2.051118658901     1.051391927644    -1.293638711862    12.000000000000
         C           -0.383881341099     1.737391927644    -0.738638711862    12.000000000000
         C            0.188118658901    -0.159608072356    -2.313638711862    12.000000000000
         H            0.623118658901    -0.096608072356    -0.183638711862     1.007825032230
         H            2.060118658901     1.717391927644    -2.156638711862     1.007825032230
         H            2.666118658901     0.179391927644    -1.515638711862     1.007825032230
         H           -0.418881341099     2.420391927644    -1.587638711862     1.007825032230
         H           -1.382881341099     1.334391927644    -0.562638711862     1.007825032230
         H           -0.060881341099     2.284391927644     0.148361288138     1.007825032230
         H            0.857118658901    -1.005608072356    -2.480638711862     1.007825032230
         H           -0.829881341099    -0.524608072356    -2.213638711862     1.007825032230
         H            0.245118658901     0.516391927644    -3.167638711862     1.007825032230
         H            2.573628658901     1.601781927644    -0.497358711862     1.007825032230
         C           -0.919881341099    -1.320608072356     1.955361288138    12.000000000000
         C           -1.469881341099    -1.812608072356     3.293361288138    12.000000000000
         H           -1.454881341099    -1.806608072356     1.139361288138     1.007825032230
         H           -1.048881341099    -0.240608072356     1.880361288138     1.007825032230
         H            0.140118658901    -1.562608072356     1.883361288138     1.007825032230
         H           -0.924881341099    -1.322608072356     4.101361288138     1.007825032230
         H           -1.326841341099    -2.901428072356     3.356701288138     1.007825032230
         H           -2.535471341099    -1.562088072356     3.401851288138     1.007825032230

  Running in c1 symmetry.

  Rotational constants: A =      0.15303  B =      0.02891  C =      0.02872 [cm^-1]
  Rotational constants: A =   4587.79781  B =    866.77616  C =    861.13427 [MHz]
  Nuclear repulsion =  241.456091592755598

  Charge       = 0
  Multiplicity = 1
  Electrons    = 52
  Nalpha       = 26
  Nbeta        = 26

  ==> Algorithm <==

  SCF Algorithm Type is PK.
  DIIS enabled.
  MOM disabled.
  Fractional occupation disabled.
  Guess Type is SAD.
  Energy threshold   = 1.00e-06
  Density threshold  = 1.00e-10
  Integral threshold = 0.00e+00

  ==> Primary Basis <==

  Basis Set: CC-PVDZ
    Blend: CC-PVDZ
    Number of shells: 84
    Number of basis function: 164
    Number of Cartesian functions: 170
    Spherical Harmonics?: true
    Max angular momentum: 2

  ==> Pre-Iterations <==

   -------------------------------------------------------
    Irrep   Nso     Nmo     Nalpha   Nbeta   Ndocc  Nsocc
   -------------------------------------------------------
     A        164     164       0       0       0       0
   -------------------------------------------------------
    Total     164     164      26      26      26       0
   -------------------------------------------------------

  ==> Integral Setup <==

  Using integral reordering PK algorithm.
  Sizing the integral batches needed.
  Building batch lookup table.
   Calculation information:
      Number of atoms:                  22
      Number of AO shells:              84
      Number of primitives:            212
      Number of atomic orbitals:       170
      Number of basis functions:       164

      Integral cutoff                 1.00e-12
      Number of threads:                 1

	Batch   1 pq = [       0,    9405] index = [             0,44231715] size =     44231715
	Batch   2 pq = [    9405,   13530] index = [      44231715,91537215] size =     47305500
  Task number: 9
  Buffer size: 11059200
  Buffer per thread: 2
  We computed 5405897 shell quartets total.
  Whereas there are 6374235 unique shell quartets.

  ==> DiskJK: Disk-Based J/K Matrices <==

    J tasked:                  Yes
    K tasked:                  Yes
    wK tasked:                  No
    Memory [MiB]:              375
    Schwarz Cutoff:          1E-12

    OpenMP threads:              1

  Minimum eigenvalue in the overlap matrix is 4.6942098601E-03.
  Using Symmetric Orthogonalization.

  SCF Guess: Superposition of Atomic Densities via on-the-fly atomic UHF.

  ==> Iterations <==

                        Total Energy        Delta E     RMS |[F,P]|

   @RHF iter SAD:  -235.35804608146029   -2.35358e+02   0.00000e+00
   @RHF iter   1:  -236.31440511019946   -9.56359e-01   3.51215e-03 DIIS
   @RHF iter   2:  -236.50325575098941   -1.88851e-01   1.51689e-03 DIIS
   @RHF iter   3:  -236.53647610471450   -3.32204e-02   3.10602e-04 DIIS
   @RHF iter   4:  -236.53907276056796   -2.59666e-03   6.77696e-05 DIIS
   @RHF iter   5:  -236.53915482762562   -8.20671e-05   1.58235e-05 DIIS
   @RHF iter   6:  -236.53916045002126   -5.62240e-06   2.75853e-06 DIIS
   @RHF iter   7:  -236.53916064489107   -1.94870e-07   6.57064e-07 DIIS
   @RHF iter   8:  -236.53916065806158   -1.31705e-08   1.64261e-07 DIIS
   @RHF iter   9:  -236.53916065885096   -7.89385e-10   4.81643e-08 DIIS
   @RHF iter  10:  -236.53916065892614   -7.51754e-11   1.03089e-08 DIIS
   @RHF iter  11:  -236.53916065893100   -4.86011e-12   2.01431e-09 DIIS
   @RHF iter  12:  -236.53916065893179   -7.95808e-13   3.82713e-10 DIIS
   @RHF iter  13:  -236.53916065892992    1.87583e-12   1.03680e-10 DIIS
   @RHF iter  14:  -236.53916065893091   -9.94760e-13   2.62047e-11 DIIS
  Energy and wave function converged.

  ==> Post-Iterations <==

    Orbital Energies [Eh]
    ---------------------

    Doubly Occupied:

       1A    -11.225728     2A    -11.219972     3A    -11.218002
       4A    -11.215512     5A    -11.213399     6A    -11.212814
       7A     -1.076339     8A     -1.019732     9A     -0.928823
      10A     -0.918326    11A     -0.837007    12A     -0.765692
      13A     -0.629326    14A     -0.600890    15A     -0.598550
      16A     -0.591668    17A     -0.578989    18A     -0.536165
      19A     -0.527400    20A     -0.506450    21A     -0.501167
      22A     -0.487524    23A     -0.486114    24A     -0.460828
      25A     -0.458456    26A     -0.450408

    Virtual:

      27A      0.168312    28A      0.192735    29A      0.217147
      30A      0.219591    31A      0.222788    32A      0.247308
      33A      0.249906    34A      0.262381    35A      0.266823
      36A      0.272133    37A      0.288333    38A      0.295546
      39A      0.306119    40A      0.313739    41A      0.316916
      42A      0.330148    43A      0.365540    44A      0.394642
      45A      0.405691    46A      0.424397    47A      0.561002
      48A      0.571216    49A      0.595054    50A      0.601266
      51A      0.607939    52A      0.614246    53A      0.623072
      54A      0.674691    55A      0.688424    56A      0.710478
      57A      0.767210    58A      0.776856    59A      0.791657
      60A      0.840210    61A      0.848505    62A      0.855329
      63A      0.877213    64A      0.888456    65A      0.890689
      66A      0.891857    67A      0.894797    68A      0.906916
      69A      0.910979    70A      0.914213    71A      0.917437
      72A      0.921395    73A      0.934556    74A      0.946464
      75A      0.950498    76A      0.961445    77A      0.975855
      78A      0.992593    79A      1.004516    80A      1.036235
      81A      1.122808    82A      1.128293    83A      1.133485
      84A      1.144990    85A      1.198162    86A      1.246899
      87A      1.349758    88A      1.394523    89A      1.414864
      90A      1.474347    91A      1.482359    92A      1.529041
      93A      1.581392    94A      1.590459    95A      1.635815
      96A      1.677216    97A      1.678503    98A      1.682820
      99A      1.688463   100A      1.690924   101A      1.707992
     102A      1.722298   103A      1.725285   104A      1.825287
     105A      1.831034   106A      1.860298   107A      1.865096
     108A      1.875589   109A      1.912325   110A      1.927064
     111A      1.934651   112A      1.939781   113A      1.941529
     114A      1.948717   115A      1.950230   116A      1.959600
     117A      1.963901   118A      1.979989   119A      1.991202
     120A      2.006141   121A      2.019795   122A      2.030724
     123A      2.059018   124A      2.075217   125A      2.095552
     126A      2.101399   127A      2.109387   128A      2.118101
     129A      2.148204   130A      2.240556   131A      2.264513
     132A      2.293537   133A      2.296488   134A      2.306229
     135A      2.341039   136A      2.360980   137A      2.366132
     138A      2.379573   139A      2.456486   140A      2.465597
     141A      2.486331   142A      2.553787   143A      2.569309
     144A      2.576513   145A      2.605937   146A      2.621690
     147A      2.697451   148A      2.718758   149A      2.753146
     150A      2.761727   151A      2.785828   152A      2.789306
     153A      2.795560   154A      2.798945   155A      2.834710
     156A      2.844469   157A      2.845164   158A      2.851426
     159A      2.876448   160A      2.948337   161A      2.956232
     162A      3.014496   163A      3.025836   164A      3.134568

    Final Occupation by Irrep:
              A
    DOCC [    26 ]

  @RHF Final Energy:  -236.53916065893091

   => Energetics <=

    Nuclear Repulsion Energy =            241.4560915927555982
    One-Electron Energy =                -795.4599481045094080
    Two-Electron Energy =                 317.4646958528229561
    Total Energy =                       -236.5391606589308822

Computation Completed

Properties will be evaluated at   0.000000,   0.000000,   0.000000 [a0]

Properties computed using the SCF density matrix

  Nuclear Dipole Moment: [e a0]
     X:    -0.7670      Y:    -0.9081      Z:     1.4492

  Electronic Dipole Moment: [e a0]
     X:     0.7587      Y:     0.8745      Z:    -1.4020

  Dipole Moment: [e a0]
     X:    -0.0083      Y:    -0.0336      Z:     0.0472     Total:     0.0586

  Dipole Moment: [D]
     X:    -0.0211      Y:    -0.0854      Z:     0.1201     Total:     0.1488

*** tstop() called on ds3 at Mon Apr 27 20:05:01 2020
Module time:
	user time   =      27.24 seconds =       0.45 minutes
	system time =      11.73 seconds =       0.20 minutes
	total time  =         38 seconds =       0.63 minutes
Total time:
	user time   =      27.24 seconds =       0.45 minutes
	system time =      11.73 seconds =       0.20 minutes
	total time  =         38 seconds =       0.63 minutes
                                     G D M A

                                 by Anthony Stone

                           version 2.2.06, 22 June 2011

               Distributed Multipoles from Gaussian wavefunctions

Starting at 20:5:1 on 27 Apr 2020

Using SCF density matrix from file ./SSI/SSI-170LEU-178LEU-1-dimer.test.13070.fchk

                         Distributed Multipole Analysis

Standard DMA

Positions and radii in angstrom
Multipole moments in atomic units, ea_0^k for rank k

C          x =  0.603119  y =  0.585392  z = -1.032639 angstrom
           Maximum rank =  0   Radius =  0.650 angstrom
                   Q00  =   0.013187

C          x =  2.051119  y =  1.051392  z = -1.293639 angstrom
           Maximum rank =  0   Radius =  0.650 angstrom
                   Q00  =  -0.260562

C          x = -0.383881  y =  1.737392  z = -0.738639 angstrom
           Maximum rank =  0   Radius =  0.650 angstrom
                   Q00  =  -0.250507

C          x =  0.188119  y = -0.159608  z = -2.313639 angstrom
           Maximum rank =  0   Radius =  0.650 angstrom
                   Q00  =  -0.245399

H          x =  0.623119  y = -0.096608  z = -0.183639 angstrom
           Maximum rank =  0   Radius =  0.325 angstrom
                   Q00  =   0.027734

H          x =  2.060119  y =  1.717392  z = -2.156639 angstrom
           Maximum rank =  0   Radius =  0.325 angstrom
                   Q00  =   0.071856

H          x =  2.666119  y =  0.179392  z = -1.515639 angstrom
           Maximum rank =  0   Radius =  0.325 angstrom
                   Q00  =   0.078795

H          x = -0.418881  y =  2.420392  z = -1.587639 angstrom
           Maximum rank =  0   Radius =  0.325 angstrom
                   Q00  =   0.078605

H          x = -1.382881  y =  1.334392  z = -0.562639 angstrom
           Maximum rank =  0   Radius =  0.325 angstrom
                   Q00  =   0.083886

H          x = -0.060881  y =  2.284392  z =  0.148361 angstrom
           Maximum rank =  0   Radius =  0.325 angstrom
                   Q00  =   0.083115

H          x =  0.857119  y = -1.005608  z = -2.480639 angstrom
           Maximum rank =  0   Radius =  0.325 angstrom
                   Q00  =   0.079979

H          x = -0.829881  y = -0.524608  z = -2.213639 angstrom
           Maximum rank =  0   Radius =  0.325 angstrom
                   Q00  =   0.079031

H          x =  0.245119  y =  0.516392  z = -3.167639 angstrom
           Maximum rank =  0   Radius =  0.325 angstrom
                   Q00  =   0.077158

H          x =  2.573629  y =  1.601782  z = -0.497359 angstrom
           Maximum rank =  0   Radius =  0.325 angstrom
                   Q00  =   0.080855

C          x = -0.919881  y = -1.320608  z =  1.955361 angstrom
           Maximum rank =  0   Radius =  0.650 angstrom
                   Q00  =  -0.240599

C          x = -1.469881  y = -1.812608  z =  3.293361 angstrom
           Maximum rank =  0   Radius =  0.650 angstrom
                   Q00  =  -0.233040

H          x = -1.454881  y = -1.806608  z =  1.139361 angstrom
           Maximum rank =  0   Radius =  0.325 angstrom
                   Q00  =   0.079397

H          x = -1.048881  y = -0.240608  z =  1.880361 angstrom
           Maximum rank =  0   Radius =  0.325 angstrom
                   Q00  =   0.079750

H          x =  0.140119  y = -1.562608  z =  1.883361 angstrom
           Maximum rank =  0   Radius =  0.325 angstrom
                   Q00  =   0.077801

H          x = -0.924881  y = -1.322608  z =  4.101361 angstrom
           Maximum rank =  0   Radius =  0.325 angstrom
                   Q00  =   0.079239

H          x = -1.326841  y = -2.901428  z =  3.356701 angstrom
           Maximum rank =  0   Radius =  0.325 angstrom
                   Q00  =   0.078993

H          x = -2.535471  y = -1.562088  z =  3.401851 angstrom
           Maximum rank =  0   Radius =  0.325 angstrom
                   Q00  =   0.080725

Total multipoles referred to origin at
           x =   0.000000,  y =    0.000000,  z =    0.000000 angstrom
                   Q00  =  -0.000000

Finished at 20:5:1 on 27 Apr 2020

  DMA results are available in the Python driver through the
	  variable('DMA DISTRIBUTED MULTIPOLES')
  and
	  variable('DMA TOTAL MULTIPOLES')
  commands.

    Psi4 stopped on: Monday, 27 April 2020 08:05PM
    Psi4 wall time for execution: 0:00:37.99

*** Psi4 exiting successfully. Buy a developer a beer!
