                               Psi4 1.3.2 release

  ==> Input File <==

--------------------------------------------------------------------------
import numpy as np
set {scf_type pk
basis cc-pvdz
d_convergence 10
gdma_switch   0
gdma_limit    0
gdma_origin   [ 0.0,  0.0,  0.0 ]
}
molecule test {
    units Angstrom
    -1 1
    --
    -1 1
    C                1.085407757557358    -2.693756569044058     1.885511612265598
    C                0.665407757557357    -1.491756569044057     1.009511612265598
    O               -0.446592242442642    -1.488756569044057     0.461511612265597
    N                1.531407757557358    -0.463756569044057     0.867511612265597
    H                1.221407757557358     0.337243430955943     0.309511612265598
    H                2.441407757557358    -0.486756569044057     1.300511612265598
    H                1.914407757557357    -2.398756569044058     2.529511612265597
    H                1.455407757557358    -3.475756569044057     1.222511612265598
    H                0.275657757557358    -3.110644569044057     2.502361612265598
    C               -1.722592242442643     1.587243430955943     0.032511612265598
    C               -0.664592242442642     1.515243430955943    -1.096488387734402
    O                0.540407757557358     1.474243430955943    -0.871488387734402
    O               -1.037592242442642     1.503243430955943    -2.273488387734403
    H               -2.386592242442642     0.723243430955943    -0.040488387734402
    H               -2.321592242442642     2.480243430955943    -0.146488387734402
    H               -1.322462242442642     1.642958430955943     1.055641612265598

}
e, wfn = energy('scf', return_wfn=True)
gdma(wfn)
dmavals = variable('DMA DISTRIBUTED MULTIPOLES')
charges = np.array(dmavals)
print(charges)
np.save('SSI-109GLN-161GLU-2-dimer.npy', np.array(charges))--------------------------------------------------------------------------

*** tstart() called on ds3
*** at Tue Apr 28 10:38:02 2020

   => Loading Basis Set <=

    Name: CC-PVDZ
    Role: ORBITAL
    Keyword: BASIS
    atoms 1-2, 10-11 entry C          line   138 file /theoryfs2/ds/metcalf/miniconda2/envs/tf2gpu/share/psi4/basis/cc-pvdz.gbs
    atoms 3, 12-13   entry O          line   198 file /theoryfs2/ds/metcalf/miniconda2/envs/tf2gpu/share/psi4/basis/cc-pvdz.gbs
    atoms 4          entry N          line   168 file /theoryfs2/ds/metcalf/miniconda2/envs/tf2gpu/share/psi4/basis/cc-pvdz.gbs
    atoms 5-9, 14-16 entry H          line    22 file /theoryfs2/ds/metcalf/miniconda2/envs/tf2gpu/share/psi4/basis/cc-pvdz.gbs

         ---------------------------------------------------------
                                   SCF
               by Justin Turney, Rob Parrish, Andy Simmonett
                          and Daniel G. A. Smith
                              RHF Reference
                        1 Threads,    500 MiB Core
         ---------------------------------------------------------

  ==> Geometry <==

    Molecular point group: c1
    Full point group: C1

    Geometry (in Angstrom), charge = -1, multiplicity = 1:

       Center              X                  Y                   Z               Mass
    ------------   -----------------  -----------------  -----------------  -----------------
         C            1.085407757557    -2.693756569044     1.885511612266    12.000000000000
         C            0.665407757557    -1.491756569044     1.009511612266    12.000000000000
         O           -0.446592242443    -1.488756569044     0.461511612266    15.994914619570
         N            1.531407757557    -0.463756569044     0.867511612266    14.003074004430
         H            1.221407757557     0.337243430956     0.309511612266     1.007825032230
         H            2.441407757557    -0.486756569044     1.300511612266     1.007825032230
         H            1.914407757557    -2.398756569044     2.529511612266     1.007825032230
         H            1.455407757557    -3.475756569044     1.222511612266     1.007825032230
         H            0.275657757557    -3.110644569044     2.502361612266     1.007825032230
         C           -1.722592242443     1.587243430956     0.032511612266    12.000000000000
         C           -0.664592242443     1.515243430956    -1.096488387734    12.000000000000
         O            0.540407757557     1.474243430956    -0.871488387734    15.994914619570
         O           -1.037592242443     1.503243430956    -2.273488387734    15.994914619570
         H           -2.386592242443     0.723243430956    -0.040488387734     1.007825032230
         H           -2.321592242443     2.480243430956    -0.146488387734     1.007825032230
         H           -1.322462242443     1.642958430956     1.055641612266     1.007825032230

  Running in c1 symmetry.

  Rotational constants: A =      0.13836  B =      0.02923  C =      0.02727 [cm^-1]
  Rotational constants: A =   4148.06162  B =    876.21796  C =    817.50384 [MHz]
  Nuclear repulsion =  363.062990699486363

  Charge       = -1
  Multiplicity = 1
  Electrons    = 64
  Nalpha       = 32
  Nbeta        = 32

  ==> Algorithm <==

  SCF Algorithm Type is PK.
  DIIS enabled.
  MOM disabled.
  Fractional occupation disabled.
  Guess Type is SAD.
  Energy threshold   = 1.00e-06
  Density threshold  = 1.00e-10
  Integral threshold = 0.00e+00

  ==> Primary Basis <==

  Basis Set: CC-PVDZ
    Blend: CC-PVDZ
    Number of shells: 72
    Number of basis function: 152
    Number of Cartesian functions: 160
    Spherical Harmonics?: true
    Max angular momentum: 2

  ==> Pre-Iterations <==

   -------------------------------------------------------
    Irrep   Nso     Nmo     Nalpha   Nbeta   Ndocc  Nsocc
   -------------------------------------------------------
     A        152     152       0       0       0       0
   -------------------------------------------------------
    Total     152     152      32      32      32       0
   -------------------------------------------------------

  ==> Integral Setup <==

  Using integral reordering PK algorithm.
  Sizing the integral batches needed.
  Building batch lookup table.
   Calculation information:
      Number of atoms:                  16
      Number of AO shells:              72
      Number of primitives:            216
      Number of atomic orbitals:       160
      Number of basis functions:       152

      Integral cutoff                 1.00e-12
      Number of threads:                 1

	Batch   1 pq = [       0,    9405] index = [             0,44231715] size =     44231715
	Batch   2 pq = [    9405,   11628] index = [      44231715,67611006] size =     23379291
  Task number: 7
  Buffer size: 11059200
  Buffer per thread: 2
  We computed 2905347 shell quartets total.
  Whereas there are 3454506 unique shell quartets.

  ==> DiskJK: Disk-Based J/K Matrices <==

    J tasked:                  Yes
    K tasked:                  Yes
    wK tasked:                  No
    Memory [MiB]:              375
    Schwarz Cutoff:          1E-12

    OpenMP threads:              1

  Minimum eigenvalue in the overlap matrix is 4.9425138662E-03.
  Using Symmetric Orthogonalization.

  SCF Guess: Superposition of Atomic Densities via on-the-fly atomic UHF.

  ==> Iterations <==

                        Total Energy        Delta E     RMS |[F,P]|

   @RHF iter SAD:  -433.42624021238856   -4.33426e+02   0.00000e+00
   @RHF iter   1:  -434.91612586536655   -1.48989e+00   5.46529e-03 DIIS
   @RHF iter   2:  -435.14951166354035   -2.33386e-01   3.26264e-03 DIIS
   @RHF iter   3:  -435.23547259090753   -8.59609e-02   5.07052e-04 DIIS
   @RHF iter   4:  -435.23893568939081   -3.46310e-03   2.04777e-04 DIIS
   @RHF iter   5:  -435.23956994307878   -6.34254e-04   4.51380e-05 DIIS
   @RHF iter   6:  -435.23960625671981   -3.63136e-05   2.04323e-05 DIIS
   @RHF iter   7:  -435.23961472066139   -8.46394e-06   6.32261e-06 DIIS
   @RHF iter   8:  -435.23961613657832   -1.41592e-06   2.64007e-06 DIIS
   @RHF iter   9:  -435.23961636174266   -2.25164e-07   1.03385e-06 DIIS
   @RHF iter  10:  -435.23961639213343   -3.03908e-08   2.36810e-07 DIIS
   @RHF iter  11:  -435.23961639362039   -1.48697e-09   8.37366e-08 DIIS
   @RHF iter  12:  -435.23961639372948   -1.09083e-10   3.48347e-08 DIIS
   @RHF iter  13:  -435.23961639375329   -2.38174e-11   7.79134e-09 DIIS
   @RHF iter  14:  -435.23961639375449   -1.19371e-12   3.01195e-09 DIIS
   @RHF iter  15:  -435.23961639375437    1.13687e-13   9.04451e-10 DIIS
   @RHF iter  16:  -435.23961639375506   -6.82121e-13   3.52488e-10 DIIS
   @RHF iter  17:  -435.23961639375432    7.38964e-13   1.28802e-10 DIIS
   @RHF iter  18:  -435.23961639375494   -6.25278e-13   5.49923e-11 DIIS
  Energy and wave function converged.

  ==> Post-Iterations <==

    Orbital Energies [Eh]
    ---------------------

    Doubly Occupied:

       1A    -20.368978     2A    -20.265573     3A    -20.248508
       4A    -15.428777     5A    -11.220333     6A    -11.137671
       7A    -11.115095     8A    -11.046491     9A     -1.221143
      10A     -1.169558    11A     -1.057111    12A     -1.038900
      13A     -0.879397    14A     -0.787437    15A     -0.651024
      16A     -0.576156    17A     -0.521340    18A     -0.497638
      19A     -0.488537    20A     -0.450998    21A     -0.436032
      22A     -0.409479    23A     -0.401531    24A     -0.400542
      25A     -0.386351    26A     -0.344046    27A     -0.312875
      28A     -0.273073    29A     -0.253965    30A     -0.191538
      31A     -0.166186    32A     -0.163230

    Virtual:

      33A      0.278849    34A      0.314114    35A      0.327301
      36A      0.365593    37A      0.368384    38A      0.388653
      39A      0.408882    40A      0.422297    41A      0.471319
      42A      0.493693    43A      0.543968    44A      0.581730
      45A      0.595399    46A      0.687425    47A      0.696538
      48A      0.736323    49A      0.742169    50A      0.779896
      51A      0.817958    52A      0.829221    53A      0.850526
      54A      0.874872    55A      0.894570    56A      0.908352
      57A      0.949264    58A      0.964409    59A      0.967878
      60A      0.970671    61A      0.994469    62A      1.025270
      63A      1.045226    64A      1.065812    65A      1.074349
      66A      1.077902    67A      1.091830    68A      1.125868
      69A      1.149373    70A      1.177215    71A      1.224853
      72A      1.245705    73A      1.268127    74A      1.285671
      75A      1.343162    76A      1.357725    77A      1.425287
      78A      1.466342    79A      1.486000    80A      1.502490
      81A      1.530748    82A      1.555555    83A      1.567150
      84A      1.586216    85A      1.593550    86A      1.615402
      87A      1.620469    88A      1.655962    89A      1.679719
      90A      1.736243    91A      1.740665    92A      1.766719
      93A      1.801123    94A      1.843958    95A      1.865901
      96A      1.886435    97A      1.970513    98A      1.979189
      99A      1.981961   100A      2.019800   101A      2.036445
     102A      2.055348   103A      2.081811   104A      2.085946
     105A      2.119559   106A      2.133809   107A      2.160229
     108A      2.175214   109A      2.227142   110A      2.263909
     111A      2.274503   112A      2.281534   113A      2.314349
     114A      2.336014   115A      2.396403   116A      2.414559
     117A      2.439034   118A      2.546567   119A      2.574266
     120A      2.578222   121A      2.619343   122A      2.655230
     123A      2.688315   124A      2.712125   125A      2.741536
     126A      2.782329   127A      2.821475   128A      2.855989
     129A      2.884303   130A      2.907021   131A      2.925931
     132A      2.975396   133A      2.987721   134A      3.031705
     135A      3.096662   136A      3.209385   137A      3.260468
     138A      3.278586   139A      3.298111   140A      3.330501
     141A      3.372905   142A      3.459386   143A      3.609458
     144A      3.638927   145A      3.739572   146A      3.767837
     147A      3.817739   148A      3.976026   149A      4.038506
     150A      4.093653   151A      4.132901   152A      4.242280

    Final Occupation by Irrep:
              A
    DOCC [    32 ]

  @RHF Final Energy:  -435.23961639375494

   => Energetics <=

    Nuclear Repulsion Energy =            363.0629906994863632
    One-Electron Energy =               -1328.7861940617087839
    Two-Electron Energy =                 530.4835869684675345
    Total Energy =                       -435.2396163937548863

Computation Completed

Properties will be evaluated at   0.000000,   0.000000,   0.000000 [a0]

Properties computed using the SCF density matrix

  Nuclear Dipole Moment: [e a0]
     X:     1.1888      Y:    -4.0116      Z:     8.1716

  Electronic Dipole Moment: [e a0]
     X:     0.3146      Y:     1.9862      Z:    -4.9183

  Dipole Moment: [e a0]
     X:     1.5034      Y:    -2.0254      Z:     3.2532     Total:     4.1165

  Dipole Moment: [D]
     X:     3.8213      Y:    -5.1479      Z:     8.2689     Total:    10.4632

*** tstop() called on ds3 at Tue Apr 28 10:38:37 2020
Module time:
	user time   =      24.59 seconds =       0.41 minutes
	system time =      10.51 seconds =       0.18 minutes
	total time  =         35 seconds =       0.58 minutes
Total time:
	user time   =      24.59 seconds =       0.41 minutes
	system time =      10.51 seconds =       0.18 minutes
	total time  =         35 seconds =       0.58 minutes
                                     G D M A

                                 by Anthony Stone

                           version 2.2.06, 22 June 2011

               Distributed Multipoles from Gaussian wavefunctions

Starting at 10:38:37 on 28 Apr 2020

Using SCF density matrix from file ./SSI/SSI-109GLN-161GLU-2-dimer.test.5567.fchk

                         Distributed Multipole Analysis

Standard DMA

Positions and radii in angstrom
Multipole moments in atomic units, ea_0^k for rank k

C          x =  1.085408  y = -2.693757  z =  1.885512 angstrom
           Maximum rank =  0   Radius =  0.650 angstrom
                   Q00  =  -0.261292

C          x =  0.665408  y = -1.491757  z =  1.009512 angstrom
           Maximum rank =  0   Radius =  0.650 angstrom
                   Q00  =   0.807519

O          x = -0.446592  y = -1.488757  z =  0.461512 angstrom
           Maximum rank =  0   Radius =  0.650 angstrom
                   Q00  =  -0.779609

N          x =  1.531408  y = -0.463757  z =  0.867512 angstrom
           Maximum rank =  0   Radius =  0.650 angstrom
                   Q00  =  -0.572848

H          x =  1.221408  y =  0.337243  z =  0.309512 angstrom
           Maximum rank =  0   Radius =  0.325 angstrom
                   Q00  =   0.347212

H          x =  2.441408  y = -0.486757  z =  1.300512 angstrom
           Maximum rank =  0   Radius =  0.325 angstrom
                   Q00  =   0.160107

H          x =  1.914408  y = -2.398757  z =  2.529512 angstrom
           Maximum rank =  0   Radius =  0.325 angstrom
                   Q00  =   0.059453

H          x =  1.455408  y = -3.475757  z =  1.222512 angstrom
           Maximum rank =  0   Radius =  0.325 angstrom
                   Q00  =   0.112928

H          x =  0.275658  y = -3.110645  z =  2.502362 angstrom
           Maximum rank =  0   Radius =  0.325 angstrom
                   Q00  =   0.110990

C          x = -1.722592  y =  1.587243  z =  0.032512 angstrom
           Maximum rank =  0   Radius =  0.650 angstrom
                   Q00  =  -0.294006

C          x = -0.664592  y =  1.515243  z = -1.096488 angstrom
           Maximum rank =  0   Radius =  0.650 angstrom
                   Q00  =   0.962079

O          x =  0.540408  y =  1.474243  z = -0.871488 angstrom
           Maximum rank =  0   Radius =  0.650 angstrom
                   Q00  =  -0.950758

O          x = -1.037592  y =  1.503243  z = -2.273488 angstrom
           Maximum rank =  0   Radius =  0.650 angstrom
                   Q00  =  -0.913907

H          x = -2.386592  y =  0.723243  z = -0.040488 angstrom
           Maximum rank =  0   Radius =  0.325 angstrom
                   Q00  =   0.101624

H          x = -2.321592  y =  2.480243  z = -0.146488 angstrom
           Maximum rank =  0   Radius =  0.325 angstrom
                   Q00  =   0.060200

H          x = -1.322462  y =  1.642958  z =  1.055642 angstrom
           Maximum rank =  0   Radius =  0.325 angstrom
                   Q00  =   0.050309

Total multipoles referred to origin at
           x =   0.000000,  y =    0.000000,  z =    0.000000 angstrom
                   Q00  =  -1.000000

Finished at 10:38:37 on 28 Apr 2020

  DMA results are available in the Python driver through the
	  variable('DMA DISTRIBUTED MULTIPOLES')
  and
	  variable('DMA TOTAL MULTIPOLES')
  commands.

    Psi4 stopped on: Tuesday, 28 April 2020 10:38AM
    Psi4 wall time for execution: 0:00:34.95

*** Psi4 exiting successfully. Buy a developer a beer!
