                               Psi4 1.3.2 release

  ==> Input File <==

--------------------------------------------------------------------------
import numpy as np
set {scf_type pk
basis cc-pvdz
d_convergence 10
gdma_switch   0
gdma_limit    0
gdma_origin   [ 0.0,  0.0,  0.0 ]
}
molecule test {
    units Angstrom
    0 1
    --
    0 1
    C                1.256102392401875     2.801490067709956     1.164970600305162
    C               -1.394897607598125     1.031490067709956    -0.918029399694838
    C               -1.874897607598125     2.094490067709956    -1.731029399694838
    C               -0.398897607598125     1.270490067709956     0.016970600305162
    C                0.142102392401875     2.554490067709956     0.168970600305162
    C               -1.351897607598125     3.380490067709956    -1.560029399694838
    C               -0.337897607598125     3.593490067709955    -0.638029399694838
    H               -1.755897607598125     0.025490067709956    -1.069029399694838
    H               -2.518897607598125     1.927490067709956    -2.570029399694838
    H               -0.027897607598125     0.459490067709956     0.618970600305162
    H               -1.705897607598124     4.192490067709956    -2.146029399694837
    H                1.890102392401875     3.596490067709956     0.772970600305162
    H                1.864102392401875     1.898490067709956     1.234970600305162
    H                0.075102392401875     4.584490067709956    -0.536029399694838
    H                0.914712392401875     3.075896067709956     2.174010600305162
    C                2.989102392401875    -1.225509932290044     1.636970600305162
    C               -0.721897607598125    -2.436509932290045    -0.196029399694838
    C               -0.642897607598125    -2.258509932290044     1.184970600305162
    C                0.395102392401875    -2.223509932290045    -1.002029399694838
    C                0.557102392401875    -1.858509932290044     1.756970600305162
    C                1.598102392401875    -1.832509932290044    -0.400029399694838
    C                1.689102392401875    -1.639509932290044     0.978970600305162
    O               -1.928897607598124    -2.784509932290044    -0.690029399694838
    H               -1.499897607598125    -2.442509932290045     1.802970600305162
    H               -2.584897607598124    -2.852509932290044     0.002970600305162
    H                0.314102392401875    -2.344509932290045    -2.070029399694838
    H                0.608102392401875    -1.715509932290044     2.826970600305163
    H                2.470102392401876    -1.667509932290044    -1.019029399694838
    H                2.745102392401875    -0.439509932290044     2.348970600305162
    H                3.654102392401875    -0.787509932290044     0.890970600305162
    H                3.507002392401875    -2.037914932290045     2.167800600305162

}
e, wfn = energy('scf', return_wfn=True)
gdma(wfn)
dmavals = variable('DMA DISTRIBUTED MULTIPOLES')
charges = np.array(dmavals)
print(charges)
np.save('SSI-058PHE-062TYR-1-dimer.npy', np.array(charges))--------------------------------------------------------------------------

*** tstart() called on ds3
*** at Mon Apr 27 20:14:31 2020

   => Loading Basis Set <=

    Name: CC-PVDZ
    Role: ORBITAL
    Keyword: BASIS
    atoms 1-7, 16-22  entry C          line   138 file /theoryfs2/ds/metcalf/miniconda2/envs/tf2gpu/share/psi4/basis/cc-pvdz.gbs
    atoms 8-15, 24-31 entry H          line    22 file /theoryfs2/ds/metcalf/miniconda2/envs/tf2gpu/share/psi4/basis/cc-pvdz.gbs
    atoms 23          entry O          line   198 file /theoryfs2/ds/metcalf/miniconda2/envs/tf2gpu/share/psi4/basis/cc-pvdz.gbs

         ---------------------------------------------------------
                                   SCF
               by Justin Turney, Rob Parrish, Andy Simmonett
                          and Daniel G. A. Smith
                              RHF Reference
                        1 Threads,    500 MiB Core
         ---------------------------------------------------------

  ==> Geometry <==

    Molecular point group: c1
    Full point group: C1

    Geometry (in Angstrom), charge = 0, multiplicity = 1:

       Center              X                  Y                   Z               Mass
    ------------   -----------------  -----------------  -----------------  -----------------
         C            1.256102392402     2.801490067710     1.164970600305    12.000000000000
         C           -1.394897607598     1.031490067710    -0.918029399695    12.000000000000
         C           -1.874897607598     2.094490067710    -1.731029399695    12.000000000000
         C           -0.398897607598     1.270490067710     0.016970600305    12.000000000000
         C            0.142102392402     2.554490067710     0.168970600305    12.000000000000
         C           -1.351897607598     3.380490067710    -1.560029399695    12.000000000000
         C           -0.337897607598     3.593490067710    -0.638029399695    12.000000000000
         H           -1.755897607598     0.025490067710    -1.069029399695     1.007825032230
         H           -2.518897607598     1.927490067710    -2.570029399695     1.007825032230
         H           -0.027897607598     0.459490067710     0.618970600305     1.007825032230
         H           -1.705897607598     4.192490067710    -2.146029399695     1.007825032230
         H            1.890102392402     3.596490067710     0.772970600305     1.007825032230
         H            1.864102392402     1.898490067710     1.234970600305     1.007825032230
         H            0.075102392402     4.584490067710    -0.536029399695     1.007825032230
         H            0.914712392402     3.075896067710     2.174010600305     1.007825032230
         C            2.989102392402    -1.225509932290     1.636970600305    12.000000000000
         C           -0.721897607598    -2.436509932290    -0.196029399695    12.000000000000
         C           -0.642897607598    -2.258509932290     1.184970600305    12.000000000000
         C            0.395102392402    -2.223509932290    -1.002029399695    12.000000000000
         C            0.557102392402    -1.858509932290     1.756970600305    12.000000000000
         C            1.598102392402    -1.832509932290    -0.400029399695    12.000000000000
         C            1.689102392402    -1.639509932290     0.978970600305    12.000000000000
         O           -1.928897607598    -2.784509932290    -0.690029399695    15.994914619570
         H           -1.499897607598    -2.442509932290     1.802970600305     1.007825032230
         H           -2.584897607598    -2.852509932290     0.002970600305     1.007825032230
         H            0.314102392402    -2.344509932290    -2.070029399695     1.007825032230
         H            0.608102392402    -1.715509932290     2.826970600305     1.007825032230
         H            2.470102392402    -1.667509932290    -1.019029399695     1.007825032230
         H            2.745102392402    -0.439509932290     2.348970600305     1.007825032230
         H            3.654102392402    -0.787509932290     0.890970600305     1.007825032230
         H            3.507002392402    -2.037914932290     2.167800600305     1.007825032230

  Running in c1 symmetry.

  Rotational constants: A =      0.02668  B =      0.01337  C =      0.01001 [cm^-1]
  Rotational constants: A =    799.83694  B =    400.83546  C =    299.95249 [MHz]
  Nuclear repulsion =  916.535975441146320

  Charge       = 0
  Multiplicity = 1
  Electrons    = 108
  Nalpha       = 54
  Nbeta        = 54

  ==> Algorithm <==

  SCF Algorithm Type is PK.
  DIIS enabled.
  MOM disabled.
  Fractional occupation disabled.
  Guess Type is SAD.
  Energy threshold   = 1.00e-06
  Density threshold  = 1.00e-10
  Integral threshold = 0.00e+00

  ==> Primary Basis <==

  Basis Set: CC-PVDZ
    Blend: CC-PVDZ
    Number of shells: 138
    Number of basis function: 290
    Number of Cartesian functions: 305
    Spherical Harmonics?: true
    Max angular momentum: 2

  ==> Pre-Iterations <==

   -------------------------------------------------------
    Irrep   Nso     Nmo     Nalpha   Nbeta   Ndocc  Nsocc
   -------------------------------------------------------
     A        290     290       0       0       0       0
   -------------------------------------------------------
    Total     290     290      54      54      54       0
   -------------------------------------------------------

  ==> Integral Setup <==

  Using integral reordering PK algorithm.
  Sizing the integral batches needed.
  Building batch lookup table.
   Calculation information:
      Number of atoms:                  31
      Number of AO shells:             138
      Number of primitives:            410
      Number of atomic orbitals:       305
      Number of basis functions:       290

      Integral cutoff                 1.00e-12
      Number of threads:                 1

	Batch   1 pq = [       0,    9405] index = [             0,44231715] size =     44231715
	Batch   2 pq = [    9405,   13301] index = [      44231715,88464951] size =     44233236
	Batch   3 pq = [   13301,   16290] index = [      88464951,132690195] size =     44225244
	Batch   4 pq = [   16290,   18810] index = [     132690195,176917455] size =     44227260
	Batch   5 pq = [   18810,   21030] index = [     176917455,221140965] size =     44223510
	Batch   6 pq = [   21030,   23037] index = [     221140965,265363203] size =     44222238
	Batch   7 pq = [   23037,   24883] index = [     265363203,309594286] size =     44231083
	Batch   8 pq = [   24883,   26601] index = [     309594286,353819901] size =     44225615
	Batch   9 pq = [   26601,   28214] index = [     353819901,398029005] size =     44209104
	Batch  10 pq = [   28214,   29740] index = [     398029005,442248670] size =     44219665
	Batch  11 pq = [   29740,   31191] index = [     442248670,486454836] size =     44206166
	Batch  12 pq = [   31191,   32578] index = [     486454836,530679331] size =     44224495
	Batch  13 pq = [   32578,   33908] index = [     530679331,574893186] size =     44213855
	Batch  14 pq = [   33908,   35188] index = [     574893186,619115266] size =     44222080
	Batch  15 pq = [   35188,   36423] index = [     619115266,663335676] size =     44220410
	Batch  16 pq = [   36423,   37617] index = [     663335676,707538153] size =     44202477
	Batch  17 pq = [   37617,   38775] index = [     707538153,751769700] size =     44231547
	Batch  18 pq = [   38775,   39899] index = [     751769700,795985050] size =     44215350
	Batch  19 pq = [   39899,   40992] index = [     795985050,840192528] size =     44207478
	Batch  20 pq = [   40992,   42057] index = [     840192528,884416653] size =     44224125
	Batch  21 pq = [   42057,   42195] index = [     884416653,890230110] size =      5813457
  Task number: 81
  Buffer size: 11059200
  Buffer per thread: 2
  We computed 50624780 shell quartets total.
  Whereas there are 45998436 unique shell quartets.
    10.06 percent of shell quartets recomputed by reordering.

  ==> DiskJK: Disk-Based J/K Matrices <==

    J tasked:                  Yes
    K tasked:                  Yes
    wK tasked:                  No
    Memory [MiB]:              375
    Schwarz Cutoff:          1E-12

    OpenMP threads:              1

  Minimum eigenvalue in the overlap matrix is 2.8973027216E-04.
  Using Symmetric Orthogonalization.

  SCF Guess: Superposition of Atomic Densities via on-the-fly atomic UHF.

  ==> Iterations <==

                        Total Energy        Delta E     RMS |[F,P]|

   @RHF iter SAD:  -613.20944757952202   -6.13209e+02   0.00000e+00
   @RHF iter   1:  -614.06094082957839   -8.51493e-01   2.35192e-03 DIIS
   @RHF iter   2:  -614.33309203122235   -2.72151e-01   9.60284e-04 DIIS
   @RHF iter   3:  -614.37271445846091   -3.96224e-02   2.34406e-04 DIIS
   @RHF iter   4:  -614.37623667913579   -3.52222e-03   9.49135e-05 DIIS
   @RHF iter   5:  -614.37667937109268   -4.42692e-04   1.74957e-05 DIIS
   @RHF iter   6:  -614.37670113265779   -2.17616e-05   5.71719e-06 DIIS
   @RHF iter   7:  -614.37670359011986   -2.45746e-06   1.86766e-06 DIIS
   @RHF iter   8:  -614.37670396586429   -3.75744e-07   7.46945e-07 DIIS
   @RHF iter   9:  -614.37670404244636   -7.65821e-08   3.41262e-07 DIIS
   @RHF iter  10:  -614.37670406154109   -1.90947e-08   1.50186e-07 DIIS
   @RHF iter  11:  -614.37670406714165   -5.60055e-09   5.85211e-08 DIIS
   @RHF iter  12:  -614.37670406788891   -7.47264e-10   2.76369e-08 DIIS
   @RHF iter  13:  -614.37670406799873   -1.09821e-10   6.50001e-09 DIIS
   @RHF iter  14:  -614.37670406800646   -7.73070e-12   1.86645e-09 DIIS
   @RHF iter  15:  -614.37670406800214    4.32010e-12   6.82529e-10 DIIS
   @RHF iter  16:  -614.37670406800351   -1.36424e-12   2.85474e-10 DIIS
   @RHF iter  17:  -614.37670406800203    1.47793e-12   1.43040e-10 DIIS
   @RHF iter  18:  -614.37670406800601   -3.97904e-12   6.55602e-11 DIIS
  Energy and wave function converged.

  ==> Post-Iterations <==

    Orbital Energies [Eh]
    ---------------------

    Doubly Occupied:

       1A    -20.588684     2A    -11.304266     3A    -11.243956
       4A    -11.241835     5A    -11.236907     6A    -11.235932
       7A    -11.235352     8A    -11.233440     9A    -11.232099
      10A    -11.227077    11A    -11.225783    12A    -11.224807
      13A    -11.224556    14A    -11.221812    15A    -11.217773
      16A     -1.413434    17A     -1.154897    18A     -1.139097
      19A     -1.040300    20A     -1.031310    21A     -1.022218
      22A     -1.003227    23A     -0.930097    24A     -0.922116
      25A     -0.850128    26A     -0.812482    27A     -0.808940
      28A     -0.789748    29A     -0.739395    30A     -0.682086
      31A     -0.675397    32A     -0.647606    33A     -0.624755
      34A     -0.619500    35A     -0.610994    36A     -0.599014
      37A     -0.591859    38A     -0.576431    39A     -0.571494
      40A     -0.570706    41A     -0.568523    42A     -0.552637
      43A     -0.530480    44A     -0.528196    45A     -0.501836
      46A     -0.488209    47A     -0.481714    48A     -0.476675
      49A     -0.472474    50A     -0.461261    51A     -0.345426
      52A     -0.321520    53A     -0.309638    54A     -0.305433

    Virtual:

      55A      0.122160    56A      0.144669    57A      0.147951
      58A      0.152640    59A      0.172429    60A      0.174070
      61A      0.200730    62A      0.207368    63A      0.217611
      64A      0.224001    65A      0.241201    66A      0.253499
      67A      0.262673    68A      0.264985    69A      0.268106
      70A      0.281539    71A      0.288172    72A      0.298737
      73A      0.317994    74A      0.327089    75A      0.365397
      76A      0.367642    77A      0.375095    78A      0.382768
      79A      0.432843    80A      0.454220    81A      0.458320
      82A      0.466172    83A      0.477960    84A      0.484083
      85A      0.492807    86A      0.501095    87A      0.520759
      88A      0.562804    89A      0.603480    90A      0.609928
      91A      0.630783    92A      0.650255    93A      0.654304
      94A      0.666358    95A      0.673476    96A      0.675959
      97A      0.684473    98A      0.698848    99A      0.708824
     100A      0.712306   101A      0.717022   102A      0.725899
     103A      0.731959   104A      0.736479   105A      0.746549
     106A      0.752923   107A      0.756651   108A      0.760107
     109A      0.768770   110A      0.781605   111A      0.788711
     112A      0.793580   113A      0.811505   114A      0.819436
     115A      0.831699   116A      0.842029   117A      0.853582
     118A      0.870171   119A      0.872601   120A      0.876002
     121A      0.879573   122A      0.883768   123A      0.889225
     124A      0.892308   125A      0.896614   126A      0.902425
     127A      0.909709   128A      0.922366   129A      0.932828
     130A      0.939557   131A      0.942871   132A      0.950204
     133A      0.961110   134A      0.966790   135A      0.985894
     136A      0.999499   137A      1.010021   138A      1.019658
     139A      1.043862   140A      1.047383   141A      1.066579
     142A      1.113131   143A      1.119265   144A      1.128959
     145A      1.134464   146A      1.142848   147A      1.164196
     148A      1.175334   149A      1.178141   150A      1.194658
     151A      1.217521   152A      1.229481   153A      1.232784
     154A      1.244951   155A      1.253213   156A      1.257121
     157A      1.275635   158A      1.278080   159A      1.287646
     160A      1.290977   161A      1.303819   162A      1.308832
     163A      1.319703   164A      1.330626   165A      1.340315
     166A      1.346590   167A      1.361256   168A      1.368291
     169A      1.384937   170A      1.429936   171A      1.459707
     172A      1.496131   173A      1.502074   174A      1.522076
     175A      1.539454   176A      1.541244   177A      1.566564
     178A      1.586352   179A      1.614323   180A      1.629137
     181A      1.652103   182A      1.681027   183A      1.689718
     184A      1.704243   185A      1.712260   186A      1.729266
     187A      1.741015   188A      1.748980   189A      1.752643
     190A      1.759305   191A      1.779669   192A      1.794780
     193A      1.809486   194A      1.814367   195A      1.821253
     196A      1.847673   197A      1.862442   198A      1.887771
     199A      1.891681   200A      1.892336   201A      1.909756
     202A      1.914428   203A      1.917429   204A      1.920491
     205A      1.932756   206A      1.935717   207A      1.943477
     208A      1.950690   209A      1.954597   210A      1.960947
     211A      1.967225   212A      1.982410   213A      1.992769
     214A      1.997990   215A      2.009736   216A      2.019072
     217A      2.029146   218A      2.050676   219A      2.055528
     220A      2.059411   221A      2.071406   222A      2.072837
     223A      2.082886   224A      2.094021   225A      2.123116
     226A      2.128900   227A      2.142169   228A      2.154054
     229A      2.163309   230A      2.167903   231A      2.172026
     232A      2.198038   233A      2.204342   234A      2.219702
     235A      2.236711   236A      2.259459   237A      2.269503
     238A      2.277490   239A      2.294983   240A      2.300474
     241A      2.308468   242A      2.315493   243A      2.325230
     244A      2.341272   245A      2.361689   246A      2.411667
     247A      2.415392   248A      2.467217   249A      2.477120
     250A      2.483275   251A      2.494889   252A      2.507062
     253A      2.514228   254A      2.539460   255A      2.554869
     256A      2.589144   257A      2.600687   258A      2.626979
     259A      2.670600   260A      2.754257   261A      2.761210
     262A      2.770494   263A      2.783137   264A      2.790287
     265A      2.795605   266A      2.802836   267A      2.807020
     268A      2.844553   269A      2.865569   270A      2.874781
     271A      2.881897   272A      2.899741   273A      2.980033
     274A      2.996345   275A      3.006556   276A      3.008652
     277A      3.039750   278A      3.087607   279A      3.113119
     280A      3.160330   281A      3.216290   282A      3.260459
     283A      3.280126   284A      3.319091   285A      3.347751
     286A      3.599232   287A      3.667677   288A      3.955367
     289A      3.995820   290A      4.187576

    Final Occupation by Irrep:
              A
    DOCC [    54 ]

  @RHF Final Energy:  -614.37670406800601

   => Energetics <=

    Nuclear Repulsion Energy =            916.5359754411463200
    One-Electron Energy =               -2652.4942980619607624
    Two-Electron Energy =                1121.5816185528085498
    Total Energy =                       -614.3767040680058926

Computation Completed

Properties will be evaluated at   0.000000,   0.000000,   0.000000 [a0]

Properties computed using the SCF density matrix

  Nuclear Dipole Moment: [e a0]
     X:     7.4428      Y:     5.1172      Z:     5.0885

  Electronic Dipole Moment: [e a0]
     X:    -7.3249      Y:    -5.2556      Z:    -4.4797

  Dipole Moment: [e a0]
     X:     0.1179      Y:    -0.1384      Z:     0.6088     Total:     0.6353

  Dipole Moment: [D]
     X:     0.2996      Y:    -0.3518      Z:     1.5474     Total:     1.6149

*** tstop() called on ds3 at Mon Apr 27 20:32:08 2020
Module time:
	user time   =     420.70 seconds =       7.01 minutes
	system time =     142.08 seconds =       2.37 minutes
	total time  =       1057 seconds =      17.62 minutes
Total time:
	user time   =     420.70 seconds =       7.01 minutes
	system time =     142.08 seconds =       2.37 minutes
	total time  =       1057 seconds =      17.62 minutes
                                     G D M A

                                 by Anthony Stone

                           version 2.2.06, 22 June 2011

               Distributed Multipoles from Gaussian wavefunctions

Starting at 20:32:8 on 27 Apr 2020

Using SCF density matrix from file ./SSI/SSI-058PHE-062TYR-1-dimer.test.13946.fchk

                         Distributed Multipole Analysis

Standard DMA

Positions and radii in angstrom
Multipole moments in atomic units, ea_0^k for rank k

C          x =  1.256102  y =  2.801490  z =  1.164971 angstrom
           Maximum rank =  0   Radius =  0.650 angstrom
                   Q00  =  -0.200097

C          x = -1.394898  y =  1.031490  z = -0.918029 angstrom
           Maximum rank =  0   Radius =  0.650 angstrom
                   Q00  =  -0.072607

C          x = -1.874898  y =  2.094490  z = -1.731029 angstrom
           Maximum rank =  0   Radius =  0.650 angstrom
                   Q00  =  -0.097447

C          x = -0.398898  y =  1.270490  z =  0.016971 angstrom
           Maximum rank =  0   Radius =  0.650 angstrom
                   Q00  =  -0.044860

C          x =  0.142102  y =  2.554490  z =  0.168971 angstrom
           Maximum rank =  0   Radius =  0.650 angstrom
                   Q00  =  -0.125013

C          x = -1.351898  y =  3.380490  z = -1.560029 angstrom
           Maximum rank =  0   Radius =  0.650 angstrom
                   Q00  =  -0.072483

C          x = -0.337898  y =  3.593490  z = -0.638029 angstrom
           Maximum rank =  0   Radius =  0.650 angstrom
                   Q00  =  -0.002086

H          x = -1.755898  y =  0.025490  z = -1.069029 angstrom
           Maximum rank =  0   Radius =  0.325 angstrom
                   Q00  =   0.051939

H          x = -2.518898  y =  1.927490  z = -2.570029 angstrom
           Maximum rank =  0   Radius =  0.325 angstrom
                   Q00  =   0.063580

H          x = -0.027898  y =  0.459490  z =  0.618971 angstrom
           Maximum rank =  0   Radius =  0.325 angstrom
                   Q00  =   0.067891

H          x = -1.705898  y =  4.192490  z = -2.146029 angstrom
           Maximum rank =  0   Radius =  0.325 angstrom
                   Q00  =   0.062314

H          x =  1.890102  y =  3.596490  z =  0.772971 angstrom
           Maximum rank =  0   Radius =  0.325 angstrom
                   Q00  =   0.097556

H          x =  1.864102  y =  1.898490  z =  1.234971 angstrom
           Maximum rank =  0   Radius =  0.325 angstrom
                   Q00  =   0.097459

H          x =  0.075102  y =  4.584490  z = -0.536029 angstrom
           Maximum rank =  0   Radius =  0.325 angstrom
                   Q00  =   0.050673

H          x =  0.914712  y =  3.075896  z =  2.174011 angstrom
           Maximum rank =  0   Radius =  0.325 angstrom
                   Q00  =   0.102798

C          x =  2.989102  y = -1.225510  z =  1.636971 angstrom
           Maximum rank =  0   Radius =  0.650 angstrom
                   Q00  =  -0.195315

C          x = -0.721898  y = -2.436510  z = -0.196029 angstrom
           Maximum rank =  0   Radius =  0.650 angstrom
                   Q00  =   0.272442

C          x = -0.642898  y = -2.258510  z =  1.184971 angstrom
           Maximum rank =  0   Radius =  0.650 angstrom
                   Q00  =  -0.176176

C          x =  0.395102  y = -2.223510  z = -1.002029 angstrom
           Maximum rank =  0   Radius =  0.650 angstrom
                   Q00  =  -0.113239

C          x =  0.557102  y = -1.858510  z =  1.756971 angstrom
           Maximum rank =  0   Radius =  0.650 angstrom
                   Q00  =   0.023732

C          x =  1.598102  y = -1.832510  z = -0.400029 angstrom
           Maximum rank =  0   Radius =  0.650 angstrom
                   Q00  =  -0.005314

C          x =  1.689102  y = -1.639510  z =  0.978971 angstrom
           Maximum rank =  0   Radius =  0.650 angstrom
                   Q00  =  -0.150980

O          x = -1.928898  y = -2.784510  z = -0.690029 angstrom
           Maximum rank =  0   Radius =  0.650 angstrom
                   Q00  =  -0.628351

H          x = -1.499898  y = -2.442510  z =  1.802971 angstrom
           Maximum rank =  0   Radius =  0.325 angstrom
                   Q00  =   0.069261

H          x = -2.584898  y = -2.852510  z =  0.002971 angstrom
           Maximum rank =  0   Radius =  0.325 angstrom
                   Q00  =   0.408998

H          x =  0.314102  y = -2.344510  z = -2.070029 angstrom
           Maximum rank =  0   Radius =  0.325 angstrom
                   Q00  =   0.084785

H          x =  0.608102  y = -1.715510  z =  2.826971 angstrom
           Maximum rank =  0   Radius =  0.325 angstrom
                   Q00  =   0.066999

H          x =  2.470102  y = -1.667510  z = -1.019029 angstrom
           Maximum rank =  0   Radius =  0.325 angstrom
                   Q00  =   0.068929

H          x =  2.745102  y = -0.439510  z =  2.348971 angstrom
           Maximum rank =  0   Radius =  0.325 angstrom
                   Q00  =   0.092039

H          x =  3.654102  y = -0.787510  z =  0.890971 angstrom
           Maximum rank =  0   Radius =  0.325 angstrom
                   Q00  =   0.099123

H          x =  3.507002  y = -2.037915  z =  2.167801 angstrom
           Maximum rank =  0   Radius =  0.325 angstrom
                   Q00  =   0.103450

Total multipoles referred to origin at
           x =   0.000000,  y =    0.000000,  z =    0.000000 angstrom
                   Q00  =  -0.000000

Finished at 20:32:8 on 27 Apr 2020

  DMA results are available in the Python driver through the
	  variable('DMA DISTRIBUTED MULTIPOLES')
  and
	  variable('DMA TOTAL MULTIPOLES')
  commands.

    Psi4 stopped on: Monday, 27 April 2020 08:32PM
    Psi4 wall time for execution: 0:17:37.45

*** Psi4 exiting successfully. Buy a developer a beer!
