                               Psi4 1.3.2 release

  ==> Input File <==

--------------------------------------------------------------------------
import numpy as np
set {scf_type pk
basis cc-pvdz
d_convergence 10
gdma_switch   0
gdma_limit    0
gdma_origin   [ 0.0,  0.0,  0.0 ]
}
molecule test {
    units Angstrom
    0 1
    --
    0 1
    C               -0.779484762256216    -2.055243598533681     2.505185467229814
    C                0.736515237743784    -2.129243598533680     2.718185467229814
    H               -1.297484762256216    -2.472243598533681     3.369185467229814
    H               -1.086484762256216    -1.017243598533681     2.368185467229814
    H               -1.050484762256216    -2.636243598533681     1.622185467229814
    H                1.208515237743784    -1.665243598533681     1.860185467229814
    H                1.033295237743784    -3.187611598533681     2.760375467229814
    H                1.025055237743784    -1.567512598533681     3.618855467229814
    C                0.461515237743784     0.299756401466319    -0.246814532770186
    C                1.900515237743784     0.679756401466319    -0.647814532770186
    C               -0.523484762256216     0.965756401466319    -1.169814532770186
    O               -0.893484762256216     2.120756401466319    -0.986814532770186
    N               -0.894484762256216     0.237756401466319    -2.197814532770186
    H                0.332515237743784    -0.784243598533681    -0.262814532770186
    H                0.260515237743784     0.656756401466319     0.764185467229814
    H                1.922515237743784     1.749756401466319    -0.834814532770186
    H               -1.483484762256216     0.677756401466319    -2.885814532770186
    H               -0.463484762256216    -0.650243598533681    -2.401814532770186
    H                2.217785237743783     0.142723401466319    -1.553874532770186
    H                2.610145237743784     0.454164401466319     0.161835467229814

}
e, wfn = energy('scf', return_wfn=True)
gdma(wfn)
dmavals = variable('DMA DISTRIBUTED MULTIPOLES')
charges = np.array(dmavals)
print(charges)
np.save('SSI-012LEU-083ASN-1-dimer.npy', np.array(charges))--------------------------------------------------------------------------

*** tstart() called on ds3
*** at Mon Apr 27 07:13:06 2020

   => Loading Basis Set <=

    Name: CC-PVDZ
    Role: ORBITAL
    Keyword: BASIS
    atoms 1-2, 9-11  entry C          line   138 file /theoryfs2/ds/metcalf/miniconda2/envs/tf2gpu/share/psi4/basis/cc-pvdz.gbs
    atoms 3-8, 14-20 entry H          line    22 file /theoryfs2/ds/metcalf/miniconda2/envs/tf2gpu/share/psi4/basis/cc-pvdz.gbs
    atoms 12         entry O          line   198 file /theoryfs2/ds/metcalf/miniconda2/envs/tf2gpu/share/psi4/basis/cc-pvdz.gbs
    atoms 13         entry N          line   168 file /theoryfs2/ds/metcalf/miniconda2/envs/tf2gpu/share/psi4/basis/cc-pvdz.gbs

         ---------------------------------------------------------
                                   SCF
               by Justin Turney, Rob Parrish, Andy Simmonett
                          and Daniel G. A. Smith
                              RHF Reference
                        1 Threads,    500 MiB Core
         ---------------------------------------------------------

  ==> Geometry <==

    Molecular point group: c1
    Full point group: C1

    Geometry (in Angstrom), charge = 0, multiplicity = 1:

       Center              X                  Y                   Z               Mass
    ------------   -----------------  -----------------  -----------------  -----------------
         C           -0.779484762256    -2.055243598534     2.505185467230    12.000000000000
         C            0.736515237744    -2.129243598534     2.718185467230    12.000000000000
         H           -1.297484762256    -2.472243598534     3.369185467230     1.007825032230
         H           -1.086484762256    -1.017243598534     2.368185467230     1.007825032230
         H           -1.050484762256    -2.636243598534     1.622185467230     1.007825032230
         H            1.208515237744    -1.665243598534     1.860185467230     1.007825032230
         H            1.033295237744    -3.187611598534     2.760375467230     1.007825032230
         H            1.025055237744    -1.567512598534     3.618855467230     1.007825032230
         C            0.461515237744     0.299756401466    -0.246814532770    12.000000000000
         C            1.900515237744     0.679756401466    -0.647814532770    12.000000000000
         C           -0.523484762256     0.965756401466    -1.169814532770    12.000000000000
         O           -0.893484762256     2.120756401466    -0.986814532770    15.994914619570
         N           -0.894484762256     0.237756401466    -2.197814532770    14.003074004430
         H            0.332515237744    -0.784243598534    -0.262814532770     1.007825032230
         H            0.260515237744     0.656756401466     0.764185467230     1.007825032230
         H            1.922515237744     1.749756401466    -0.834814532770     1.007825032230
         H           -1.483484762256     0.677756401466    -2.885814532770     1.007825032230
         H           -0.463484762256    -0.650243598534    -2.401814532770     1.007825032230
         H            2.217785237744     0.142723401466    -1.553874532770     1.007825032230
         H            2.610145237744     0.454164401466     0.161835467230     1.007825032230

  Running in c1 symmetry.

  Rotational constants: A =      0.10617  B =      0.02985  C =      0.02692 [cm^-1]
  Rotational constants: A =   3183.02266  B =    895.01038  C =    806.95111 [MHz]
  Nuclear repulsion =  301.693659057233674

  Charge       = 0
  Multiplicity = 1
  Electrons    = 58
  Nalpha       = 29
  Nbeta        = 29

  ==> Algorithm <==

  SCF Algorithm Type is PK.
  DIIS enabled.
  MOM disabled.
  Fractional occupation disabled.
  Guess Type is SAD.
  Energy threshold   = 1.00e-06
  Density threshold  = 1.00e-10
  Integral threshold = 0.00e+00

  ==> Primary Basis <==

  Basis Set: CC-PVDZ
    Blend: CC-PVDZ
    Number of shells: 81
    Number of basis function: 163
    Number of Cartesian functions: 170
    Spherical Harmonics?: true
    Max angular momentum: 2

  ==> Pre-Iterations <==

   -------------------------------------------------------
    Irrep   Nso     Nmo     Nalpha   Nbeta   Ndocc  Nsocc
   -------------------------------------------------------
     A        163     163       0       0       0       0
   -------------------------------------------------------
    Total     163     163      29      29      29       0
   -------------------------------------------------------

  ==> Integral Setup <==

  Using integral reordering PK algorithm.
  Sizing the integral batches needed.
  Building batch lookup table.
   Calculation information:
      Number of atoms:                  20
      Number of AO shells:              81
      Number of primitives:            219
      Number of atomic orbitals:       170
      Number of basis functions:       163

      Integral cutoff                 1.00e-12
      Number of threads:                 1

	Batch   1 pq = [       0,    9405] index = [             0,44231715] size =     44231715
	Batch   2 pq = [    9405,   13366] index = [      44231715,89331661] size =     45099946
  Task number: 9
  Buffer size: 11059200
  Buffer per thread: 2
  We computed 4859460 shell quartets total.
  Whereas there are 5516181 unique shell quartets.

  ==> DiskJK: Disk-Based J/K Matrices <==

    J tasked:                  Yes
    K tasked:                  Yes
    wK tasked:                  No
    Memory [MiB]:              375
    Schwarz Cutoff:          1E-12

    OpenMP threads:              1

  Minimum eigenvalue in the overlap matrix is 3.6013679850E-03.
  Using Symmetric Orthogonalization.

  SCF Guess: Superposition of Atomic Densities via on-the-fly atomic UHF.

  ==> Iterations <==

                        Total Energy        Delta E     RMS |[F,P]|

   @RHF iter SAD:  -324.98809258509198   -3.24988e+02   0.00000e+00
   @RHF iter   1:  -326.01047497210936   -1.02238e+00   4.07475e-03 DIIS
   @RHF iter   2:  -326.20615878510432   -1.95684e-01   2.19774e-03 DIIS
   @RHF iter   3:  -326.25681225826116   -5.06535e-02   4.77650e-04 DIIS
   @RHF iter   4:  -326.26043884296814   -3.62658e-03   2.00706e-04 DIIS
   @RHF iter   5:  -326.26108266595367   -6.43823e-04   2.89606e-05 DIIS
   @RHF iter   6:  -326.26111337964500   -3.07137e-05   1.13853e-05 DIIS
   @RHF iter   7:  -326.26111738723426   -4.00759e-06   4.77497e-06 DIIS
   @RHF iter   8:  -326.26111821553820   -8.28304e-07   1.85259e-06 DIIS
   @RHF iter   9:  -326.26111834674430   -1.31206e-07   4.18251e-07 DIIS
   @RHF iter  10:  -326.26111835244518   -5.70088e-09   1.27078e-07 DIIS
   @RHF iter  11:  -326.26111835289169   -4.46505e-10   3.52359e-08 DIIS
   @RHF iter  12:  -326.26111835293045   -3.87672e-11   9.72629e-09 DIIS
   @RHF iter  13:  -326.26111835293170   -1.25056e-12   2.41576e-09 DIIS
   @RHF iter  14:  -326.26111835293432   -2.61480e-12   1.02863e-09 DIIS
   @RHF iter  15:  -326.26111835293244    1.87583e-12   5.19192e-10 DIIS
   @RHF iter  16:  -326.26111835293341   -9.66338e-13   1.72117e-10 DIIS
   @RHF iter  17:  -326.26111835293216    1.25056e-12   5.34533e-11 DIIS
  Energy and wave function converged.

  ==> Post-Iterations <==

    Orbital Energies [Eh]
    ---------------------

    Doubly Occupied:

       1A    -20.501833     2A    -15.588771     3A    -11.340618
       4A    -11.238032     5A    -11.236194     6A    -11.223745
       7A    -11.221251     8A     -1.368688     9A     -1.222875
      10A     -1.050629    11A     -1.022980    12A     -0.891781
      13A     -0.840189    14A     -0.793899    15A     -0.728187
      16A     -0.667194    17A     -0.611426    18A     -0.605019
      19A     -0.601936    20A     -0.594264    21A     -0.573318
      22A     -0.525594    23A     -0.504139    24A     -0.501341
      25A     -0.499669    26A     -0.493126    27A     -0.489387
      28A     -0.407601    29A     -0.402429

    Virtual:

      30A      0.154891    31A      0.178835    32A      0.191952
      33A      0.212639    34A      0.226884    35A      0.230906
      36A      0.243817    37A      0.248902    38A      0.258295
      39A      0.272814    40A      0.279114    41A      0.288871
      42A      0.313499    43A      0.348743    44A      0.376251
      45A      0.384802    46A      0.459959    47A      0.474519
      48A      0.541412    49A      0.593783    50A      0.594766
      51A      0.600280    52A      0.607500    53A      0.641975
      54A      0.651322    55A      0.673903    56A      0.688894
      57A      0.714501    58A      0.744498    59A      0.770697
      60A      0.804993    61A      0.836919    62A      0.840658
      63A      0.858651    64A      0.873035    65A      0.884305
      66A      0.886089    67A      0.891267    68A      0.900324
      69A      0.908657    70A      0.914636    71A      0.918475
      72A      0.946500    73A      0.951316    74A      0.965520
      75A      0.975240    76A      1.008458    77A      1.020705
      78A      1.030836    79A      1.062528    80A      1.107295
      81A      1.119875    82A      1.127026    83A      1.129115
      84A      1.249432    85A      1.315277    86A      1.331050
      87A      1.358638    88A      1.386200    89A      1.413212
      90A      1.423049    91A      1.468566    92A      1.471012
      93A      1.476230    94A      1.487486    95A      1.502327
      96A      1.574394    97A      1.660370    98A      1.672673
      99A      1.678545   100A      1.695011   101A      1.753224
     102A      1.805175   103A      1.839126   104A      1.847860
     105A      1.860000   106A      1.868069   107A      1.880911
     108A      1.885307   109A      1.894016   110A      1.905004
     111A      1.922554   112A      1.934674   113A      1.942678
     114A      1.944004   115A      1.951022   116A      1.961022
     117A      1.969519   118A      1.986688   119A      2.012134
     120A      2.038490   121A      2.052147   122A      2.092021
     123A      2.103467   124A      2.119017   125A      2.124167
     126A      2.152053   127A      2.237625   128A      2.284560
     129A      2.295119   130A      2.306289   131A      2.335943
     132A      2.395440   133A      2.430349   134A      2.445370
     135A      2.464148   136A      2.467497   137A      2.528634
     138A      2.565112   139A      2.568103   140A      2.575838
     141A      2.578381   142A      2.629874   143A      2.641700
     144A      2.756873   145A      2.765132   146A      2.776839
     147A      2.791370   148A      2.811226   149A      2.842861
     150A      2.846058   151A      2.854881   152A      2.911219
     153A      2.934340   154A      2.959350   155A      2.977489
     156A      3.029469   157A      3.096950   158A      3.142670
     159A      3.292696   160A      3.525837   161A      3.561595
     162A      3.874153   163A      3.913690

    Final Occupation by Irrep:
              A
    DOCC [    29 ]

  @RHF Final Energy:  -326.26111835293216

   => Energetics <=

    Nuclear Repulsion Energy =            301.6936590572336740
    One-Electron Energy =               -1040.4173241647561099
    Two-Electron Energy =                 412.4625467545903348
    Total Energy =                       -326.2611183529321579

Computation Completed

Properties will be evaluated at   0.000000,   0.000000,   0.000000 [a0]

Properties computed using the SCF density matrix

  Nuclear Dipole Moment: [e a0]
     X:     4.9003      Y:    -9.6459      Z:     8.0506

  Electronic Dipole Moment: [e a0]
     X:    -4.4373      Y:     8.1712      Z:    -8.6291

  Dipole Moment: [e a0]
     X:     0.4629      Y:    -1.4747      Z:    -0.5785     Total:     1.6503

  Dipole Moment: [D]
     X:     1.1767      Y:    -3.7482      Z:    -1.4704     Total:     4.1948

*** tstop() called on ds3 at Mon Apr 27 07:14:56 2020
Module time:
	user time   =      30.29 seconds =       0.50 minutes
	system time =      11.61 seconds =       0.19 minutes
	total time  =        110 seconds =       1.83 minutes
Total time:
	user time   =      30.29 seconds =       0.50 minutes
	system time =      11.61 seconds =       0.19 minutes
	total time  =        110 seconds =       1.83 minutes
                                     G D M A

                                 by Anthony Stone

                           version 2.2.06, 22 June 2011

               Distributed Multipoles from Gaussian wavefunctions

Starting at 7:14:56 on 27 Apr 2020

Using SCF density matrix from file ./SSI/SSI-012LEU-083ASN-1-dimer.test.26337.fchk

                         Distributed Multipole Analysis

Standard DMA

Positions and radii in angstrom
Multipole moments in atomic units, ea_0^k for rank k

C          x = -0.779485  y = -2.055244  z =  2.505185 angstrom
           Maximum rank =  0   Radius =  0.650 angstrom
                   Q00  =  -0.239443

C          x =  0.736515  y = -2.129244  z =  2.718185 angstrom
           Maximum rank =  0   Radius =  0.650 angstrom
                   Q00  =  -0.235930

H          x = -1.297485  y = -2.472244  z =  3.369185 angstrom
           Maximum rank =  0   Radius =  0.325 angstrom
                   Q00  =   0.082612

H          x = -1.086485  y = -1.017244  z =  2.368185 angstrom
           Maximum rank =  0   Radius =  0.325 angstrom
                   Q00  =   0.082317

H          x = -1.050485  y = -2.636244  z =  1.622185 angstrom
           Maximum rank =  0   Radius =  0.325 angstrom
                   Q00  =   0.073605

H          x =  1.208515  y = -1.665244  z =  1.860185 angstrom
           Maximum rank =  0   Radius =  0.325 angstrom
                   Q00  =   0.072801

H          x =  1.033295  y = -3.187612  z =  2.760375 angstrom
           Maximum rank =  0   Radius =  0.325 angstrom
                   Q00  =   0.079381

H          x =  1.025055  y = -1.567513  z =  3.618855 angstrom
           Maximum rank =  0   Radius =  0.325 angstrom
                   Q00  =   0.084035

C          x =  0.461515  y =  0.299756  z = -0.246815 angstrom
           Maximum rank =  0   Radius =  0.650 angstrom
                   Q00  =  -0.118594

C          x =  1.900515  y =  0.679756  z = -0.647815 angstrom
           Maximum rank =  0   Radius =  0.650 angstrom
                   Q00  =  -0.215648

C          x = -0.523485  y =  0.965756  z = -1.169815 angstrom
           Maximum rank =  0   Radius =  0.650 angstrom
                   Q00  =   0.834756

O          x = -0.893485  y =  2.120756  z = -0.986815 angstrom
           Maximum rank =  0   Radius =  0.650 angstrom
                   Q00  =  -0.810433

N          x = -0.894485  y =  0.237756  z = -2.197815 angstrom
           Maximum rank =  0   Radius =  0.650 angstrom
                   Q00  =  -0.521813

H          x =  0.332515  y = -0.784244  z = -0.262815 angstrom
           Maximum rank =  0   Radius =  0.325 angstrom
                   Q00  =   0.042703

H          x =  0.260515  y =  0.656756  z =  0.764185 angstrom
           Maximum rank =  0   Radius =  0.325 angstrom
                   Q00  =   0.101691

H          x =  1.922515  y =  1.749756  z = -0.834815 angstrom
           Maximum rank =  0   Radius =  0.325 angstrom
                   Q00  =   0.102387

H          x = -1.483485  y =  0.677756  z = -2.885815 angstrom
           Maximum rank =  0   Radius =  0.325 angstrom
                   Q00  =   0.210122

H          x = -0.463485  y = -0.650244  z = -2.401815 angstrom
           Maximum rank =  0   Radius =  0.325 angstrom
                   Q00  =   0.208107

H          x =  2.217785  y =  0.142723  z = -1.553875 angstrom
           Maximum rank =  0   Radius =  0.325 angstrom
                   Q00  =   0.073200

H          x =  2.610145  y =  0.454164  z =  0.161835 angstrom
           Maximum rank =  0   Radius =  0.325 angstrom
                   Q00  =   0.094146

Total multipoles referred to origin at
           x =   0.000000,  y =    0.000000,  z =    0.000000 angstrom
                   Q00  =  -0.000000

Finished at 7:14:56 on 27 Apr 2020

  DMA results are available in the Python driver through the
	  variable('DMA DISTRIBUTED MULTIPOLES')
  and
	  variable('DMA TOTAL MULTIPOLES')
  commands.

    Psi4 stopped on: Monday, 27 April 2020 07:14AM
    Psi4 wall time for execution: 0:01:49.86

*** Psi4 exiting successfully. Buy a developer a beer!
