                               Psi4 1.3.2 release

  ==> Input File <==

--------------------------------------------------------------------------
import numpy as np
set {scf_type pk
basis cc-pvdz
d_convergence 10
gdma_switch   0
gdma_limit    0
gdma_origin   [ 0.0,  0.0,  0.0 ]
}
molecule test {
    units Angstrom
    0 1
    --
    0 1
    C                0.074374495491989     2.973152119867795    -1.823630515803160
    C               -1.581625504508011     0.537152119867795     1.347369484196840
    C               -0.551625504508011     1.439152119867795     1.615369484196840
    C               -2.081625504508011     0.417152119867795     0.031369484196840
    C               -0.019625504508011     2.220152119867795     0.563369484196840
    C               -1.551625504508011     1.210152119867795    -1.001630515803160
    C               -0.517625504508011     2.116152119867795    -0.735630515803160
    H               -2.004625504508011    -0.057847880132205     2.146369484196840
    H               -0.155625504508011     1.527152119867795     2.617369484196840
    H               -2.915625504508012    -0.238847880132205    -0.160630515803160
    H                0.774374495491989     2.921152119867795     0.779369484196840
    H               -1.966625504508011     1.133152119867795    -1.996630515803160
    H                0.507374495491989     3.867152119867795    -1.371630515803160
    H               -0.723625504508011     3.300152119867795    -2.491630515803160
    H                0.850814495491989     2.445690119867795    -2.397146515803160
    C                0.586374495491989    -3.030847880132205    -1.059630515803160
    C                1.441374495491988    -2.471847880132205     0.078369484196840
    O                2.539374495491989    -2.990847880132205     0.366369484196840
    N                0.923374495491989    -1.454847880132205     0.767369484196840
    H                1.411374495491989    -1.103847880132205     1.585369484196840
    H                0.049374495491989    -1.034847880132205     0.490369484196840
    H                0.008374495491989    -2.224847880132205    -1.513630515803160
    H               -0.119625504508011    -3.729847880132205    -0.609630515803160
    H                1.180744495491988    -3.543608880132205    -1.830215515803160

}
e, wfn = energy('scf', return_wfn=True)
gdma(wfn)
dmavals = variable('DMA DISTRIBUTED MULTIPOLES')
charges = np.array(dmavals)
print(charges)
np.save('SSI-059PHE-063ASN-1-dimer.npy', np.array(charges))--------------------------------------------------------------------------

*** tstart() called on ds3
*** at Tue Apr 28 14:33:20 2020

   => Loading Basis Set <=

    Name: CC-PVDZ
    Role: ORBITAL
    Keyword: BASIS
    atoms 1-7, 16-17  entry C          line   138 file /theoryfs2/ds/metcalf/miniconda2/envs/tf2gpu/share/psi4/basis/cc-pvdz.gbs
    atoms 8-15, 20-24 entry H          line    22 file /theoryfs2/ds/metcalf/miniconda2/envs/tf2gpu/share/psi4/basis/cc-pvdz.gbs
    atoms 18          entry O          line   198 file /theoryfs2/ds/metcalf/miniconda2/envs/tf2gpu/share/psi4/basis/cc-pvdz.gbs
    atoms 19          entry N          line   168 file /theoryfs2/ds/metcalf/miniconda2/envs/tf2gpu/share/psi4/basis/cc-pvdz.gbs

         ---------------------------------------------------------
                                   SCF
               by Justin Turney, Rob Parrish, Andy Simmonett
                          and Daniel G. A. Smith
                              RHF Reference
                        1 Threads,    500 MiB Core
         ---------------------------------------------------------

  ==> Geometry <==

    Molecular point group: c1
    Full point group: C1

    Geometry (in Angstrom), charge = 0, multiplicity = 1:

       Center              X                  Y                   Z               Mass
    ------------   -----------------  -----------------  -----------------  -----------------
         C            0.074374495492     2.973152119868    -1.823630515803    12.000000000000
         C           -1.581625504508     0.537152119868     1.347369484197    12.000000000000
         C           -0.551625504508     1.439152119868     1.615369484197    12.000000000000
         C           -2.081625504508     0.417152119868     0.031369484197    12.000000000000
         C           -0.019625504508     2.220152119868     0.563369484197    12.000000000000
         C           -1.551625504508     1.210152119868    -1.001630515803    12.000000000000
         C           -0.517625504508     2.116152119868    -0.735630515803    12.000000000000
         H           -2.004625504508    -0.057847880132     2.146369484197     1.007825032230
         H           -0.155625504508     1.527152119868     2.617369484197     1.007825032230
         H           -2.915625504508    -0.238847880132    -0.160630515803     1.007825032230
         H            0.774374495492     2.921152119868     0.779369484197     1.007825032230
         H           -1.966625504508     1.133152119868    -1.996630515803     1.007825032230
         H            0.507374495492     3.867152119868    -1.371630515803     1.007825032230
         H           -0.723625504508     3.300152119868    -2.491630515803     1.007825032230
         H            0.850814495492     2.445690119868    -2.397146515803     1.007825032230
         C            0.586374495492    -3.030847880132    -1.059630515803    12.000000000000
         C            1.441374495492    -2.471847880132     0.078369484197    12.000000000000
         O            2.539374495492    -2.990847880132     0.366369484197    15.994914619570
         N            0.923374495492    -1.454847880132     0.767369484197    14.003074004430
         H            1.411374495492    -1.103847880132     1.585369484197     1.007825032230
         H            0.049374495492    -1.034847880132     0.490369484197     1.007825032230
         H            0.008374495492    -2.224847880132    -1.513630515803     1.007825032230
         H           -0.119625504508    -3.729847880132    -0.609630515803     1.007825032230
         H            1.180744495492    -3.543608880132    -1.830215515803     1.007825032230

  Running in c1 symmetry.

  Rotational constants: A =      0.05175  B =      0.01723  C =      0.01646 [cm^-1]
  Rotational constants: A =   1551.32374  B =    516.66647  C =    493.57912 [MHz]
  Nuclear repulsion =  564.529022034862805

  Charge       = 0
  Multiplicity = 1
  Electrons    = 82
  Nalpha       = 41
  Nbeta        = 41

  ==> Algorithm <==

  SCF Algorithm Type is PK.
  DIIS enabled.
  MOM disabled.
  Fractional occupation disabled.
  Guess Type is SAD.
  Energy threshold   = 1.00e-06
  Density threshold  = 1.00e-10
  Integral threshold = 0.00e+00

  ==> Primary Basis <==

  Basis Set: CC-PVDZ
    Blend: CC-PVDZ
    Number of shells: 105
    Number of basis function: 219
    Number of Cartesian functions: 230
    Spherical Harmonics?: true
    Max angular momentum: 2

  ==> Pre-Iterations <==

   -------------------------------------------------------
    Irrep   Nso     Nmo     Nalpha   Nbeta   Ndocc  Nsocc
   -------------------------------------------------------
     A        219     219       0       0       0       0
   -------------------------------------------------------
    Total     219     219      41      41      41       0
   -------------------------------------------------------

  ==> Integral Setup <==

  Using integral reordering PK algorithm.
  Sizing the integral batches needed.
  Building batch lookup table.
   Calculation information:
      Number of atoms:                  24
      Number of AO shells:             105
      Number of primitives:            307
      Number of atomic orbitals:       230
      Number of basis functions:       219

      Integral cutoff                 1.00e-12
      Number of threads:                 1

	Batch   1 pq = [       0,    9405] index = [             0,44231715] size =     44231715
	Batch   2 pq = [    9405,   13301] index = [      44231715,88464951] size =     44233236
	Batch   3 pq = [   13301,   16290] index = [      88464951,132690195] size =     44225244
	Batch   4 pq = [   16290,   18810] index = [     132690195,176917455] size =     44227260
	Batch   5 pq = [   18810,   21030] index = [     176917455,221140965] size =     44223510
	Batch   6 pq = [   21030,   23037] index = [     221140965,265363203] size =     44222238
	Batch   7 pq = [   23037,   24090] index = [     265363203,290176095] size =     24812892
  Task number: 27
  Buffer size: 11059200
  Buffer per thread: 2
  We computed 14848726 shell quartets total.
  Whereas there are 15487395 unique shell quartets.

  ==> DiskJK: Disk-Based J/K Matrices <==

    J tasked:                  Yes
    K tasked:                  Yes
    wK tasked:                  No
    Memory [MiB]:              375
    Schwarz Cutoff:          1E-12

    OpenMP threads:              1

  Minimum eigenvalue in the overlap matrix is 3.3189987209E-04.
  Using Symmetric Orthogonalization.

  SCF Guess: Superposition of Atomic Densities via on-the-fly atomic UHF.

  ==> Iterations <==

                        Total Energy        Delta E     RMS |[F,P]|

   @RHF iter SAD:  -476.28708075670005   -4.76287e+02   0.00000e+00
   @RHF iter   1:  -477.46475398830330   -1.17767e+00   3.17814e-03 DIIS
   @RHF iter   2:  -477.69016663940187   -2.25413e-01   1.72299e-03 DIIS
   @RHF iter   3:  -477.74585596653509   -5.56893e-02   4.02936e-04 DIIS
   @RHF iter   4:  -477.75030303574113   -4.44707e-03   1.54931e-04 DIIS
   @RHF iter   5:  -477.75099692947424   -6.93894e-04   2.34209e-05 DIIS
   @RHF iter   6:  -477.75102915130287   -3.22218e-05   1.11344e-05 DIIS
   @RHF iter   7:  -477.75103527900177   -6.12770e-06   4.09857e-06 DIIS
   @RHF iter   8:  -477.75103659815937   -1.31916e-06   1.47781e-06 DIIS
   @RHF iter   9:  -477.75103676733693   -1.69178e-07   4.50023e-07 DIIS
   @RHF iter  10:  -477.75103677878667   -1.14497e-08   1.78687e-07 DIIS
   @RHF iter  11:  -477.75103678099504   -2.20837e-09   6.00346e-08 DIIS
   @RHF iter  12:  -477.75103678124731   -2.52271e-10   2.73641e-08 DIIS
   @RHF iter  13:  -477.75103678131779   -7.04858e-11   1.13263e-08 DIIS
   @RHF iter  14:  -477.75103678133996   -2.21689e-11   4.11954e-09 DIIS
   @RHF iter  15:  -477.75103678134224   -2.27374e-12   1.78297e-09 DIIS
   @RHF iter  16:  -477.75103678134553   -3.29692e-12   5.10372e-10 DIIS
   @RHF iter  17:  -477.75103678134411    1.42109e-12   1.94464e-10 DIIS
   @RHF iter  18:  -477.75103678133814    5.96856e-12   8.74025e-11 DIIS
  Energy and wave function converged.

  ==> Post-Iterations <==

    Orbital Energies [Eh]
    ---------------------

    Doubly Occupied:

       1A    -20.490433     2A    -15.573277     3A    -11.339037
       4A    -11.259737     5A    -11.259037     6A    -11.257224
       7A    -11.253617     8A    -11.253305     9A    -11.250860
      10A    -11.241766    11A    -11.235374    12A     -1.341404
      13A     -1.198817    14A     -1.165464    15A     -1.059940
      16A     -1.025352    17A     -0.987189    18A     -0.945117
      19A     -0.842966    20A     -0.810396    21A     -0.786150
      22A     -0.709719    23A     -0.705759    24A     -0.650174
      25A     -0.644659    26A     -0.638431    27A     -0.598806
      28A     -0.598594    29A     -0.590093    30A     -0.578741
      31A     -0.553182    32A     -0.548817    33A     -0.547522
      34A     -0.506874    35A     -0.503685    36A     -0.499521
      37A     -0.497334    38A     -0.395826    39A     -0.387266
      40A     -0.348485    41A     -0.340350

    Virtual:

      42A      0.111595    43A      0.118939    44A      0.163110
      45A      0.187803    46A      0.192655    47A      0.203816
      48A      0.209968    49A      0.228624    50A      0.232427
      51A      0.246361    52A      0.251760    53A      0.259736
      54A      0.272015    55A      0.279555    56A      0.286605
      57A      0.310662    58A      0.343326    59A      0.361051
      60A      0.392443    61A      0.429239    62A      0.441215
      63A      0.459633    64A      0.464399    65A      0.473855
      66A      0.546162    67A      0.565298    68A      0.577147
      69A      0.615158    70A      0.625612    71A      0.644282
      72A      0.653722    73A      0.666110    74A      0.673245
      75A      0.700767    76A      0.712622    77A      0.717533
      78A      0.721601    79A      0.731670    80A      0.736236
      81A      0.742476    82A      0.753696    83A      0.759228
      84A      0.764698    85A      0.793914    86A      0.821662
      87A      0.843333    88A      0.846390    89A      0.849662
      90A      0.853849    91A      0.865560    92A      0.876776
      93A      0.878941    94A      0.879521    95A      0.888764
      96A      0.906494    97A      0.910694    98A      0.922908
      99A      0.927466   100A      0.946745   101A      0.956457
     102A      0.975280   103A      0.991349   104A      1.018585
     105A      1.050083   106A      1.057082   107A      1.089463
     108A      1.105152   109A      1.121888   110A      1.128362
     111A      1.132800   112A      1.140146   113A      1.184136
     114A      1.199446   115A      1.211531   116A      1.226570
     117A      1.232312   118A      1.265857   119A      1.278666
     120A      1.284641   121A      1.302696   122A      1.306520
     123A      1.348988   124A      1.364635   125A      1.385317
     126A      1.394210   127A      1.412867   128A      1.449431
     129A      1.455235   130A      1.499830   131A      1.507240
     132A      1.537688   133A      1.548488   134A      1.587041
     135A      1.655559   136A      1.661832   137A      1.670925
     138A      1.682903   139A      1.718305   140A      1.724896
     141A      1.725130   142A      1.734229   143A      1.768254
     144A      1.799351   145A      1.830259   146A      1.846181
     147A      1.859972   148A      1.867725   149A      1.876174
     150A      1.885188   151A      1.890283   152A      1.899495
     153A      1.907741   154A      1.919267   155A      1.922958
     156A      1.928058   157A      1.933394   158A      1.954877
     159A      1.963320   160A      1.972592   161A      1.990467
     162A      1.998324   163A      2.019802   164A      2.033207
     165A      2.042448   166A      2.064553   167A      2.089781
     168A      2.103931   169A      2.124627   170A      2.129299
     171A      2.142545   172A      2.149348   173A      2.159566
     174A      2.200421   175A      2.226947   176A      2.246079
     177A      2.252947   178A      2.271958   179A      2.276452
     180A      2.284420   181A      2.300025   182A      2.312217
     183A      2.420982   184A      2.439501   185A      2.451496
     186A      2.466737   187A      2.471419   188A      2.497581
     189A      2.513758   190A      2.574160   191A      2.591848
     192A      2.605501   193A      2.637054   194A      2.718850
     195A      2.727863   196A      2.735678   197A      2.753656
     198A      2.757514   199A      2.762336   200A      2.784793
     201A      2.810213   202A      2.831034   203A      2.852016
     204A      2.862425   205A      2.946179   206A      2.972992
     207A      2.998512   208A      3.025453   209A      3.100935
     210A      3.120550   211A      3.140175   212A      3.160528
     213A      3.256838   214A      3.327651   215A      3.501594
     216A      3.545930   217A      3.847416   218A      3.889959
     219A      3.910557

    Final Occupation by Irrep:
              A
    DOCC [    41 ]

  @RHF Final Energy:  -477.75103678133814

   => Energetics <=

    Nuclear Repulsion Energy =            564.5290220348628054
    One-Electron Energy =               -1767.7195176482550778
    Two-Electron Energy =                 725.4394588320540151
    Total Energy =                       -477.7510367813381436

Computation Completed

Properties will be evaluated at   0.000000,   0.000000,   0.000000 [a0]

Properties computed using the SCF density matrix

  Nuclear Dipole Moment: [e a0]
     X:    -2.8997      Y:     3.0467      Z:    -4.4556

  Electronic Dipole Moment: [e a0]
     X:     1.3545      Y:    -1.7601      Z:     4.1987

  Dipole Moment: [e a0]
     X:    -1.5452      Y:     1.2866      Z:    -0.2569     Total:     2.0271

  Dipole Moment: [D]
     X:    -3.9276      Y:     3.2703      Z:    -0.6529     Total:     5.1524

*** tstop() called on ds3 at Tue Apr 28 14:37:11 2020
Module time:
	user time   =     122.73 seconds =       2.05 minutes
	system time =      48.33 seconds =       0.81 minutes
	total time  =        231 seconds =       3.85 minutes
Total time:
	user time   =     122.73 seconds =       2.05 minutes
	system time =      48.33 seconds =       0.81 minutes
	total time  =        231 seconds =       3.85 minutes
                                     G D M A

                                 by Anthony Stone

                           version 2.2.06, 22 June 2011

               Distributed Multipoles from Gaussian wavefunctions

Starting at 14:37:11 on 28 Apr 2020

Using SCF density matrix from file ./SSI/SSI-059PHE-063ASN-1-dimer.test.28567.fchk

                         Distributed Multipole Analysis

Standard DMA

Positions and radii in angstrom
Multipole moments in atomic units, ea_0^k for rank k

C          x =  0.074374  y =  2.973152  z = -1.823631 angstrom
           Maximum rank =  0   Radius =  0.650 angstrom
                   Q00  =  -0.200267

C          x = -1.581626  y =  0.537152  z =  1.347369 angstrom
           Maximum rank =  0   Radius =  0.650 angstrom
                   Q00  =  -0.110088

C          x = -0.551626  y =  1.439152  z =  1.615369 angstrom
           Maximum rank =  0   Radius =  0.650 angstrom
                   Q00  =  -0.082283

C          x = -2.081626  y =  0.417152  z =  0.031369 angstrom
           Maximum rank =  0   Radius =  0.650 angstrom
                   Q00  =  -0.087920

C          x = -0.019626  y =  2.220152  z =  0.563369 angstrom
           Maximum rank =  0   Radius =  0.650 angstrom
                   Q00  =   0.002315

C          x = -1.551626  y =  1.210152  z = -1.001631 angstrom
           Maximum rank =  0   Radius =  0.650 angstrom
                   Q00  =  -0.094970

C          x = -0.517626  y =  2.116152  z = -0.735631 angstrom
           Maximum rank =  0   Radius =  0.650 angstrom
                   Q00  =  -0.098327

H          x = -2.004626  y = -0.057848  z =  2.146369 angstrom
           Maximum rank =  0   Radius =  0.325 angstrom
                   Q00  =   0.070462

H          x = -0.155626  y =  1.527152  z =  2.617369 angstrom
           Maximum rank =  0   Radius =  0.325 angstrom
                   Q00  =   0.072917

H          x = -2.915626  y = -0.238848  z = -0.160631 angstrom
           Maximum rank =  0   Radius =  0.325 angstrom
                   Q00  =   0.074327

H          x =  0.774374  y =  2.921152  z =  0.779369 angstrom
           Maximum rank =  0   Radius =  0.325 angstrom
                   Q00  =   0.067663

H          x = -1.966626  y =  1.133152  z = -1.996631 angstrom
           Maximum rank =  0   Radius =  0.325 angstrom
                   Q00  =   0.066861

H          x =  0.507374  y =  3.867152  z = -1.371631 angstrom
           Maximum rank =  0   Radius =  0.325 angstrom
                   Q00  =   0.101006

H          x = -0.723626  y =  3.300152  z = -2.491631 angstrom
           Maximum rank =  0   Radius =  0.325 angstrom
                   Q00  =   0.101276

H          x =  0.850814  y =  2.445690  z = -2.397147 angstrom
           Maximum rank =  0   Radius =  0.325 angstrom
                   Q00  =   0.111372

C          x =  0.586374  y = -3.030848  z = -1.059631 angstrom
           Maximum rank =  0   Radius =  0.650 angstrom
                   Q00  =  -0.260352

C          x =  1.441374  y = -2.471848  z =  0.078369 angstrom
           Maximum rank =  0   Radius =  0.650 angstrom
                   Q00  =   0.805205

O          x =  2.539374  y = -2.990848  z =  0.366369 angstrom
           Maximum rank =  0   Radius =  0.650 angstrom
                   Q00  =  -0.807073

N          x =  0.923374  y = -1.454848  z =  0.767369 angstrom
           Maximum rank =  0   Radius =  0.650 angstrom
                   Q00  =  -0.519415

H          x =  1.411374  y = -1.103848  z =  1.585369 angstrom
           Maximum rank =  0   Radius =  0.325 angstrom
                   Q00  =   0.218091

H          x =  0.049374  y = -1.034848  z =  0.490369 angstrom
           Maximum rank =  0   Radius =  0.325 angstrom
                   Q00  =   0.232968

H          x =  0.008374  y = -2.224848  z = -1.513631 angstrom
           Maximum rank =  0   Radius =  0.325 angstrom
                   Q00  =   0.085034

H          x = -0.119626  y = -3.729848  z = -0.609631 angstrom
           Maximum rank =  0   Radius =  0.325 angstrom
                   Q00  =   0.122725

H          x =  1.180744  y = -3.543609  z = -1.830216 angstrom
           Maximum rank =  0   Radius =  0.325 angstrom
                   Q00  =   0.128474

Total multipoles referred to origin at
           x =   0.000000,  y =    0.000000,  z =    0.000000 angstrom
                   Q00  =  -0.000000

Finished at 14:37:11 on 28 Apr 2020

  DMA results are available in the Python driver through the
	  variable('DMA DISTRIBUTED MULTIPOLES')
  and
	  variable('DMA TOTAL MULTIPOLES')
  commands.

    Psi4 stopped on: Tuesday, 28 April 2020 02:37PM
    Psi4 wall time for execution: 0:03:50.73

*** Psi4 exiting successfully. Buy a developer a beer!
