                               Psi4 1.3.2 release

  ==> Input File <==

--------------------------------------------------------------------------
import numpy as np
set {scf_type pk
basis cc-pvdz
d_convergence 10
gdma_switch   0
gdma_limit    0
gdma_origin   [ 0.0,  0.0,  0.0 ]
}
molecule test {
    units Angstrom
    0 1
    --
    0 1
    C               -3.189794993638389    -1.100811755149038     1.274963307144902
    C               -4.239794993638389    -1.421811755149038     0.208963307144901
    C               -3.468794993638389    -1.787811755149038     2.612963307144902
    H               -2.201794993638389    -1.392811755149038     0.927963307144901
    H               -3.181794993638389    -0.023811755149038     1.438963307144902
    H               -5.214794993638390    -1.050811755149038     0.524963307144901
    H               -4.298794993638388    -2.500811755149039     0.067963307144901
    H               -2.814794993638389    -1.325811755149038     3.358963307144902
    H               -4.505794993638389    -1.581811755149038     2.896963307144901
    H               -3.942778993638389    -0.940411755149038    -0.734456692855099
    H               -3.286519993638389    -2.872571755149038     2.604072307144902
    C                3.049205006361611     2.698188244850961     0.314963307144902
    C                0.738205006361611    -0.238811755149038    -0.062036692855099
    C                1.455205006361611     0.847188244850962    -0.632036692855099
    C                2.125205006361611     1.525188244850962     0.445963307144902
    C                1.794205006361611     0.845188244850962     1.591963307144902
    C               -0.014794993638389    -1.111811755149038    -0.829036692855099
    C               -0.071794993638389    -0.897811755149038    -2.194036692855098
    C                0.630205006361611     0.159188244850962    -2.792036692855099
    C                1.392205006361611     1.039188244850962    -2.024036692855098
    N                0.955205006361611    -0.201811755149038     1.288963307144902
    H               -0.518794993638389    -1.951811755149038    -0.377036692855098
    H               -0.651794993638389    -1.567811755149038    -2.817036692855099
    H                0.554205006361611    -0.860811755149038     1.961963307144901
    H                0.570205006361611     0.298188244850962    -3.864036692855099
    H                2.126205006361611     1.103188244850962     2.588963307144902
    H                1.911205006361611     1.865188244850962    -2.480036692855098
    H                2.626205006361611     3.555188244850961     0.841963307144902
    H                3.125205006361611     2.958188244850962    -0.740036692855099
    H                4.057539006361611     2.482018244850961     0.697757307144901

}
e, wfn = energy('scf', return_wfn=True)
gdma(wfn)
dmavals = variable('DMA DISTRIBUTED MULTIPOLES')
charges = np.array(dmavals)
print(charges)
np.save('SSI-034LYS-070TRP-2-dimer.npy', np.array(charges))--------------------------------------------------------------------------

*** tstart() called on ds3
*** at Sun Apr 26 23:08:22 2020

   => Loading Basis Set <=

    Name: CC-PVDZ
    Role: ORBITAL
    Keyword: BASIS
    atoms 1-3, 12-20  entry C          line   138 file /theoryfs2/ds/metcalf/miniconda2/envs/tf2gpu/share/psi4/basis/cc-pvdz.gbs
    atoms 4-11, 22-30 entry H          line    22 file /theoryfs2/ds/metcalf/miniconda2/envs/tf2gpu/share/psi4/basis/cc-pvdz.gbs
    atoms 21          entry N          line   168 file /theoryfs2/ds/metcalf/miniconda2/envs/tf2gpu/share/psi4/basis/cc-pvdz.gbs

         ---------------------------------------------------------
                                   SCF
               by Justin Turney, Rob Parrish, Andy Simmonett
                          and Daniel G. A. Smith
                              RHF Reference
                        1 Threads,    500 MiB Core
         ---------------------------------------------------------

  ==> Geometry <==

    Molecular point group: c1
    Full point group: C1

    Geometry (in Angstrom), charge = 0, multiplicity = 1:

       Center              X                  Y                   Z               Mass
    ------------   -----------------  -----------------  -----------------  -----------------
         C           -3.189794993638    -1.100811755149     1.274963307145    12.000000000000
         C           -4.239794993638    -1.421811755149     0.208963307145    12.000000000000
         C           -3.468794993638    -1.787811755149     2.612963307145    12.000000000000
         H           -2.201794993638    -1.392811755149     0.927963307145     1.007825032230
         H           -3.181794993638    -0.023811755149     1.438963307145     1.007825032230
         H           -5.214794993638    -1.050811755149     0.524963307145     1.007825032230
         H           -4.298794993638    -2.500811755149     0.067963307145     1.007825032230
         H           -2.814794993638    -1.325811755149     3.358963307145     1.007825032230
         H           -4.505794993638    -1.581811755149     2.896963307145     1.007825032230
         H           -3.942778993638    -0.940411755149    -0.734456692855     1.007825032230
         H           -3.286519993638    -2.872571755149     2.604072307145     1.007825032230
         C            3.049205006362     2.698188244851     0.314963307145    12.000000000000
         C            0.738205006362    -0.238811755149    -0.062036692855    12.000000000000
         C            1.455205006362     0.847188244851    -0.632036692855    12.000000000000
         C            2.125205006362     1.525188244851     0.445963307145    12.000000000000
         C            1.794205006362     0.845188244851     1.591963307145    12.000000000000
         C           -0.014794993638    -1.111811755149    -0.829036692855    12.000000000000
         C           -0.071794993638    -0.897811755149    -2.194036692855    12.000000000000
         C            0.630205006362     0.159188244851    -2.792036692855    12.000000000000
         C            1.392205006362     1.039188244851    -2.024036692855    12.000000000000
         N            0.955205006362    -0.201811755149     1.288963307145    14.003074004430
         H           -0.518794993638    -1.951811755149    -0.377036692855     1.007825032230
         H           -0.651794993638    -1.567811755149    -2.817036692855     1.007825032230
         H            0.554205006362    -0.860811755149     1.961963307145     1.007825032230
         H            0.570205006362     0.298188244851    -3.864036692855     1.007825032230
         H            2.126205006362     1.103188244851     2.588963307145     1.007825032230
         H            1.911205006362     1.865188244851    -2.480036692855     1.007825032230
         H            2.626205006362     3.555188244851     0.841963307145     1.007825032230
         H            3.125205006362     2.958188244851    -0.740036692855     1.007825032230
         H            4.057539006362     2.482018244851     0.697757307145     1.007825032230

  Running in c1 symmetry.

  Rotational constants: A =      0.03651  B =      0.01319  C =      0.01047 [cm^-1]
  Rotational constants: A =   1094.68639  B =    395.57349  C =    313.88741 [MHz]
  Nuclear repulsion =  735.972810968734393

  Charge       = 0
  Multiplicity = 1
  Electrons    = 96
  Nalpha       = 48
  Nbeta        = 48

  ==> Algorithm <==

  SCF Algorithm Type is PK.
  DIIS enabled.
  MOM disabled.
  Fractional occupation disabled.
  Guess Type is SAD.
  Energy threshold   = 1.00e-06
  Density threshold  = 1.00e-10
  Integral threshold = 0.00e+00

  ==> Primary Basis <==

  Basis Set: CC-PVDZ
    Blend: CC-PVDZ
    Number of shells: 129
    Number of basis function: 267
    Number of Cartesian functions: 280
    Spherical Harmonics?: true
    Max angular momentum: 2

  ==> Pre-Iterations <==

   -------------------------------------------------------
    Irrep   Nso     Nmo     Nalpha   Nbeta   Ndocc  Nsocc
   -------------------------------------------------------
     A        267     267       0       0       0       0
   -------------------------------------------------------
    Total     267     267      48      48      48       0
   -------------------------------------------------------

  ==> Integral Setup <==

  Using integral reordering PK algorithm.
  Sizing the integral batches needed.
  Building batch lookup table.
   Calculation information:
      Number of atoms:                  30
      Number of AO shells:             129
      Number of primitives:            371
      Number of atomic orbitals:       280
      Number of basis functions:       267

      Integral cutoff                 1.00e-12
      Number of threads:                 1

	Batch   1 pq = [       0,    9405] index = [             0,44231715] size =     44231715
	Batch   2 pq = [    9405,   13301] index = [      44231715,88464951] size =     44233236
	Batch   3 pq = [   13301,   16290] index = [      88464951,132690195] size =     44225244
	Batch   4 pq = [   16290,   18810] index = [     132690195,176917455] size =     44227260
	Batch   5 pq = [   18810,   21030] index = [     176917455,221140965] size =     44223510
	Batch   6 pq = [   21030,   23037] index = [     221140965,265363203] size =     44222238
	Batch   7 pq = [   23037,   24883] index = [     265363203,309594286] size =     44231083
	Batch   8 pq = [   24883,   26601] index = [     309594286,353819901] size =     44225615
	Batch   9 pq = [   26601,   28214] index = [     353819901,398029005] size =     44209104
	Batch  10 pq = [   28214,   29740] index = [     398029005,442248670] size =     44219665
	Batch  11 pq = [   29740,   31191] index = [     442248670,486454836] size =     44206166
	Batch  12 pq = [   31191,   32578] index = [     486454836,530679331] size =     44224495
	Batch  13 pq = [   32578,   33908] index = [     530679331,574893186] size =     44213855
	Batch  14 pq = [   33908,   35188] index = [     574893186,619115266] size =     44222080
	Batch  15 pq = [   35188,   35778] index = [     619115266,640050531] size =     20935265
  Task number: 58
  Buffer size: 11059200
  Buffer per thread: 2
  We computed 32833160 shell quartets total.
  Whereas there are 35158305 unique shell quartets.

  ==> DiskJK: Disk-Based J/K Matrices <==

    J tasked:                  Yes
    K tasked:                  Yes
    wK tasked:                  No
    Memory [MiB]:              375
    Schwarz Cutoff:          1E-12

    OpenMP threads:              1

  Minimum eigenvalue in the overlap matrix is 2.3885017981E-04.
  Using Symmetric Orthogonalization.

  SCF Guess: Superposition of Atomic Densities via on-the-fly atomic UHF.

  ==> Iterations <==

                        Total Energy        Delta E     RMS |[F,P]|

   @RHF iter SAD:  -518.00807608053435   -5.18008e+02   0.00000e+00
   @RHF iter   1:  -518.49176591767423   -4.83690e-01   2.49770e-03 DIIS
   @RHF iter   2:  -518.75023964943443   -2.58474e-01   1.11770e-03 DIIS
   @RHF iter   3:  -518.79733928677786   -4.70996e-02   2.88927e-04 DIIS
   @RHF iter   4:  -518.80155049109237   -4.21120e-03   1.32635e-04 DIIS
   @RHF iter   5:  -518.80225196073161   -7.01470e-04   1.94560e-05 DIIS
   @RHF iter   6:  -518.80228266795393   -3.07072e-05   8.67611e-06 DIIS
   @RHF iter   7:  -518.80228884490043   -6.17695e-06   3.46037e-06 DIIS
   @RHF iter   8:  -518.80229042628685   -1.58139e-06   1.45766e-06 DIIS
   @RHF iter   9:  -518.80229077696060   -3.50674e-07   6.31822e-07 DIIS
   @RHF iter  10:  -518.80229084828773   -7.13271e-08   2.79952e-07 DIIS
   @RHF iter  11:  -518.80229086532484   -1.70371e-08   1.12186e-07 DIIS
   @RHF iter  12:  -518.80229086802922   -2.70438e-09   4.05757e-08 DIIS
   @RHF iter  13:  -518.80229086825534   -2.26123e-10   1.06242e-08 DIIS
   @RHF iter  14:  -518.80229086827194   -1.65983e-11   3.71064e-09 DIIS
   @RHF iter  15:  -518.80229086826193    1.00044e-11   1.94750e-09 DIIS
   @RHF iter  16:  -518.80229086827148   -9.54969e-12   8.61933e-10 DIIS
   @RHF iter  17:  -518.80229086826989    1.59162e-12   3.99211e-10 DIIS
   @RHF iter  18:  -518.80229086826978    1.13687e-13   1.57729e-10 DIIS
   @RHF iter  19:  -518.80229086827535   -5.57066e-12   6.06438e-11 DIIS
  Energy and wave function converged.

  ==> Post-Iterations <==

    Orbital Energies [Eh]
    ---------------------

    Doubly Occupied:

       1A    -15.603215     2A    -11.264619     3A    -11.261966
       4A    -11.230802     5A    -11.229177     6A    -11.227898
       7A    -11.226513     8A    -11.221534     9A    -11.221452
      10A    -11.220254    11A    -11.219464    12A    -11.218960
      13A    -11.215653    14A     -1.293802    15A     -1.127176
      16A     -1.071499    17A     -1.054484    18A     -0.996568
      19A     -0.985660    20A     -0.931022    21A     -0.925565
      22A     -0.839011    23A     -0.801873    24A     -0.797344
      25A     -0.752365    26A     -0.719185    27A     -0.660931
      28A     -0.642772    29A     -0.628358    30A     -0.603398
      31A     -0.594671    32A     -0.591192    33A     -0.589233
      34A     -0.568172    35A     -0.553306    36A     -0.552059
      37A     -0.537491    38A     -0.535130    39A     -0.524191
      40A     -0.494189    41A     -0.476490    42A     -0.472546
      43A     -0.468362    44A     -0.464157    45A     -0.460156
      46A     -0.371945    47A     -0.295001    48A     -0.271936

    Virtual:

      49A      0.123929    50A      0.157955    51A      0.171177
      52A      0.185246    53A      0.191510    54A      0.209327
      55A      0.215423    56A      0.222996    57A      0.226662
      58A      0.235442    59A      0.247202    60A      0.254133
      61A      0.257789    62A      0.260881    63A      0.288185
      64A      0.293018    65A      0.295945    66A      0.301560
      67A      0.320891    68A      0.344547    69A      0.370296
      70A      0.374129    71A      0.395867    72A      0.403787
      73A      0.422040    74A      0.435810    75A      0.444597
      76A      0.466314    77A      0.480831    78A      0.504092
      79A      0.527049    80A      0.582179    81A      0.586752
      82A      0.602371    83A      0.610574    84A      0.620271
      85A      0.622762    86A      0.642297    87A      0.645731
      88A      0.646739    89A      0.662347    90A      0.693866
      91A      0.708454    92A      0.713297    93A      0.726250
      94A      0.733680    95A      0.741276    96A      0.746139
      97A      0.760026    98A      0.762755    99A      0.765429
     100A      0.777926   101A      0.785123   102A      0.790964
     103A      0.792499   104A      0.812626   105A      0.843816
     106A      0.847430   107A      0.867367   108A      0.870808
     109A      0.875258   110A      0.882394   111A      0.886805
     112A      0.892560   113A      0.893332   114A      0.900557
     115A      0.905697   116A      0.908140   117A      0.910645
     118A      0.915805   119A      0.928264   120A      0.937287
     121A      0.949302   122A      0.960583   123A      0.967513
     124A      0.969495   125A      0.976494   126A      0.996828
     127A      1.012280   128A      1.021189   129A      1.065479
     130A      1.092832   131A      1.109879   132A      1.117578
     133A      1.127449   134A      1.137190   135A      1.140768
     136A      1.143880   137A      1.151595   138A      1.169352
     139A      1.209393   140A      1.214759   141A      1.225230
     142A      1.232130   143A      1.250475   144A      1.276577
     145A      1.282528   146A      1.293261   147A      1.302523
     148A      1.327900   149A      1.333200   150A      1.362733
     151A      1.372869   152A      1.393725   153A      1.433961
     154A      1.451498   155A      1.464245   156A      1.476019
     157A      1.516325   158A      1.533941   159A      1.544230
     160A      1.557866   161A      1.595703   162A      1.627320
     163A      1.635862   164A      1.645831   165A      1.661213
     166A      1.672657   167A      1.682627   168A      1.683588
     169A      1.698666   170A      1.706237   171A      1.744796
     172A      1.745945   173A      1.767143   174A      1.783796
     175A      1.813478   176A      1.826244   177A      1.834820
     178A      1.859524   179A      1.865352   180A      1.872398
     181A      1.878394   182A      1.888266   183A      1.895107
     184A      1.896825   185A      1.901522   186A      1.916803
     187A      1.921788   188A      1.931373   189A      1.942945
     190A      1.950397   191A      1.963794   192A      1.964045
     193A      1.969776   194A      1.980262   195A      1.990500
     196A      1.994415   197A      2.002763   198A      2.004128
     199A      2.006172   200A      2.018886   201A      2.043072
     202A      2.048613   203A      2.070246   204A      2.079169
     205A      2.091448   206A      2.093096   207A      2.110641
     208A      2.131425   209A      2.139398   210A      2.146989
     211A      2.153925   212A      2.166458   213A      2.178731
     214A      2.194672   215A      2.230008   216A      2.263177
     217A      2.277895   218A      2.287173   219A      2.299953
     220A      2.309067   221A      2.314869   222A      2.317147
     223A      2.340874   224A      2.350780   225A      2.359883
     226A      2.397141   227A      2.406940   228A      2.452279
     229A      2.469493   230A      2.487201   231A      2.532973
     232A      2.539233   233A      2.576980   234A      2.588582
     235A      2.599134   236A      2.608773   237A      2.617588
     238A      2.641464   239A      2.667162   240A      2.682251
     241A      2.741775   242A      2.755239   243A      2.762197
     244A      2.768416   245A      2.775136   246A      2.781878
     247A      2.784487   248A      2.799148   249A      2.806797
     250A      2.821790   251A      2.842870   252A      2.861011
     253A      2.909436   254A      2.919775   255A      2.959290
     256A      2.972325   257A      2.979328   258A      3.026392
     259A      3.049037   260A      3.070689   261A      3.093939
     262A      3.117237   263A      3.205417   264A      3.296231
     265A      3.373759   266A      3.733869   267A      3.950114

    Final Occupation by Irrep:
              A
    DOCC [    48 ]

  @RHF Final Energy:  -518.80229086827535

   => Energetics <=

    Nuclear Repulsion Energy =            735.9728109687343931
    One-Electron Energy =               -2161.5247077564722531
    Two-Electron Energy =                 906.7496059194625104
    Total Energy =                       -518.8022908682753496

Computation Completed

Properties will be evaluated at   0.000000,   0.000000,   0.000000 [a0]

Properties computed using the SCF density matrix

  Nuclear Dipole Moment: [e a0]
     X:   -14.6713      Y:    -3.5687      Z:     6.4628

  Electronic Dipole Moment: [e a0]
     X:    14.6707      Y:     3.4200      Z:    -5.7234

  Dipole Moment: [e a0]
     X:    -0.0005      Y:    -0.1487      Z:     0.7394     Total:     0.7542

  Dipole Moment: [D]
     X:    -0.0013      Y:    -0.3779      Z:     1.8794     Total:     1.9170

*** tstop() called on ds3 at Sun Apr 26 23:17:31 2020
Module time:
	user time   =     255.07 seconds =       4.25 minutes
	system time =     112.19 seconds =       1.87 minutes
	total time  =        549 seconds =       9.15 minutes
Total time:
	user time   =     255.07 seconds =       4.25 minutes
	system time =     112.19 seconds =       1.87 minutes
	total time  =        549 seconds =       9.15 minutes
                                     G D M A

                                 by Anthony Stone

                           version 2.2.06, 22 June 2011

               Distributed Multipoles from Gaussian wavefunctions

Starting at 23:17:31 on 26 Apr 2020

Using SCF density matrix from file ./SSI/SSI-034LYS-070TRP-2-dimer.test.24643.fchk

                         Distributed Multipole Analysis

Standard DMA

Positions and radii in angstrom
Multipole moments in atomic units, ea_0^k for rank k

C          x = -3.189795  y = -1.100812  z =  1.274963 angstrom
           Maximum rank =  0   Radius =  0.650 angstrom
                   Q00  =  -0.074171

C          x = -4.239795  y = -1.421812  z =  0.208963 angstrom
           Maximum rank =  0   Radius =  0.650 angstrom
                   Q00  =  -0.240425

C          x = -3.468795  y = -1.787812  z =  2.612963 angstrom
           Maximum rank =  0   Radius =  0.650 angstrom
                   Q00  =  -0.250967

H          x = -2.201795  y = -1.392812  z =  0.927963 angstrom
           Maximum rank =  0   Radius =  0.325 angstrom
                   Q00  =   0.040236

H          x = -3.181795  y = -0.023812  z =  1.438963 angstrom
           Maximum rank =  0   Radius =  0.325 angstrom
                   Q00  =   0.051881

H          x = -5.214795  y = -1.050812  z =  0.524963 angstrom
           Maximum rank =  0   Radius =  0.325 angstrom
                   Q00  =   0.079958

H          x = -4.298795  y = -2.500812  z =  0.067963 angstrom
           Maximum rank =  0   Radius =  0.325 angstrom
                   Q00  =   0.072954

H          x = -2.814795  y = -1.325812  z =  3.358963 angstrom
           Maximum rank =  0   Radius =  0.325 angstrom
                   Q00  =   0.073261

H          x = -4.505795  y = -1.581812  z =  2.896963 angstrom
           Maximum rank =  0   Radius =  0.325 angstrom
                   Q00  =   0.078372

H          x = -3.942779  y = -0.940412  z = -0.734457 angstrom
           Maximum rank =  0   Radius =  0.325 angstrom
                   Q00  =   0.087457

H          x = -3.286520  y = -2.872572  z =  2.604072 angstrom
           Maximum rank =  0   Radius =  0.325 angstrom
                   Q00  =   0.078807

C          x =  3.049205  y =  2.698188  z =  0.314963 angstrom
           Maximum rank =  0   Radius =  0.650 angstrom
                   Q00  =  -0.220115

C          x =  0.738205  y = -0.238812  z = -0.062037 angstrom
           Maximum rank =  0   Radius =  0.650 angstrom
                   Q00  =   0.276083

C          x =  1.455205  y =  0.847188  z = -0.632037 angstrom
           Maximum rank =  0   Radius =  0.650 angstrom
                   Q00  =  -0.043223

C          x =  2.125205  y =  1.525188  z =  0.445963 angstrom
           Maximum rank =  0   Radius =  0.650 angstrom
                   Q00  =  -0.127435

C          x =  1.794205  y =  0.845188  z =  1.591963 angstrom
           Maximum rank =  0   Radius =  0.650 angstrom
                   Q00  =   0.074773

C          x = -0.014795  y = -1.111812  z = -0.829037 angstrom
           Maximum rank =  0   Radius =  0.650 angstrom
                   Q00  =  -0.123091

C          x = -0.071795  y = -0.897812  z = -2.194037 angstrom
           Maximum rank =  0   Radius =  0.650 angstrom
                   Q00  =  -0.042366

C          x =  0.630205  y =  0.159188  z = -2.792037 angstrom
           Maximum rank =  0   Radius =  0.650 angstrom
                   Q00  =  -0.094639

C          x =  1.392205  y =  1.039188  z = -2.024037 angstrom
           Maximum rank =  0   Radius =  0.650 angstrom
                   Q00  =  -0.099027

N          x =  0.955205  y = -0.201812  z =  1.288963 angstrom
           Maximum rank =  0   Radius =  0.650 angstrom
                   Q00  =  -0.501040

H          x = -0.518795  y = -1.951812  z = -0.377037 angstrom
           Maximum rank =  0   Radius =  0.325 angstrom
                   Q00  =   0.074223

H          x = -0.651795  y = -1.567812  z = -2.817037 angstrom
           Maximum rank =  0   Radius =  0.325 angstrom
                   Q00  =   0.064379

H          x =  0.554205  y = -0.860812  z =  1.961963 angstrom
           Maximum rank =  0   Radius =  0.325 angstrom
                   Q00  =   0.220316

H          x =  0.570205  y =  0.298188  z = -3.864037 angstrom
           Maximum rank =  0   Radius =  0.325 angstrom
                   Q00  =   0.060377

H          x =  2.126205  y =  1.103188  z =  2.588963 angstrom
           Maximum rank =  0   Radius =  0.325 angstrom
                   Q00  =   0.098387

H          x =  1.911205  y =  1.865188  z = -2.480037 angstrom
           Maximum rank =  0   Radius =  0.325 angstrom
                   Q00  =   0.070202

H          x =  2.626205  y =  3.555188  z =  0.841963 angstrom
           Maximum rank =  0   Radius =  0.325 angstrom
                   Q00  =   0.102616

H          x =  3.125205  y =  2.958188  z = -0.740037 angstrom
           Maximum rank =  0   Radius =  0.325 angstrom
                   Q00  =   0.108793

H          x =  4.057539  y =  2.482018  z =  0.697757 angstrom
           Maximum rank =  0   Radius =  0.325 angstrom
                   Q00  =   0.103422

Total multipoles referred to origin at
           x =   0.000000,  y =    0.000000,  z =    0.000000 angstrom
                   Q00  =  -0.000000

Finished at 23:17:31 on 26 Apr 2020

  DMA results are available in the Python driver through the
	  variable('DMA DISTRIBUTED MULTIPOLES')
  and
	  variable('DMA TOTAL MULTIPOLES')
  commands.

    Psi4 stopped on: Sunday, 26 April 2020 11:17PM
    Psi4 wall time for execution: 0:09:09.63

*** Psi4 exiting successfully. Buy a developer a beer!
