                               Psi4 1.3.2 release

  ==> Input File <==

--------------------------------------------------------------------------
import numpy as np
set {scf_type pk
basis cc-pvdz
d_convergence 10
gdma_switch   0
gdma_limit    0
gdma_origin   [ 0.0,  0.0,  0.0 ]
}
molecule test {
    units Angstrom
    0 1
    --
    0 1
    C               -0.357608662711077     1.286457216079549    -0.317950681340339
    C               -0.334608662711077     2.215457216079549     0.900049318659661
    O               -0.974608662711077     1.908457216079549    -1.439950681340339
    H                0.663391337288923     1.007457216079550    -0.583950681340339
    H               -0.906608662711077     0.379457216079549    -0.067950681340339
    H               -1.352608662711077     2.376457216079550     1.252049318659661
    H               -0.283608662711077     2.435457216079549    -1.876950681340339
    H                0.112057337288923     3.185513216079550     0.636459318659661
    H                0.270334337288923     1.758867216079549     1.697279318659661
    C                0.632391337288923    -2.055542783920451     0.516049318659661
    C                1.063391337288923    -3.519542783920451     0.475049318659661
    H                0.353391337288923    -1.707542783920451    -0.475950681340339
    H               -0.233608662711077    -1.954542783920451     1.171049318659661
    H                1.442391337288923    -1.437542783920451     0.906049318659661
    H                0.255391337288923    -4.119542783920450     0.053049318659661
    H                1.210391337288923    -3.838542783920451     1.507049318659661
    H                1.987552337288923    -3.689202783920451    -0.096910681340339

}
e, wfn = energy('scf', return_wfn=True)
gdma(wfn)
dmavals = variable('DMA DISTRIBUTED MULTIPOLES')
charges = np.array(dmavals)
print(charges)
np.save('SSI-027SER-034ILE-1-dimer.npy', np.array(charges))--------------------------------------------------------------------------

*** tstart() called on ds3
*** at Mon Apr 27 07:50:48 2020

   => Loading Basis Set <=

    Name: CC-PVDZ
    Role: ORBITAL
    Keyword: BASIS
    atoms 1-2, 10-11 entry C          line   138 file /theoryfs2/ds/metcalf/miniconda2/envs/tf2gpu/share/psi4/basis/cc-pvdz.gbs
    atoms 3          entry O          line   198 file /theoryfs2/ds/metcalf/miniconda2/envs/tf2gpu/share/psi4/basis/cc-pvdz.gbs
    atoms 4-9, 12-17 entry H          line    22 file /theoryfs2/ds/metcalf/miniconda2/envs/tf2gpu/share/psi4/basis/cc-pvdz.gbs

         ---------------------------------------------------------
                                   SCF
               by Justin Turney, Rob Parrish, Andy Simmonett
                          and Daniel G. A. Smith
                              RHF Reference
                        1 Threads,    500 MiB Core
         ---------------------------------------------------------

  ==> Geometry <==

    Molecular point group: c1
    Full point group: C1

    Geometry (in Angstrom), charge = 0, multiplicity = 1:

       Center              X                  Y                   Z               Mass
    ------------   -----------------  -----------------  -----------------  -----------------
         C           -0.357608662711     1.286457216080    -0.317950681340    12.000000000000
         C           -0.334608662711     2.215457216080     0.900049318660    12.000000000000
         O           -0.974608662711     1.908457216080    -1.439950681340    15.994914619570
         H            0.663391337289     1.007457216080    -0.583950681340     1.007825032230
         H           -0.906608662711     0.379457216080    -0.067950681340     1.007825032230
         H           -1.352608662711     2.376457216080     1.252049318660     1.007825032230
         H           -0.283608662711     2.435457216080    -1.876950681340     1.007825032230
         H            0.112057337289     3.185513216080     0.636459318660     1.007825032230
         H            0.270334337289     1.758867216080     1.697279318660     1.007825032230
         C            0.632391337289    -2.055542783920     0.516049318660    12.000000000000
         C            1.063391337289    -3.519542783920     0.475049318660    12.000000000000
         H            0.353391337289    -1.707542783920    -0.475950681340     1.007825032230
         H           -0.233608662711    -1.954542783920     1.171049318660     1.007825032230
         H            1.442391337289    -1.437542783920     0.906049318660     1.007825032230
         H            0.255391337289    -4.119542783920     0.053049318660     1.007825032230
         H            1.210391337289    -3.838542783920     1.507049318660     1.007825032230
         H            1.987552337289    -3.689202783920    -0.096910681340     1.007825032230

  Running in c1 symmetry.

  Rotational constants: A =      0.27262  B =      0.03560  C =      0.03236 [cm^-1]
  Rotational constants: A =   8173.00128  B =   1067.24329  C =    970.17242 [MHz]
  Nuclear repulsion =  175.348922642068658

  Charge       = 0
  Multiplicity = 1
  Electrons    = 44
  Nalpha       = 22
  Nbeta        = 22

  ==> Algorithm <==

  SCF Algorithm Type is PK.
  DIIS enabled.
  MOM disabled.
  Fractional occupation disabled.
  Guess Type is SAD.
  Energy threshold   = 1.00e-06
  Density threshold  = 1.00e-10
  Integral threshold = 0.00e+00

  ==> Primary Basis <==

  Basis Set: CC-PVDZ
    Blend: CC-PVDZ
    Number of shells: 66
    Number of basis function: 130
    Number of Cartesian functions: 135
    Spherical Harmonics?: true
    Max angular momentum: 2

  ==> Pre-Iterations <==

   -------------------------------------------------------
    Irrep   Nso     Nmo     Nalpha   Nbeta   Ndocc  Nsocc
   -------------------------------------------------------
     A        130     130       0       0       0       0
   -------------------------------------------------------
    Total     130     130      22      22      22       0
   -------------------------------------------------------

  ==> Integral Setup <==

  Using integral reordering PK algorithm.
  Sizing the integral batches needed.
  Building batch lookup table.
   Calculation information:
      Number of atoms:                  17
      Number of AO shells:              66
      Number of primitives:            170
      Number of atomic orbitals:       135
      Number of basis functions:       130

      Integral cutoff                 1.00e-12
      Number of threads:                 1

	Batch   1 pq = [       0,    8515] index = [             0,36256870] size =     36256870
  Task number: 4
  Buffer size: 11059200
  Buffer per thread: 2
  We computed 1886550 shell quartets total.
  Whereas there are 2445366 unique shell quartets.

  ==> DiskJK: Disk-Based J/K Matrices <==

    J tasked:                  Yes
    K tasked:                  Yes
    wK tasked:                  No
    Memory [MiB]:              375
    Schwarz Cutoff:          1E-12

    OpenMP threads:              1

  Minimum eigenvalue in the overlap matrix is 5.9558922248E-03.
  Using Symmetric Orthogonalization.

  SCF Guess: Superposition of Atomic Densities via on-the-fly atomic UHF.

  ==> Iterations <==

                        Total Energy        Delta E     RMS |[F,P]|

   @RHF iter SAD:  -232.06541805798173   -2.32065e+02   0.00000e+00
   @RHF iter   1:  -233.14068390629492   -1.07527e+00   4.21921e-03 DIIS
   @RHF iter   2:  -233.29108106343656   -1.50397e-01   1.95476e-03 DIIS
   @RHF iter   3:  -233.31976931580022   -2.86883e-02   3.84245e-04 DIIS
   @RHF iter   4:  -233.32186979678281   -2.10048e-03   1.26446e-04 DIIS
   @RHF iter   5:  -233.32201794125189   -1.48144e-04   2.49851e-05 DIIS
   @RHF iter   6:  -233.32202642096334   -8.47971e-06   4.52220e-06 DIIS
   @RHF iter   7:  -233.32202681539590   -3.94433e-07   1.05164e-06 DIIS
   @RHF iter   8:  -233.32202683702550   -2.16296e-08   3.51510e-07 DIIS
   @RHF iter   9:  -233.32202683944831   -2.42281e-09   9.74794e-08 DIIS
   @RHF iter  10:  -233.32202683967819   -2.29875e-10   2.16624e-08 DIIS
   @RHF iter  11:  -233.32202683968950   -1.13118e-11   5.68599e-09 DIIS
   @RHF iter  12:  -233.32202683969024   -7.38964e-13   1.59276e-09 DIIS
   @RHF iter  13:  -233.32202683968995    2.84217e-13   3.53047e-10 DIIS
   @RHF iter  14:  -233.32202683969095   -9.94760e-13   9.11499e-11 DIIS
  Energy and wave function converged.

  ==> Post-Iterations <==

    Orbital Energies [Eh]
    ---------------------

    Doubly Occupied:

       1A    -20.547601     2A    -11.273937     3A    -11.220829
       4A    -11.220434     5A    -11.219799     6A     -1.347419
       7A     -1.022148     8A     -1.004784     9A     -0.842955
      10A     -0.834249    11A     -0.685337    12A     -0.619982
      13A     -0.601517    14A     -0.600864    15A     -0.581009
      16A     -0.547604    17A     -0.518865    18A     -0.504139
      19A     -0.489796    20A     -0.486941    21A     -0.473622
      22A     -0.430644

    Virtual:

      23A      0.169837    24A      0.188582    25A      0.207255
      26A      0.226088    27A      0.230773    28A      0.253654
      29A      0.266527    30A      0.272187    31A      0.281408
      32A      0.288402    33A      0.297510    34A      0.313056
      35A      0.363577    36A      0.400664    37A      0.434059
      38A      0.591391    39A      0.596066    40A      0.598269
      41A      0.603839    42A      0.655601    43A      0.669903
      44A      0.697106    45A      0.708649    46A      0.732606
      47A      0.780667    48A      0.808880    49A      0.843538
      50A      0.879320    51A      0.888179    52A      0.891324
      53A      0.894280    54A      0.899120    55A      0.901849
      56A      0.912495    57A      0.915441    58A      0.931329
      59A      0.942070    60A      0.951934    61A      0.988969
      62A      1.118461    63A      1.128291    64A      1.140334
      65A      1.154867    66A      1.174611    67A      1.237107
      68A      1.277146    69A      1.343503    70A      1.368650
      71A      1.459804    72A      1.474715    73A      1.481142
      74A      1.551385    75A      1.586667    76A      1.603385
      77A      1.644513    78A      1.678900    79A      1.679930
      80A      1.691904    81A      1.733093    82A      1.851040
      83A      1.862593    84A      1.875891    85A      1.884880
      86A      1.888812    87A      1.904238    88A      1.931078
      89A      1.943089    90A      1.946921    91A      1.948865
      92A      1.957513    93A      1.960659    94A      1.980177
      95A      2.001340    96A      2.021056    97A      2.076355
      98A      2.084302    99A      2.105297   100A      2.123427
     101A      2.172656   102A      2.259821   103A      2.286825
     104A      2.302369   105A      2.330364   106A      2.417099
     107A      2.434095   108A      2.452348   109A      2.467446
     110A      2.518424   111A      2.535944   112A      2.553287
     113A      2.558976   114A      2.579200   115A      2.754692
     116A      2.762865   117A      2.767687   118A      2.785033
     119A      2.802353   120A      2.848869   121A      2.858966
     122A      2.887440   123A      2.915771   124A      2.944056
     125A      2.961002   126A      3.330798   127A      3.392056
     128A      3.474727   129A      3.634899   130A      4.087309

    Final Occupation by Irrep:
              A
    DOCC [    22 ]

  @RHF Final Energy:  -233.32202683969095

   => Energetics <=

    Nuclear Repulsion Energy =            175.3489226420686578
    One-Electron Energy =                -663.1929489711233145
    Two-Electron Energy =                 254.5219994893637079
    Total Energy =                       -233.3220268396909489

Computation Completed

Properties will be evaluated at   0.000000,   0.000000,   0.000000 [a0]

Properties computed using the SCF density matrix

  Nuclear Dipole Moment: [e a0]
     X:     3.2938      Y:    -5.2441      Z:     3.8566

  Electronic Dipole Moment: [e a0]
     X:    -2.6380      Y:     5.2757      Z:    -3.6604

  Dipole Moment: [e a0]
     X:     0.6557      Y:     0.0315      Z:     0.1963     Total:     0.6852

  Dipole Moment: [D]
     X:     1.6667      Y:     0.0802      Z:     0.4989     Total:     1.7416

*** tstop() called on ds3 at Mon Apr 27 07:51:15 2020
Module time:
	user time   =      11.11 seconds =       0.19 minutes
	system time =       4.36 seconds =       0.07 minutes
	total time  =         27 seconds =       0.45 minutes
Total time:
	user time   =      11.11 seconds =       0.19 minutes
	system time =       4.36 seconds =       0.07 minutes
	total time  =         27 seconds =       0.45 minutes
                                     G D M A

                                 by Anthony Stone

                           version 2.2.06, 22 June 2011

               Distributed Multipoles from Gaussian wavefunctions

Starting at 7:51:15 on 27 Apr 2020

Using SCF density matrix from file ./SSI/SSI-027SER-034ILE-1-dimer.test.315.fchk

                         Distributed Multipole Analysis

Standard DMA

Positions and radii in angstrom
Multipole moments in atomic units, ea_0^k for rank k

C          x = -0.357609  y =  1.286457  z = -0.317951 angstrom
           Maximum rank =  0   Radius =  0.650 angstrom
                   Q00  =   0.109043

C          x = -0.334609  y =  2.215457  z =  0.900049 angstrom
           Maximum rank =  0   Radius =  0.650 angstrom
                   Q00  =  -0.256244

O          x = -0.974609  y =  1.908457  z = -1.439951 angstrom
           Maximum rank =  0   Radius =  0.650 angstrom
                   Q00  =  -0.615243

H          x =  0.663391  y =  1.007457  z = -0.583951 angstrom
           Maximum rank =  0   Radius =  0.325 angstrom
                   Q00  =   0.032891

H          x = -0.906609  y =  0.379457  z = -0.067951 angstrom
           Maximum rank =  0   Radius =  0.325 angstrom
                   Q00  =   0.085024

H          x = -1.352609  y =  2.376457  z =  1.252049 angstrom
           Maximum rank =  0   Radius =  0.325 angstrom
                   Q00  =   0.094179

H          x = -0.283609  y =  2.435457  z = -1.876951 angstrom
           Maximum rank =  0   Radius =  0.325 angstrom
                   Q00  =   0.392142

H          x =  0.112057  y =  3.185513  z =  0.636459 angstrom
           Maximum rank =  0   Radius =  0.325 angstrom
                   Q00  =   0.079755

H          x =  0.270334  y =  1.758867  z =  1.697279 angstrom
           Maximum rank =  0   Radius =  0.325 angstrom
                   Q00  =   0.079209

C          x =  0.632391  y = -2.055543  z =  0.516049 angstrom
           Maximum rank =  0   Radius =  0.650 angstrom
                   Q00  =  -0.244912

C          x =  1.063391  y = -3.519543  z =  0.475049 angstrom
           Maximum rank =  0   Radius =  0.650 angstrom
                   Q00  =  -0.232705

H          x =  0.353391  y = -1.707543  z = -0.475951 angstrom
           Maximum rank =  0   Radius =  0.325 angstrom
                   Q00  =   0.080980

H          x = -0.233609  y = -1.954543  z =  1.171049 angstrom
           Maximum rank =  0   Radius =  0.325 angstrom
                   Q00  =   0.078630

H          x =  1.442391  y = -1.437543  z =  0.906049 angstrom
           Maximum rank =  0   Radius =  0.325 angstrom
                   Q00  =   0.076992

H          x =  0.255391  y = -4.119543  z =  0.053049 angstrom
           Maximum rank =  0   Radius =  0.325 angstrom
                   Q00  =   0.080645

H          x =  1.210391  y = -3.838543  z =  1.507049 angstrom
           Maximum rank =  0   Radius =  0.325 angstrom
                   Q00  =   0.076924

H          x =  1.987552  y = -3.689203  z = -0.096911 angstrom
           Maximum rank =  0   Radius =  0.325 angstrom
                   Q00  =   0.082689

Total multipoles referred to origin at
           x =   0.000000,  y =    0.000000,  z =    0.000000 angstrom
                   Q00  =  -0.000000

Finished at 7:51:15 on 27 Apr 2020

  DMA results are available in the Python driver through the
	  variable('DMA DISTRIBUTED MULTIPOLES')
  and
	  variable('DMA TOTAL MULTIPOLES')
  commands.

    Psi4 stopped on: Monday, 27 April 2020 07:51AM
    Psi4 wall time for execution: 0:00:26.67

*** Psi4 exiting successfully. Buy a developer a beer!
