                               Psi4 1.3.2 release

  ==> Input File <==

--------------------------------------------------------------------------
import numpy as np
set {scf_type pk
basis cc-pvdz
d_convergence 10
gdma_switch   0
gdma_limit    0
gdma_origin   [ 0.0,  0.0,  0.0 ]
}
molecule test {
    units Angstrom
    0 1
    --
    0 1
    C                0.623594273750312     0.395059160376311    -0.197995241016111
    C                2.004594273750312     0.257059160377311     0.446004758983889
    S                0.665594273750312     1.125059160377311    -1.847995241016111
    H                0.155594273750312    -0.590940839622689    -0.253995241016111
    H               -0.001405726249688     1.030059160377311     0.433004758983889
    H                2.507594273750313     1.224059160377311     0.364004758983889
    H               -0.643405726249688     1.041059160377311    -2.113995241016112
    H                2.592914273750313    -0.501500839623689    -0.091089241016111
    H                1.886334273750312     0.052989160377311     1.520421758983889
    C               -2.249405726249688    -1.685940839622689     1.178004758983888
    C               -1.705405726249688    -1.379940839622689     2.565004758983889
    H               -2.235405726249688    -0.780940839622689     0.579004758983889
    H               -1.608405726249688    -2.425940839622688     0.708004758983889
    H               -3.265405726249687    -2.080940839622689     1.246004758983889
    H               -0.765405726249688    -0.845940839622689     2.466004758983888
    H               -2.417645726249687    -0.759790839622689     3.129038758983889
    H               -1.524685726249688    -2.313090839623689     3.118699758983889

}
e, wfn = energy('scf', return_wfn=True)
gdma(wfn)
dmavals = variable('DMA DISTRIBUTED MULTIPOLES')
charges = np.array(dmavals)
print(charges)
np.save('SSI-015CYS-057LEU-1-dimer.npy', np.array(charges))--------------------------------------------------------------------------

*** tstart() called on ds3
*** at Mon Apr 27 22:30:03 2020

   => Loading Basis Set <=

    Name: CC-PVDZ
    Role: ORBITAL
    Keyword: BASIS
    atoms 1-2, 10-11 entry C          line   138 file /theoryfs2/ds/metcalf/miniconda2/envs/tf2gpu/share/psi4/basis/cc-pvdz.gbs
    atoms 3          entry S          line   598 file /theoryfs2/ds/metcalf/miniconda2/envs/tf2gpu/share/psi4/basis/cc-pvdz.gbs
    atoms 4-9, 12-17 entry H          line    22 file /theoryfs2/ds/metcalf/miniconda2/envs/tf2gpu/share/psi4/basis/cc-pvdz.gbs

         ---------------------------------------------------------
                                   SCF
               by Justin Turney, Rob Parrish, Andy Simmonett
                          and Daniel G. A. Smith
                              RHF Reference
                        1 Threads,    500 MiB Core
         ---------------------------------------------------------

  ==> Geometry <==

    Molecular point group: c1
    Full point group: C1

    Geometry (in Angstrom), charge = 0, multiplicity = 1:

       Center              X                  Y                   Z               Mass
    ------------   -----------------  -----------------  -----------------  -----------------
         C            0.623594273750     0.395059160376    -0.197995241016    12.000000000000
         C            2.004594273750     0.257059160377     0.446004758984    12.000000000000
         S            0.665594273750     1.125059160377    -1.847995241016    31.972071174400
         H            0.155594273750    -0.590940839623    -0.253995241016     1.007825032230
         H           -0.001405726250     1.030059160377     0.433004758984     1.007825032230
         H            2.507594273750     1.224059160377     0.364004758984     1.007825032230
         H           -0.643405726250     1.041059160377    -2.113995241016     1.007825032230
         H            2.592914273750    -0.501500839624    -0.091089241016     1.007825032230
         H            1.886334273750     0.052989160377     1.520421758984     1.007825032230
         C           -2.249405726250    -1.685940839623     1.178004758984    12.000000000000
         C           -1.705405726250    -1.379940839623     2.565004758984    12.000000000000
         H           -2.235405726250    -0.780940839623     0.579004758984     1.007825032230
         H           -1.608405726250    -2.425940839623     0.708004758984     1.007825032230
         H           -3.265405726250    -2.080940839623     1.246004758984     1.007825032230
         H           -0.765405726250    -0.845940839623     2.466004758984     1.007825032230
         H           -2.417645726250    -0.759790839623     3.129038758984     1.007825032230
         H           -1.524685726250    -2.313090839624     3.118699758984     1.007825032230

  Running in c1 symmetry.

  Rotational constants: A =      0.16181  B =      0.03523  C =      0.03002 [cm^-1]
  Rotational constants: A =   4850.92290  B =   1056.10268  C =    900.11154 [MHz]
  Nuclear repulsion =  218.608373415268801

  Charge       = 0
  Multiplicity = 1
  Electrons    = 52
  Nalpha       = 26
  Nbeta        = 26

  ==> Algorithm <==

  SCF Algorithm Type is PK.
  DIIS enabled.
  MOM disabled.
  Fractional occupation disabled.
  Guess Type is SAD.
  Energy threshold   = 1.00e-06
  Density threshold  = 1.00e-10
  Integral threshold = 0.00e+00

  ==> Primary Basis <==

  Basis Set: CC-PVDZ
    Blend: CC-PVDZ
    Number of shells: 68
    Number of basis function: 134
    Number of Cartesian functions: 139
    Spherical Harmonics?: true
    Max angular momentum: 2

  ==> Pre-Iterations <==

   -------------------------------------------------------
    Irrep   Nso     Nmo     Nalpha   Nbeta   Ndocc  Nsocc
   -------------------------------------------------------
     A        134     134       0       0       0       0
   -------------------------------------------------------
    Total     134     134      26      26      26       0
   -------------------------------------------------------

  ==> Integral Setup <==

  Using integral reordering PK algorithm.
  Sizing the integral batches needed.
  Building batch lookup table.
   Calculation information:
      Number of atoms:                  17
      Number of AO shells:              68
      Number of primitives:            198
      Number of atomic orbitals:       139
      Number of basis functions:       134

      Integral cutoff                 1.00e-12
      Number of threads:                 1

	Batch   1 pq = [       0,    9045] index = [             0,40910535] size =     40910535
  Task number: 4
  Buffer size: 11059200
  Buffer per thread: 2
  We computed 2362823 shell quartets total.
  Whereas there are 2753031 unique shell quartets.

  ==> DiskJK: Disk-Based J/K Matrices <==

    J tasked:                  Yes
    K tasked:                  Yes
    wK tasked:                  No
    Memory [MiB]:              375
    Schwarz Cutoff:          1E-12

    OpenMP threads:              1

  Minimum eigenvalue in the overlap matrix is 6.5004619910E-03.
  Using Symmetric Orthogonalization.

  SCF Guess: Superposition of Atomic Densities via on-the-fly atomic UHF.

  ==> Iterations <==

                        Total Energy        Delta E     RMS |[F,P]|

   @RHF iter SAD:  -555.00624080068212   -5.55006e+02   0.00000e+00
   @RHF iter   1:  -555.83419779294582   -8.27957e-01   3.55728e-03 DIIS
   @RHF iter   2:  -555.96909699642470   -1.34899e-01   1.49207e-03 DIIS
   @RHF iter   3:  -555.99121556735008   -2.21186e-02   3.28807e-04 DIIS
   @RHF iter   4:  -555.99325785858446   -2.04229e-03   6.59464e-05 DIIS
   @RHF iter   5:  -555.99331865883710   -6.08003e-05   2.03126e-05 DIIS
   @RHF iter   6:  -555.99332455353340   -5.89470e-06   3.82895e-06 DIIS
   @RHF iter   7:  -555.99332484495972   -2.91426e-07   9.37884e-07 DIIS
   @RHF iter   8:  -555.99332486677861   -2.18189e-08   2.90007e-07 DIIS
   @RHF iter   9:  -555.99332486883384   -2.05523e-09   6.96950e-08 DIIS
   @RHF iter  10:  -555.99332486897060   -1.36765e-10   1.52203e-08 DIIS
   @RHF iter  11:  -555.99332486897652   -5.91172e-12   4.79263e-09 DIIS
   @RHF iter  12:  -555.99332486897640    1.13687e-13   1.78875e-09 DIIS
   @RHF iter  13:  -555.99332486897720   -7.95808e-13   5.36494e-10 DIIS
   @RHF iter  14:  -555.99332486897697    2.27374e-13   1.55990e-10 DIIS
   @RHF iter  15:  -555.99332486897833   -1.36424e-12   4.85638e-11 DIIS
  Energy and wave function converged.

  ==> Post-Iterations <==

    Orbital Energies [Eh]
    ---------------------

    Doubly Occupied:

       1A    -91.942685     2A    -11.262049     3A    -11.237297
       4A    -11.223848     5A    -11.221896     6A     -8.946233
       7A     -6.628370     8A     -6.626914     9A     -6.624520
      10A     -1.071162    11A     -1.027272    12A     -0.945252
      13A     -0.842311    14A     -0.811817    15A     -0.630802
      16A     -0.618440    17A     -0.604963    18A     -0.603773
      19A     -0.535531    20A     -0.513741    21A     -0.506523
      22A     -0.502641    23A     -0.492870    24A     -0.490415
      25A     -0.442222    26A     -0.349602

    Virtual:

      27A      0.144676    28A      0.184816    29A      0.198333
      30A      0.212206    31A      0.226507    32A      0.238152
      33A      0.248834    34A      0.252463    35A      0.262902
      36A      0.274078    37A      0.287578    38A      0.310582
      39A      0.350720    40A      0.368280    41A      0.392700
      42A      0.515372    43A      0.570778    44A      0.581716
      45A      0.593319    46A      0.598529    47A      0.602634
      48A      0.643146    49A      0.661785    50A      0.670911
      51A      0.685885    52A      0.699013    53A      0.720973
      54A      0.779524    55A      0.794478    56A      0.802257
      57A      0.836797    58A      0.856809    59A      0.869065
      60A      0.873375    61A      0.875733    62A      0.882801
      63A      0.893920    64A      0.900187    65A      0.903352
      66A      0.916825    67A      0.933140    68A      0.951401
      69A      0.968595    70A      0.974727    71A      0.997005
      72A      1.023391    73A      1.118024    74A      1.127071
      75A      1.197150    76A      1.224689    77A      1.247807
      78A      1.301164    79A      1.308976    80A      1.395137
      81A      1.471955    82A      1.476334    83A      1.480666
      84A      1.566330    85A      1.597554    86A      1.626448
      87A      1.664729    88A      1.679047    89A      1.688791
      90A      1.715119    91A      1.742653    92A      1.845310
      93A      1.853155    94A      1.862986    95A      1.879127
      96A      1.892507    97A      1.899142    98A      1.910734
      99A      1.936636   100A      1.940502   101A      1.948106
     102A      1.951340   103A      1.955304   104A      1.970554
     105A      2.010389   106A      2.024661   107A      2.047166
     108A      2.113146   109A      2.125774   110A      2.140419
     111A      2.217108   112A      2.254035   113A      2.298676
     114A      2.300917   115A      2.312678   116A      2.401054
     117A      2.446079   118A      2.451541   119A      2.456714
     120A      2.535531   121A      2.559028   122A      2.570965
     123A      2.582751   124A      2.753919   125A      2.765506
     126A      2.790721   127A      2.797186   128A      2.805264
     129A      2.841079   130A      2.851470   131A      2.868426
     132A      2.945977   133A      2.954656   134A      2.971953

    Final Occupation by Irrep:
              A
    DOCC [    26 ]

  @RHF Final Energy:  -555.99332486897833

   => Energetics <=

    Nuclear Repulsion Energy =            218.6083734152688010
    One-Electron Energy =               -1195.7970904407932267
    Two-Electron Energy =                 421.1953921565460632
    Total Energy =                       -555.9933248689783341

Computation Completed

Properties will be evaluated at   0.000000,   0.000000,   0.000000 [a0]

Properties computed using the SCF density matrix

  Nuclear Dipole Moment: [e a0]
     X:    -4.9691      Y:    -6.4866      Z:    10.3619

  Electronic Dipole Moment: [e a0]
     X:     4.6322      Y:     6.2027      Z:    -9.8291

  Dipole Moment: [e a0]
     X:    -0.3369      Y:    -0.2839      Z:     0.5328     Total:     0.6914

  Dipole Moment: [D]
     X:    -0.8563      Y:    -0.7217      Z:     1.3542     Total:     1.7573

*** tstop() called on ds3 at Mon Apr 27 22:30:27 2020
Module time:
	user time   =      18.15 seconds =       0.30 minutes
	system time =       6.70 seconds =       0.11 minutes
	total time  =         24 seconds =       0.40 minutes
Total time:
	user time   =      18.15 seconds =       0.30 minutes
	system time =       6.70 seconds =       0.11 minutes
	total time  =         24 seconds =       0.40 minutes
                                     G D M A

                                 by Anthony Stone

                           version 2.2.06, 22 June 2011

               Distributed Multipoles from Gaussian wavefunctions

Starting at 22:30:27 on 27 Apr 2020

Using SCF density matrix from file ./SSI/SSI-015CYS-057LEU-1-dimer.test.31066.fchk

                         Distributed Multipole Analysis

Standard DMA

Positions and radii in angstrom
Multipole moments in atomic units, ea_0^k for rank k

C          x =  0.623594  y =  0.395059  z = -0.197995 angstrom
           Maximum rank =  0   Radius =  0.650 angstrom
                   Q00  =  -0.204204

C          x =  2.004594  y =  0.257059  z =  0.446005 angstrom
           Maximum rank =  0   Radius =  0.650 angstrom
                   Q00  =  -0.209428

S          x =  0.665594  y =  1.125059  z = -1.847995 angstrom
           Maximum rank =  0   Radius =  0.650 angstrom
                   Q00  =  -0.108576

H          x =  0.155594  y = -0.590941  z = -0.253995 angstrom
           Maximum rank =  0   Radius =  0.325 angstrom
                   Q00  =   0.070435

H          x = -0.001406  y =  1.030059  z =  0.433005 angstrom
           Maximum rank =  0   Radius =  0.325 angstrom
                   Q00  =   0.063008

H          x =  2.507594  y =  1.224059  z =  0.364005 angstrom
           Maximum rank =  0   Radius =  0.325 angstrom
                   Q00  =   0.086399

H          x = -0.643406  y =  1.041059  z = -2.113995 angstrom
           Maximum rank =  0   Radius =  0.325 angstrom
                   Q00  =   0.113086

H          x =  2.592914  y = -0.501501  z = -0.091089 angstrom
           Maximum rank =  0   Radius =  0.325 angstrom
                   Q00  =   0.091895

H          x =  1.886334  y =  0.052989  z =  1.520422 angstrom
           Maximum rank =  0   Radius =  0.325 angstrom
                   Q00  =   0.097546

C          x = -2.249406  y = -1.685941  z =  1.178005 angstrom
           Maximum rank =  0   Radius =  0.650 angstrom
                   Q00  =  -0.236479

C          x = -1.705406  y = -1.379941  z =  2.565005 angstrom
           Maximum rank =  0   Radius =  0.650 angstrom
                   Q00  =  -0.233044

H          x = -2.235406  y = -0.780941  z =  0.579005 angstrom
           Maximum rank =  0   Radius =  0.325 angstrom
                   Q00  =   0.075421

H          x = -1.608406  y = -2.425941  z =  0.708005 angstrom
           Maximum rank =  0   Radius =  0.325 angstrom
                   Q00  =   0.077691

H          x = -3.265406  y = -2.080941  z =  1.246005 angstrom
           Maximum rank =  0   Radius =  0.325 angstrom
                   Q00  =   0.082571

H          x = -0.765406  y = -0.845941  z =  2.466005 angstrom
           Maximum rank =  0   Radius =  0.325 angstrom
                   Q00  =   0.075441

H          x = -2.417646  y = -0.759791  z =  3.129039 angstrom
           Maximum rank =  0   Radius =  0.325 angstrom
                   Q00  =   0.078981

H          x = -1.524686  y = -2.313091  z =  3.118700 angstrom
           Maximum rank =  0   Radius =  0.325 angstrom
                   Q00  =   0.079258

Total multipoles referred to origin at
           x =   0.000000,  y =    0.000000,  z =    0.000000 angstrom
                   Q00  =   0.000000

Finished at 22:30:27 on 27 Apr 2020

  DMA results are available in the Python driver through the
	  variable('DMA DISTRIBUTED MULTIPOLES')
  and
	  variable('DMA TOTAL MULTIPOLES')
  commands.

    Psi4 stopped on: Monday, 27 April 2020 10:30PM
    Psi4 wall time for execution: 0:00:24.27

*** Psi4 exiting successfully. Buy a developer a beer!
