                               Psi4 1.3.2 release

  ==> Input File <==

--------------------------------------------------------------------------
import numpy as np
set {scf_type pk
basis cc-pvdz
d_convergence 10
gdma_switch   0
gdma_limit    0
gdma_origin   [ 0.0,  0.0,  0.0 ]
}
molecule test {
    units Angstrom
    0 1
    --
    0 1
    C                1.295100895406595    -3.016715597016782    -0.413211112718229
    C                2.560100895406595    -3.371715597016782     0.371788887281771
    H                0.574100895406595    -2.546715597016782     0.255788887281771
    H                1.533100895406595    -2.325715597016782    -1.221211112718229
    H                0.831100895406595    -3.913715597016782    -0.820211112718229
    H                2.294100895406595    -4.095715597016782     1.140788887281771
    H                3.315490895406594    -3.807904597016782    -0.298381112718229
    H                2.980780895406595    -2.490222597016782     0.877748887281771
    C                1.634100895406595     1.732284402983218    -0.613211112718229
    C                0.030100895406595     0.287284402983218     0.703788887281771
    C                0.241100895406595     1.318284402983218    -0.204211112718229
    C               -1.256899104593405    -0.096715597016782     1.045788887281771
    C               -0.854899104593405     1.930284402983218    -0.789211112718229
    C               -2.340899104593405     0.515284402983218     0.452788887281771
    C               -2.137899104593406     1.531284402983218    -0.461211112718229
    H                0.871100895406595    -0.201715597016782     1.167788887281771
    H               -1.415899104593406    -0.887715597016782     1.764788887281771
    H                1.593100895406595     2.065284402983218    -1.653211112718229
    H                2.291100895406595     0.861284402983218    -0.585211112718229
    H               -0.714899104593405     2.724284402983218    -1.509211112718229
    H               -3.343899104593406     0.197284402983218     0.696788887281771
    H               -2.986899104593406     2.003284402983218    -0.923211112718229
    H                2.061380895406595     2.540574402983218    -0.001571112718229

}
e, wfn = energy('scf', return_wfn=True)
gdma(wfn)
dmavals = variable('DMA DISTRIBUTED MULTIPOLES')
charges = np.array(dmavals)
print(charges)
np.save('SSI-023LEU-035PHE-1-dimer.npy', np.array(charges))--------------------------------------------------------------------------

*** tstart() called on ds3
*** at Tue Apr 28 16:49:13 2020

   => Loading Basis Set <=

    Name: CC-PVDZ
    Role: ORBITAL
    Keyword: BASIS
    atoms 1-2, 9-15  entry C          line   138 file /theoryfs2/ds/metcalf/miniconda2/envs/tf2gpu/share/psi4/basis/cc-pvdz.gbs
    atoms 3-8, 16-23 entry H          line    22 file /theoryfs2/ds/metcalf/miniconda2/envs/tf2gpu/share/psi4/basis/cc-pvdz.gbs

         ---------------------------------------------------------
                                   SCF
               by Justin Turney, Rob Parrish, Andy Simmonett
                          and Daniel G. A. Smith
                              RHF Reference
                        1 Threads,    500 MiB Core
         ---------------------------------------------------------

  ==> Geometry <==

    Molecular point group: c1
    Full point group: C1

    Geometry (in Angstrom), charge = 0, multiplicity = 1:

       Center              X                  Y                   Z               Mass
    ------------   -----------------  -----------------  -----------------  -----------------
         C            1.295100895407    -3.016715597017    -0.413211112718    12.000000000000
         C            2.560100895407    -3.371715597017     0.371788887282    12.000000000000
         H            0.574100895407    -2.546715597017     0.255788887282     1.007825032230
         H            1.533100895407    -2.325715597017    -1.221211112718     1.007825032230
         H            0.831100895407    -3.913715597017    -0.820211112718     1.007825032230
         H            2.294100895407    -4.095715597017     1.140788887282     1.007825032230
         H            3.315490895407    -3.807904597017    -0.298381112718     1.007825032230
         H            2.980780895407    -2.490222597017     0.877748887282     1.007825032230
         C            1.634100895407     1.732284402983    -0.613211112718    12.000000000000
         C            0.030100895407     0.287284402983     0.703788887282    12.000000000000
         C            0.241100895407     1.318284402983    -0.204211112718    12.000000000000
         C           -1.256899104593    -0.096715597017     1.045788887282    12.000000000000
         C           -0.854899104593     1.930284402983    -0.789211112718    12.000000000000
         C           -2.340899104593     0.515284402983     0.452788887282    12.000000000000
         C           -2.137899104593     1.531284402983    -0.461211112718    12.000000000000
         H            0.871100895407    -0.201715597017     1.167788887282     1.007825032230
         H           -1.415899104593    -0.887715597017     1.764788887282     1.007825032230
         H            1.593100895407     2.065284402983    -1.653211112718     1.007825032230
         H            2.291100895407     0.861284402983    -0.585211112718     1.007825032230
         H           -0.714899104593     2.724284402983    -1.509211112718     1.007825032230
         H           -3.343899104593     0.197284402983     0.696788887282     1.007825032230
         H           -2.986899104593     2.003284402983    -0.923211112718     1.007825032230
         H            2.061380895407     2.540574402983    -0.001571112718     1.007825032230

  Running in c1 symmetry.

  Rotational constants: A =      0.07247  B =      0.02493  C =      0.02033 [cm^-1]
  Rotational constants: A =   2172.45267  B =    747.35522  C =    609.48796 [MHz]
  Nuclear repulsion =  406.937019082289567

  Charge       = 0
  Multiplicity = 1
  Electrons    = 68
  Nalpha       = 34
  Nbeta        = 34

  ==> Algorithm <==

  SCF Algorithm Type is PK.
  DIIS enabled.
  MOM disabled.
  Fractional occupation disabled.
  Guess Type is SAD.
  Energy threshold   = 1.00e-06
  Density threshold  = 1.00e-10
  Integral threshold = 0.00e+00

  ==> Primary Basis <==

  Basis Set: CC-PVDZ
    Blend: CC-PVDZ
    Number of shells: 96
    Number of basis function: 196
    Number of Cartesian functions: 205
    Spherical Harmonics?: true
    Max angular momentum: 2

  ==> Pre-Iterations <==

   -------------------------------------------------------
    Irrep   Nso     Nmo     Nalpha   Nbeta   Ndocc  Nsocc
   -------------------------------------------------------
     A        196     196       0       0       0       0
   -------------------------------------------------------
    Total     196     196      34      34      34       0
   -------------------------------------------------------

  ==> Integral Setup <==

  Using integral reordering PK algorithm.
  Sizing the integral batches needed.
  Building batch lookup table.
   Calculation information:
      Number of atoms:                  23
      Number of AO shells:              96
      Number of primitives:            268
      Number of atomic orbitals:       205
      Number of basis functions:       196

      Integral cutoff                 1.00e-12
      Number of threads:                 1

	Batch   1 pq = [       0,    9405] index = [             0,44231715] size =     44231715
	Batch   2 pq = [    9405,   13301] index = [      44231715,88464951] size =     44233236
	Batch   3 pq = [   13301,   16290] index = [      88464951,132690195] size =     44225244
	Batch   4 pq = [   16290,   18810] index = [     132690195,176917455] size =     44227260
	Batch   5 pq = [   18810,   19306] index = [     176917455,186370471] size =      9453016
  Task number: 17
  Buffer size: 11059200
  Buffer per thread: 2
  We computed 9358913 shell quartets total.
  Whereas there are 10841496 unique shell quartets.

  ==> DiskJK: Disk-Based J/K Matrices <==

    J tasked:                  Yes
    K tasked:                  Yes
    wK tasked:                  No
    Memory [MiB]:              375
    Schwarz Cutoff:          1E-12

    OpenMP threads:              1

  Minimum eigenvalue in the overlap matrix is 2.9413696251E-04.
  Using Symmetric Orthogonalization.

  SCF Guess: Superposition of Atomic Densities via on-the-fly atomic UHF.

  ==> Iterations <==

                        Total Energy        Delta E     RMS |[F,P]|

   @RHF iter SAD:  -347.95160179918548   -3.47952e+02   0.00000e+00
   @RHF iter   1:  -348.76500479818043   -8.13403e-01   2.91568e-03 DIIS
   @RHF iter   2:  -348.95949358995949   -1.94489e-01   1.21356e-03 DIIS
   @RHF iter   3:  -348.99020911565572   -3.07155e-02   2.58897e-04 DIIS
   @RHF iter   4:  -348.99268551511369   -2.47640e-03   5.29704e-05 DIIS
   @RHF iter   5:  -348.99275952829043   -7.40132e-05   1.76664e-05 DIIS
   @RHF iter   6:  -348.99276713100699   -7.60272e-06   4.75408e-06 DIIS
   @RHF iter   7:  -348.99276776726180   -6.36255e-07   1.26659e-06 DIIS
   @RHF iter   8:  -348.99276781814791   -5.08861e-08   3.05289e-07 DIIS
   @RHF iter   9:  -348.99276782405724   -5.90933e-09   1.36426e-07 DIIS
   @RHF iter  10:  -348.99276782535651   -1.29927e-09   6.29165e-08 DIIS
   @RHF iter  11:  -348.99276782583286   -4.76348e-10   2.33936e-08 DIIS
   @RHF iter  12:  -348.99276782589334   -6.04814e-11   9.37065e-09 DIIS
   @RHF iter  13:  -348.99276782590169   -8.35598e-12   3.65672e-09 DIIS
   @RHF iter  14:  -348.99276782590152    1.70530e-13   8.60960e-10 DIIS
   @RHF iter  15:  -348.99276782590243   -9.09495e-13   3.65395e-10 DIIS
   @RHF iter  16:  -348.99276782590078    1.64846e-12   1.27445e-10 DIIS
   @RHF iter  17:  -348.99276782590283   -2.04636e-12   5.04417e-11 DIIS
  Energy and wave function converged.

  ==> Post-Iterations <==

    Orbital Energies [Eh]
    ---------------------

    Doubly Occupied:

       1A    -11.238524     2A    -11.232444     3A    -11.231379
       4A    -11.229532     5A    -11.228461     6A    -11.227703
       7A    -11.227482     8A    -11.219124     9A    -11.213866
      10A     -1.157308    11A     -1.045805    12A     -1.016744
      13A     -1.013628    14A     -0.931862    15A     -0.835901
      16A     -0.826347    17A     -0.796530    18A     -0.693452
      19A     -0.633599    20A     -0.628709    21A     -0.597783
      22A     -0.595763    23A     -0.582167    24A     -0.576850
      25A     -0.562730    26A     -0.533936    27A     -0.499944
      28A     -0.491757    29A     -0.484989    30A     -0.484233
      31A     -0.482330    32A     -0.480413    33A     -0.332948
      34A     -0.323745

    Virtual:

      35A      0.137555    36A      0.141123    37A      0.163959
      38A      0.195325    39A      0.200946    40A      0.226094
      41A      0.228983    42A      0.239120    43A      0.249912
      44A      0.259530    45A      0.264550    46A      0.270510
      47A      0.287846    48A      0.299265    49A      0.322334
      50A      0.335303    51A      0.370370    52A      0.384017
      53A      0.396109    54A      0.457386    55A      0.468096
      56A      0.483263    57A      0.500440    58A      0.565081
      59A      0.590596    60A      0.598593    61A      0.603468
      62A      0.612979    63A      0.640095    64A      0.672294
      65A      0.672683    66A      0.688634    67A      0.696441
      68A      0.707927    69A      0.720431    70A      0.740875
      71A      0.743386    72A      0.750118    73A      0.764605
      74A      0.775271    75A      0.781010    76A      0.811022
      77A      0.843815    78A      0.845971    79A      0.862868
      80A      0.865774    81A      0.872061    82A      0.879747
      83A      0.886572    84A      0.893451    85A      0.895765
      86A      0.899469    87A      0.911619    88A      0.915782
      89A      0.932772    90A      0.945678    91A      0.971836
      92A      0.978694    93A      0.985608    94A      1.008678
      95A      1.031715    96A      1.057855    97A      1.118280
      98A      1.124404    99A      1.135130   100A      1.147078
     101A      1.152940   102A      1.170018   103A      1.188356
     104A      1.238005   105A      1.241406   106A      1.250309
     107A      1.262137   108A      1.270504   109A      1.305295
     110A      1.315579   111A      1.325192   112A      1.340625
     113A      1.415333   114A      1.475276   115A      1.482622
     116A      1.509198   117A      1.516733   118A      1.554553
     119A      1.587739   120A      1.604185   121A      1.676548
     122A      1.684199   123A      1.698432   124A      1.703305
     125A      1.743820   126A      1.760755   127A      1.769162
     128A      1.800907   129A      1.817928   130A      1.862783
     131A      1.869638   132A      1.880626   133A      1.888707
     134A      1.893971   135A      1.903291   136A      1.912948
     137A      1.922289   138A      1.925259   139A      1.943675
     140A      1.946293   141A      1.948983   142A      1.955749
     143A      1.961251   144A      1.970262   145A      1.976929
     146A      1.987226   147A      1.988424   148A      1.997071
     149A      2.042024   150A      2.071836   151A      2.076101
     152A      2.093593   153A      2.114644   154A      2.123298
     155A      2.153197   156A      2.158526   157A      2.177949
     158A      2.186778   159A      2.191722   160A      2.262245
     161A      2.284936   162A      2.295064   163A      2.301244
     164A      2.305349   165A      2.318248   166A      2.326456
     167A      2.330613   168A      2.461601   169A      2.464685
     170A      2.475088   171A      2.484706   172A      2.501500
     173A      2.548977   174A      2.560238   175A      2.582284
     176A      2.626582   177A      2.743162   178A      2.761481
     179A      2.768507   180A      2.768811   181A      2.792041
     182A      2.801518   183A      2.826638   184A      2.853246
     185A      2.857762   186A      2.864757   187A      2.876452
     188A      2.957720   189A      2.967311   190A      3.004054
     191A      3.027100   192A      3.030555   193A      3.169277
     194A      3.217662   195A      3.319583   196A      3.998373

    Final Occupation by Irrep:
              A
    DOCC [    34 ]

  @RHF Final Energy:  -348.99276782590283

   => Energetics <=

    Nuclear Repulsion Energy =            406.9370190822895665
    One-Electron Energy =               -1276.5435957332506405
    Two-Electron Energy =                 520.6138088250582996
    Total Energy =                       -348.9927678259027743

Computation Completed

Properties will be evaluated at   0.000000,   0.000000,   0.000000 [a0]

Properties computed using the SCF density matrix

  Nuclear Dipole Moment: [e a0]
     X:     9.2657      Y:    -9.2598      Z:    -1.0392

  Electronic Dipole Moment: [e a0]
     X:    -9.2030      Y:     9.3045      Z:     0.9876

  Dipole Moment: [e a0]
     X:     0.0627      Y:     0.0447      Z:    -0.0516     Total:     0.0927

  Dipole Moment: [D]
     X:     0.1595      Y:     0.1137      Z:    -0.1311     Total:     0.2357

*** tstop() called on ds3 at Tue Apr 28 16:50:41 2020
Module time:
	user time   =      63.32 seconds =       1.06 minutes
	system time =      26.94 seconds =       0.45 minutes
	total time  =         88 seconds =       1.47 minutes
Total time:
	user time   =      63.32 seconds =       1.06 minutes
	system time =      26.94 seconds =       0.45 minutes
	total time  =         88 seconds =       1.47 minutes
                                     G D M A

                                 by Anthony Stone

                           version 2.2.06, 22 June 2011

               Distributed Multipoles from Gaussian wavefunctions

Starting at 16:50:41 on 28 Apr 2020

Using SCF density matrix from file ./SSI/SSI-023LEU-035PHE-1-dimer.test.19683.fchk

                         Distributed Multipole Analysis

Standard DMA

Positions and radii in angstrom
Multipole moments in atomic units, ea_0^k for rank k

C          x =  1.295101  y = -3.016716  z = -0.413211 angstrom
           Maximum rank =  0   Radius =  0.650 angstrom
                   Q00  =  -0.227942

C          x =  2.560101  y = -3.371716  z =  0.371789 angstrom
           Maximum rank =  0   Radius =  0.650 angstrom
                   Q00  =  -0.245798

H          x =  0.574101  y = -2.546716  z =  0.255789 angstrom
           Maximum rank =  0   Radius =  0.325 angstrom
                   Q00  =   0.080970

H          x =  1.533101  y = -2.325716  z = -1.221211 angstrom
           Maximum rank =  0   Radius =  0.325 angstrom
                   Q00  =   0.079841

H          x =  0.831101  y = -3.913716  z = -0.820211 angstrom
           Maximum rank =  0   Radius =  0.325 angstrom
                   Q00  =   0.080088

H          x =  2.294101  y = -4.095716  z =  1.140789 angstrom
           Maximum rank =  0   Radius =  0.325 angstrom
                   Q00  =   0.077681

H          x =  3.315491  y = -3.807905  z = -0.298381 angstrom
           Maximum rank =  0   Radius =  0.325 angstrom
                   Q00  =   0.079579

H          x =  2.980781  y = -2.490223  z =  0.877749 angstrom
           Maximum rank =  0   Radius =  0.325 angstrom
                   Q00  =   0.074685

C          x =  1.634101  y =  1.732284  z = -0.613211 angstrom
           Maximum rank =  0   Radius =  0.650 angstrom
                   Q00  =  -0.204436

C          x =  0.030101  y =  0.287284  z =  0.703789 angstrom
           Maximum rank =  0   Radius =  0.650 angstrom
                   Q00  =  -0.028369

C          x =  0.241101  y =  1.318284  z = -0.204211 angstrom
           Maximum rank =  0   Radius =  0.650 angstrom
                   Q00  =  -0.096950

C          x = -1.256899  y = -0.096716  z =  1.045789 angstrom
           Maximum rank =  0   Radius =  0.650 angstrom
                   Q00  =  -0.079100

C          x = -0.854899  y =  1.930284  z = -0.789211 angstrom
           Maximum rank =  0   Radius =  0.650 angstrom
                   Q00  =  -0.086383

C          x = -2.340899  y =  0.515284  z =  0.452789 angstrom
           Maximum rank =  0   Radius =  0.650 angstrom
                   Q00  =  -0.076723

C          x = -2.137899  y =  1.531284  z = -0.461211 angstrom
           Maximum rank =  0   Radius =  0.650 angstrom
                   Q00  =  -0.019488

H          x =  0.871101  y = -0.201716  z =  1.167789 angstrom
           Maximum rank =  0   Radius =  0.325 angstrom
                   Q00  =   0.055605

H          x = -1.415899  y = -0.887716  z =  1.764789 angstrom
           Maximum rank =  0   Radius =  0.325 angstrom
                   Q00  =   0.061539

H          x =  1.593101  y =  2.065284  z = -1.653211 angstrom
           Maximum rank =  0   Radius =  0.325 angstrom
                   Q00  =   0.096127

H          x =  2.291101  y =  0.861284  z = -0.585211 angstrom
           Maximum rank =  0   Radius =  0.325 angstrom
                   Q00  =   0.098126

H          x = -0.714899  y =  2.724284  z = -1.509211 angstrom
           Maximum rank =  0   Radius =  0.325 angstrom
                   Q00  =   0.054796

H          x = -3.343899  y =  0.197284  z =  0.696789 angstrom
           Maximum rank =  0   Radius =  0.325 angstrom
                   Q00  =   0.058840

H          x = -2.986899  y =  2.003284  z = -0.923211 angstrom
           Maximum rank =  0   Radius =  0.325 angstrom
                   Q00  =   0.061564

H          x =  2.061381  y =  2.540574  z = -0.001571 angstrom
           Maximum rank =  0   Radius =  0.325 angstrom
                   Q00  =   0.105749

Total multipoles referred to origin at
           x =   0.000000,  y =    0.000000,  z =    0.000000 angstrom
                   Q00  =  -0.000000

Finished at 16:50:41 on 28 Apr 2020

  DMA results are available in the Python driver through the
	  variable('DMA DISTRIBUTED MULTIPOLES')
  and
	  variable('DMA TOTAL MULTIPOLES')
  commands.

    Psi4 stopped on: Tuesday, 28 April 2020 04:50PM
    Psi4 wall time for execution: 0:01:28.15

*** Psi4 exiting successfully. Buy a developer a beer!
