                               Psi4 1.3.2 release

  ==> Input File <==

--------------------------------------------------------------------------
import numpy as np
set {scf_type pk
basis cc-pvdz
d_convergence 10
gdma_switch   0
gdma_limit    0
gdma_origin   [ 0.0,  0.0,  0.0 ]
}
molecule test {
    units Angstrom
    0 1
    --
    0 1
    C               -2.562019369705142     0.460839038856761    -0.216873390295488
    C               -2.979019369705143     1.392839038856762    -1.349873390295488
    H               -2.743019369705143    -0.580160961143239    -0.485873390295488
    H               -1.498019369705143     0.579839038856761    -0.034873390295488
    H               -3.107019369705143     0.704839038856761     0.694126609704512
    H               -2.482019369705143     1.077839038856762    -2.263873390295488
    H               -4.070091369705143     1.352058038856762    -1.483663390295487
    H               -2.661481369705143     2.419064038856761    -1.113163390295488
    C                0.731980630294857    -2.466160961143239    -0.875873390295487
    C                0.462980630294857    -1.013160961143239     1.153126609704513
    C                0.854980630294857    -1.141160961143239    -0.175873390295488
    C                0.542980630294857     0.224839038856761     1.800126609704513
    C                1.015980630294857     1.346839038856761     1.115126609704512
    C                1.329980630294857    -0.016160961143239    -0.859873390295488
    C                1.419980630294857     1.219839038856761    -0.219873390295488
    H                0.083980630294857    -1.871160961143238     1.690126609704512
    H                0.225980630294857     0.318839038856761     2.830126609704512
    H                0.577980630294857    -2.291160961143239    -1.937873390295488
    H               -0.161019369705143    -2.974160961143239    -0.511873390295488
    H                1.074980630294857     2.306839038856761     1.610126609704512
    H                1.634980630294857    -0.096160961143239    -1.893873390295488
    H                1.787980630294857     2.082839038856762    -0.756873390295488
    H                1.599075630294857    -3.131170961143239    -0.749753390295487

}
e, wfn = energy('scf', return_wfn=True)
gdma(wfn)
dmavals = variable('DMA DISTRIBUTED MULTIPOLES')
charges = np.array(dmavals)
print(charges)
np.save('SSI-038VAL-072PHE-1-dimer.npy', np.array(charges))--------------------------------------------------------------------------

*** tstart() called on ds3
*** at Tue Apr 28 08:59:14 2020

   => Loading Basis Set <=

    Name: CC-PVDZ
    Role: ORBITAL
    Keyword: BASIS
    atoms 1-2, 9-15  entry C          line   138 file /theoryfs2/ds/metcalf/miniconda2/envs/tf2gpu/share/psi4/basis/cc-pvdz.gbs
    atoms 3-8, 16-23 entry H          line    22 file /theoryfs2/ds/metcalf/miniconda2/envs/tf2gpu/share/psi4/basis/cc-pvdz.gbs

         ---------------------------------------------------------
                                   SCF
               by Justin Turney, Rob Parrish, Andy Simmonett
                          and Daniel G. A. Smith
                              RHF Reference
                        1 Threads,    500 MiB Core
         ---------------------------------------------------------

  ==> Geometry <==

    Molecular point group: c1
    Full point group: C1

    Geometry (in Angstrom), charge = 0, multiplicity = 1:

       Center              X                  Y                   Z               Mass
    ------------   -----------------  -----------------  -----------------  -----------------
         C           -2.562019369705     0.460839038857    -0.216873390295    12.000000000000
         C           -2.979019369705     1.392839038857    -1.349873390295    12.000000000000
         H           -2.743019369705    -0.580160961143    -0.485873390295     1.007825032230
         H           -1.498019369705     0.579839038857    -0.034873390295     1.007825032230
         H           -3.107019369705     0.704839038857     0.694126609705     1.007825032230
         H           -2.482019369705     1.077839038857    -2.263873390295     1.007825032230
         H           -4.070091369705     1.352058038857    -1.483663390295     1.007825032230
         H           -2.661481369705     2.419064038857    -1.113163390295     1.007825032230
         C            0.731980630295    -2.466160961143    -0.875873390295    12.000000000000
         C            0.462980630295    -1.013160961143     1.153126609705    12.000000000000
         C            0.854980630295    -1.141160961143    -0.175873390295    12.000000000000
         C            0.542980630295     0.224839038857     1.800126609705    12.000000000000
         C            1.015980630295     1.346839038857     1.115126609705    12.000000000000
         C            1.329980630295    -0.016160961143    -0.859873390295    12.000000000000
         C            1.419980630295     1.219839038857    -0.219873390295    12.000000000000
         H            0.083980630295    -1.871160961143     1.690126609705     1.007825032230
         H            0.225980630295     0.318839038857     2.830126609705     1.007825032230
         H            0.577980630295    -2.291160961143    -1.937873390295     1.007825032230
         H           -0.161019369705    -2.974160961143    -0.511873390295     1.007825032230
         H            1.074980630295     2.306839038857     1.610126609705     1.007825032230
         H            1.634980630295    -0.096160961143    -1.893873390295     1.007825032230
         H            1.787980630295     2.082839038857    -0.756873390295     1.007825032230
         H            1.599075630295    -3.131170961143    -0.749753390295     1.007825032230

  Running in c1 symmetry.

  Rotational constants: A =      0.05596  B =      0.03484  C =      0.02917 [cm^-1]
  Rotational constants: A =   1677.58459  B =   1044.39533  C =    874.36501 [MHz]
  Nuclear repulsion =  420.330356982430203

  Charge       = 0
  Multiplicity = 1
  Electrons    = 68
  Nalpha       = 34
  Nbeta        = 34

  ==> Algorithm <==

  SCF Algorithm Type is PK.
  DIIS enabled.
  MOM disabled.
  Fractional occupation disabled.
  Guess Type is SAD.
  Energy threshold   = 1.00e-06
  Density threshold  = 1.00e-10
  Integral threshold = 0.00e+00

  ==> Primary Basis <==

  Basis Set: CC-PVDZ
    Blend: CC-PVDZ
    Number of shells: 96
    Number of basis function: 196
    Number of Cartesian functions: 205
    Spherical Harmonics?: true
    Max angular momentum: 2

  ==> Pre-Iterations <==

   -------------------------------------------------------
    Irrep   Nso     Nmo     Nalpha   Nbeta   Ndocc  Nsocc
   -------------------------------------------------------
     A        196     196       0       0       0       0
   -------------------------------------------------------
    Total     196     196      34      34      34       0
   -------------------------------------------------------

  ==> Integral Setup <==

  Using integral reordering PK algorithm.
  Sizing the integral batches needed.
  Building batch lookup table.
   Calculation information:
      Number of atoms:                  23
      Number of AO shells:              96
      Number of primitives:            268
      Number of atomic orbitals:       205
      Number of basis functions:       196

      Integral cutoff                 1.00e-12
      Number of threads:                 1

	Batch   1 pq = [       0,    9405] index = [             0,44231715] size =     44231715
	Batch   2 pq = [    9405,   13301] index = [      44231715,88464951] size =     44233236
	Batch   3 pq = [   13301,   16290] index = [      88464951,132690195] size =     44225244
	Batch   4 pq = [   16290,   18810] index = [     132690195,176917455] size =     44227260
	Batch   5 pq = [   18810,   19306] index = [     176917455,186370471] size =      9453016
  Task number: 17
  Buffer size: 11059200
  Buffer per thread: 2
  We computed 10750711 shell quartets total.
  Whereas there are 10841496 unique shell quartets.

  ==> DiskJK: Disk-Based J/K Matrices <==

    J tasked:                  Yes
    K tasked:                  Yes
    wK tasked:                  No
    Memory [MiB]:              375
    Schwarz Cutoff:          1E-12

    OpenMP threads:              1

  Minimum eigenvalue in the overlap matrix is 3.2093048949E-04.
  Using Symmetric Orthogonalization.

  SCF Guess: Superposition of Atomic Densities via on-the-fly atomic UHF.

  ==> Iterations <==

                        Total Energy        Delta E     RMS |[F,P]|

   @RHF iter SAD:  -347.85327274163990   -3.47853e+02   0.00000e+00
   @RHF iter   1:  -348.76790221187633   -9.14629e-01   2.88475e-03 DIIS
   @RHF iter   2:  -348.95929302064167   -1.91391e-01   1.19175e-03 DIIS
   @RHF iter   3:  -348.98903662196687   -2.97436e-02   2.59052e-04 DIIS
   @RHF iter   4:  -348.99148865427259   -2.45203e-03   5.86449e-05 DIIS
   @RHF iter   5:  -348.99157469776594   -8.60435e-05   1.98209e-05 DIIS
   @RHF iter   6:  -348.99158427073394   -9.57297e-06   5.02863e-06 DIIS
   @RHF iter   7:  -348.99158499191327   -7.21179e-07   1.19262e-06 DIIS
   @RHF iter   8:  -348.99158503666257   -4.47493e-08   2.75128e-07 DIIS
   @RHF iter   9:  -348.99158504024518   -3.58261e-09   1.01373e-07 DIIS
   @RHF iter  10:  -348.99158504075581   -5.10624e-10   3.92461e-08 DIIS
   @RHF iter  11:  -348.99158504088911   -1.33298e-10   1.55798e-08 DIIS
   @RHF iter  12:  -348.99158504091247   -2.33626e-11   8.21337e-09 DIIS
   @RHF iter  13:  -348.99158504091741   -4.94538e-12   3.51337e-09 DIIS
   @RHF iter  14:  -348.99158504091980   -2.38742e-12   1.04510e-09 DIIS
   @RHF iter  15:  -348.99158504091974    5.68434e-14   3.27667e-10 DIIS
   @RHF iter  16:  -348.99158504091918    5.68434e-13   8.16033e-11 DIIS
  Energy and wave function converged.

  ==> Post-Iterations <==

    Orbital Energies [Eh]
    ---------------------

    Doubly Occupied:

       1A    -11.242581     2A    -11.238954     3A    -11.238291
       4A    -11.234784     5A    -11.233529     6A    -11.232060
       7A    -11.229471     8A    -11.209837     9A    -11.201525
      10A     -1.152087    11A     -1.044587    12A     -1.011684
      13A     -1.008529    14A     -0.931908    15A     -0.825467
      16A     -0.825262    17A     -0.796383    18A     -0.691194
      19A     -0.632243    20A     -0.630853    21A     -0.591569
      22A     -0.588027    23A     -0.583173    24A     -0.576749
      25A     -0.563940    26A     -0.534563    27A     -0.498186
      28A     -0.486340    29A     -0.485427    30A     -0.483912
      31A     -0.476283    32A     -0.462596    33A     -0.333022
      34A     -0.323403

    Virtual:

      35A      0.133675    36A      0.137771    37A      0.174599
      38A      0.197832    39A      0.204552    40A      0.213324
      41A      0.241922    42A      0.249570    43A      0.256478
      44A      0.257036    45A      0.267716    46A      0.273244
      47A      0.286430    48A      0.288525    49A      0.303738
      50A      0.329677    51A      0.363483    52A      0.375204
      53A      0.404176    54A      0.448802    55A      0.459577
      56A      0.479697    57A      0.488619    58A      0.560934
      59A      0.581791    60A      0.588096    61A      0.592147
      62A      0.615929    63A      0.643159    64A      0.666511
      65A      0.673048    66A      0.686152    67A      0.692516
      68A      0.698280    69A      0.736527    70A      0.739872
      71A      0.745293    72A      0.757425    73A      0.764155
      74A      0.775892    75A      0.802834    76A      0.832823
      77A      0.845238    78A      0.860380    79A      0.861465
      80A      0.875255    81A      0.881415    82A      0.892872
      83A      0.894375    84A      0.900000    85A      0.900731
      86A      0.912613    87A      0.919746    88A      0.925088
      89A      0.932822    90A      0.938380    91A      0.948197
      92A      0.970317    93A      0.985298    94A      0.989462
      95A      1.030864    96A      1.112567    97A      1.115423
      98A      1.132291    99A      1.144568   100A      1.149161
     101A      1.154522   102A      1.175240   103A      1.192318
     104A      1.235312   105A      1.237235   106A      1.251835
     107A      1.256136   108A      1.295505   109A      1.300027
     110A      1.315540   111A      1.322069   112A      1.362164
     113A      1.443759   114A      1.488585   115A      1.494403
     116A      1.509180   117A      1.516603   118A      1.552840
     119A      1.596202   120A      1.617559   121A      1.673394
     122A      1.688759   123A      1.701133   124A      1.717600
     125A      1.728034   126A      1.749591   127A      1.756496
     128A      1.788045   129A      1.831445   130A      1.851186
     131A      1.865697   132A      1.874445   133A      1.879681
     134A      1.901052   135A      1.910059   136A      1.913234
     137A      1.923916   138A      1.941860   139A      1.946537
     140A      1.948167   141A      1.959817   142A      1.961618
     143A      1.967105   144A      1.971014   145A      1.977596
     146A      1.982474   147A      1.992191   148A      2.002948
     149A      2.041213   150A      2.068314   151A      2.076090
     152A      2.105846   153A      2.116873   154A      2.125185
     155A      2.145972   156A      2.157735   157A      2.164503
     158A      2.173881   159A      2.184031   160A      2.252650
     161A      2.272347   162A      2.292709   163A      2.298958
     164A      2.308811   165A      2.310642   166A      2.316552
     167A      2.334336   168A      2.465126   169A      2.468015
     170A      2.481113   171A      2.485364   172A      2.489951
     173A      2.539058   174A      2.582489   175A      2.595958
     176A      2.618095   177A      2.744883   178A      2.749332
     179A      2.767308   180A      2.774477   181A      2.779905
     182A      2.803481   183A      2.820951   184A      2.852318
     185A      2.859543   186A      2.867126   187A      2.876768
     188A      2.958660   189A      2.985788   190A      3.001919
     191A      3.014304   192A      3.018206   193A      3.149117
     194A      3.190045   195A      3.285089   196A      3.949049

    Final Occupation by Irrep:
              A
    DOCC [    34 ]

  @RHF Final Energy:  -348.99158504091918

   => Energetics <=

    Nuclear Repulsion Energy =            420.3303569824302031
    One-Electron Energy =               -1303.4470498419582327
    Two-Electron Energy =                 534.1251078186088534
    Total Energy =                       -348.9915850409191762

Computation Completed

Properties will be evaluated at   0.000000,   0.000000,   0.000000 [a0]

Properties computed using the SCF density matrix

  Nuclear Dipole Moment: [e a0]
     X:    -9.1288      Y:    -0.0955      Z:    -4.1316

  Electronic Dipole Moment: [e a0]
     X:     9.2211      Y:    -0.0361      Z:     4.1115

  Dipole Moment: [e a0]
     X:     0.0923      Y:    -0.1315      Z:    -0.0201     Total:     0.1619

  Dipole Moment: [D]
     X:     0.2347      Y:    -0.3343      Z:    -0.0510     Total:     0.4116

*** tstop() called on ds3 at Tue Apr 28 09:00:57 2020
Module time:
	user time   =      77.21 seconds =       1.29 minutes
	system time =      29.42 seconds =       0.49 minutes
	total time  =        103 seconds =       1.72 minutes
Total time:
	user time   =      77.21 seconds =       1.29 minutes
	system time =      29.42 seconds =       0.49 minutes
	total time  =        103 seconds =       1.72 minutes
                                     G D M A

                                 by Anthony Stone

                           version 2.2.06, 22 June 2011

               Distributed Multipoles from Gaussian wavefunctions

Starting at 9:0:57 on 28 Apr 2020

Using SCF density matrix from file ./SSI/SSI-038VAL-072PHE-1-dimer.test.19275.fchk

                         Distributed Multipole Analysis

Standard DMA

Positions and radii in angstrom
Multipole moments in atomic units, ea_0^k for rank k

C          x = -2.562019  y =  0.460839  z = -0.216873 angstrom
           Maximum rank =  0   Radius =  0.650 angstrom
                   Q00  =  -0.230381

C          x = -2.979019  y =  1.392839  z = -1.349873 angstrom
           Maximum rank =  0   Radius =  0.650 angstrom
                   Q00  =  -0.238708

H          x = -2.743019  y = -0.580161  z = -0.485873 angstrom
           Maximum rank =  0   Radius =  0.325 angstrom
                   Q00  =   0.069407

H          x = -1.498019  y =  0.579839  z = -0.034873 angstrom
           Maximum rank =  0   Radius =  0.325 angstrom
                   Q00  =   0.096495

H          x = -3.107019  y =  0.704839  z =  0.694127 angstrom
           Maximum rank =  0   Radius =  0.325 angstrom
                   Q00  =   0.070594

H          x = -2.482019  y =  1.077839  z = -2.263873 angstrom
           Maximum rank =  0   Radius =  0.325 angstrom
                   Q00  =   0.075817

H          x = -4.070091  y =  1.352058  z = -1.483663 angstrom
           Maximum rank =  0   Radius =  0.325 angstrom
                   Q00  =   0.072473

H          x = -2.661481  y =  2.419064  z = -1.113163 angstrom
           Maximum rank =  0   Radius =  0.325 angstrom
                   Q00  =   0.074799

C          x =  0.731981  y = -2.466161  z = -0.875873 angstrom
           Maximum rank =  0   Radius =  0.650 angstrom
                   Q00  =  -0.205509

C          x =  0.462981  y = -1.013161  z =  1.153127 angstrom
           Maximum rank =  0   Radius =  0.650 angstrom
                   Q00  =  -0.046083

C          x =  0.854981  y = -1.141161  z = -0.175873 angstrom
           Maximum rank =  0   Radius =  0.650 angstrom
                   Q00  =  -0.093569

C          x =  0.542981  y =  0.224839  z =  1.800127 angstrom
           Maximum rank =  0   Radius =  0.650 angstrom
                   Q00  =  -0.059287

C          x =  1.015981  y =  1.346839  z =  1.115127 angstrom
           Maximum rank =  0   Radius =  0.650 angstrom
                   Q00  =  -0.084092

C          x =  1.329981  y = -0.016161  z = -0.859873 angstrom
           Maximum rank =  0   Radius =  0.650 angstrom
                   Q00  =  -0.039887

C          x =  1.419981  y =  1.219839  z = -0.219873 angstrom
           Maximum rank =  0   Radius =  0.650 angstrom
                   Q00  =  -0.081320

H          x =  0.083981  y = -1.871161  z =  1.690127 angstrom
           Maximum rank =  0   Radius =  0.325 angstrom
                   Q00  =   0.058718

H          x =  0.225981  y =  0.318839  z =  2.830127 angstrom
           Maximum rank =  0   Radius =  0.325 angstrom
                   Q00  =   0.067065

H          x =  0.577981  y = -2.291161  z = -1.937873 angstrom
           Maximum rank =  0   Radius =  0.325 angstrom
                   Q00  =   0.097942

H          x = -0.161019  y = -2.974161  z = -0.511873 angstrom
           Maximum rank =  0   Radius =  0.325 angstrom
                   Q00  =   0.098446

H          x =  1.074981  y =  2.306839  z =  1.610127 angstrom
           Maximum rank =  0   Radius =  0.325 angstrom
                   Q00  =   0.064680

H          x =  1.634981  y = -0.096161  z = -1.893873 angstrom
           Maximum rank =  0   Radius =  0.325 angstrom
                   Q00  =   0.059215

H          x =  1.787981  y =  2.082839  z = -0.756873 angstrom
           Maximum rank =  0   Radius =  0.325 angstrom
                   Q00  =   0.067462

H          x =  1.599076  y = -3.131171  z = -0.749753 angstrom
           Maximum rank =  0   Radius =  0.325 angstrom
                   Q00  =   0.105721

Total multipoles referred to origin at
           x =   0.000000,  y =    0.000000,  z =    0.000000 angstrom
                   Q00  =  -0.000000

Finished at 9:0:57 on 28 Apr 2020

  DMA results are available in the Python driver through the
	  variable('DMA DISTRIBUTED MULTIPOLES')
  and
	  variable('DMA TOTAL MULTIPOLES')
  commands.

    Psi4 stopped on: Tuesday, 28 April 2020 09:00AM
    Psi4 wall time for execution: 0:01:42.64

*** Psi4 exiting successfully. Buy a developer a beer!
