                               Psi4 1.3.2 release

  ==> Input File <==

--------------------------------------------------------------------------
import numpy as np
set {scf_type pk
basis cc-pvdz
d_convergence 10
gdma_switch   0
gdma_limit    0
gdma_origin   [ 0.0,  0.0,  0.0 ]
}
molecule test {
    units Angstrom
    0 1
    --
    0 1
    C               -2.664304494902686     0.918575691742658     1.113016168611183
    C               -1.681304494902687    -0.004424308257342     1.804016168611183
    C               -3.848304494902686     1.014575691742658     2.054016168611183
    H               -2.959304494902686     0.530575691742658     0.138016168611183
    H               -2.210304494902687     1.904575691742658     1.004016168611183
    H               -1.863304494902686    -1.036424308257342     1.502016168611183
    H               -0.660304494902686     0.295575691742658     1.572016168611183
    H               -4.554304494902686     0.221575691742658     1.808016168611183
    H               -4.341304494902686     1.983575691742658     1.969016168611183
    H               -1.903656494902686     0.122095691742658     2.873853168611182
    H               -3.437977494902686     0.863215691742658     3.063333168611183
    C               -1.061304494902686    -0.641424308257342    -2.006983831388817
    C               -0.801304494902686    -1.324424308257342    -3.342983831388817
    C                0.132695505097314    -0.368424308257342    -1.126983831388817
    C                0.668695505097314     0.923575691742658    -1.027983831388817
    C                0.680695505097314    -1.386424308257342    -0.335983831388817
    C                1.740695505097314     1.191575691742658    -0.163983831388817
    C                1.746695505097314    -1.125424308257342     0.527016168611183
    C                2.277695505097314     0.164575691742658     0.609016168611183
    O                3.309695505097313     0.451575691742658     1.449016168611183
    H               -1.593304494902686     0.293575691742658    -2.177983831388818
    H               -1.738304494902686    -1.275424308257342    -1.431983831388817
    H               -0.234304494902686    -2.244424308257342    -3.194983831388817
    H                0.249695505097314     1.726575691742658    -1.618983831388817
    H                0.266695505097314    -2.384424308257342    -0.387983831388817
    H                2.142695505097314     2.191575691742658    -0.095983831388817
    H                2.169695505097314    -1.911424308257342     1.132016168611183
    H                3.659695505097314     1.321575691742658     1.240016168611183
    H               -0.277550494902686    -0.636664308257342    -4.023183831388817
    H               -1.791379494902686    -1.539944308257342    -3.771123831388817

}
e, wfn = energy('scf', return_wfn=True)
gdma(wfn)
dmavals = variable('DMA DISTRIBUTED MULTIPOLES')
charges = np.array(dmavals)
print(charges)
np.save('SSI-004PRO-026TYR-1-dimer.npy', np.array(charges))--------------------------------------------------------------------------

*** tstart() called on ds3
*** at Tue Apr 28 04:20:19 2020

   => Loading Basis Set <=

    Name: CC-PVDZ
    Role: ORBITAL
    Keyword: BASIS
    atoms 1-3, 12-19  entry C          line   138 file /theoryfs2/ds/metcalf/miniconda2/envs/tf2gpu/share/psi4/basis/cc-pvdz.gbs
    atoms 4-11, 21-30 entry H          line    22 file /theoryfs2/ds/metcalf/miniconda2/envs/tf2gpu/share/psi4/basis/cc-pvdz.gbs
    atoms 20          entry O          line   198 file /theoryfs2/ds/metcalf/miniconda2/envs/tf2gpu/share/psi4/basis/cc-pvdz.gbs

         ---------------------------------------------------------
                                   SCF
               by Justin Turney, Rob Parrish, Andy Simmonett
                          and Daniel G. A. Smith
                              RHF Reference
                        1 Threads,    500 MiB Core
         ---------------------------------------------------------

  ==> Geometry <==

    Molecular point group: c1
    Full point group: C1

    Geometry (in Angstrom), charge = 0, multiplicity = 1:

       Center              X                  Y                   Z               Mass
    ------------   -----------------  -----------------  -----------------  -----------------
         C           -2.664304494903     0.918575691743     1.113016168611    12.000000000000
         C           -1.681304494903    -0.004424308257     1.804016168611    12.000000000000
         C           -3.848304494903     1.014575691743     2.054016168611    12.000000000000
         H           -2.959304494903     0.530575691743     0.138016168611     1.007825032230
         H           -2.210304494903     1.904575691743     1.004016168611     1.007825032230
         H           -1.863304494903    -1.036424308257     1.502016168611     1.007825032230
         H           -0.660304494903     0.295575691743     1.572016168611     1.007825032230
         H           -4.554304494903     0.221575691743     1.808016168611     1.007825032230
         H           -4.341304494903     1.983575691743     1.969016168611     1.007825032230
         H           -1.903656494903     0.122095691743     2.873853168611     1.007825032230
         H           -3.437977494903     0.863215691743     3.063333168611     1.007825032230
         C           -1.061304494903    -0.641424308257    -2.006983831389    12.000000000000
         C           -0.801304494903    -1.324424308257    -3.342983831389    12.000000000000
         C            0.132695505097    -0.368424308257    -1.126983831389    12.000000000000
         C            0.668695505097     0.923575691743    -1.027983831389    12.000000000000
         C            0.680695505097    -1.386424308257    -0.335983831389    12.000000000000
         C            1.740695505097     1.191575691743    -0.163983831389    12.000000000000
         C            1.746695505097    -1.125424308257     0.527016168611    12.000000000000
         C            2.277695505097     0.164575691743     0.609016168611    12.000000000000
         O            3.309695505097     0.451575691743     1.449016168611    15.994914619570
         H           -1.593304494903     0.293575691743    -2.177983831389     1.007825032230
         H           -1.738304494903    -1.275424308257    -1.431983831389     1.007825032230
         H           -0.234304494903    -2.244424308257    -3.194983831389     1.007825032230
         H            0.249695505097     1.726575691743    -1.618983831389     1.007825032230
         H            0.266695505097    -2.384424308257    -0.387983831389     1.007825032230
         H            2.142695505097     2.191575691743    -0.095983831389     1.007825032230
         H            2.169695505097    -1.911424308257     1.132016168611     1.007825032230
         H            3.659695505097     1.321575691743     1.240016168611     1.007825032230
         H           -0.277550494903    -0.636664308257    -4.023183831389     1.007825032230
         H           -1.791379494903    -1.539944308257    -3.771123831389     1.007825032230

  Running in c1 symmetry.

  Rotational constants: A =      0.02858  B =      0.01956  C =      0.01362 [cm^-1]
  Rotational constants: A =    856.92822  B =    586.44802  C =    408.30777 [MHz]
  Nuclear repulsion =  690.134057497922299

  Charge       = 0
  Multiplicity = 1
  Electrons    = 92
  Nalpha       = 46
  Nbeta        = 46

  ==> Algorithm <==

  SCF Algorithm Type is PK.
  DIIS enabled.
  MOM disabled.
  Fractional occupation disabled.
  Guess Type is SAD.
  Energy threshold   = 1.00e-06
  Density threshold  = 1.00e-10
  Integral threshold = 0.00e+00

  ==> Primary Basis <==

  Basis Set: CC-PVDZ
    Blend: CC-PVDZ
    Number of shells: 126
    Number of basis function: 258
    Number of Cartesian functions: 270
    Spherical Harmonics?: true
    Max angular momentum: 2

  ==> Pre-Iterations <==

   -------------------------------------------------------
    Irrep   Nso     Nmo     Nalpha   Nbeta   Ndocc  Nsocc
   -------------------------------------------------------
     A        258     258       0       0       0       0
   -------------------------------------------------------
    Total     258     258      46      46      46       0
   -------------------------------------------------------

  ==> Integral Setup <==

  Using integral reordering PK algorithm.
  Sizing the integral batches needed.
  Building batch lookup table.
   Calculation information:
      Number of atoms:                  30
      Number of AO shells:             126
      Number of primitives:            354
      Number of atomic orbitals:       270
      Number of basis functions:       258

      Integral cutoff                 1.00e-12
      Number of threads:                 1

	Batch   1 pq = [       0,    9405] index = [             0,44231715] size =     44231715
	Batch   2 pq = [    9405,   13301] index = [      44231715,88464951] size =     44233236
	Batch   3 pq = [   13301,   16290] index = [      88464951,132690195] size =     44225244
	Batch   4 pq = [   16290,   18810] index = [     132690195,176917455] size =     44227260
	Batch   5 pq = [   18810,   21030] index = [     176917455,221140965] size =     44223510
	Batch   6 pq = [   21030,   23037] index = [     221140965,265363203] size =     44222238
	Batch   7 pq = [   23037,   24883] index = [     265363203,309594286] size =     44231083
	Batch   8 pq = [   24883,   26601] index = [     309594286,353819901] size =     44225615
	Batch   9 pq = [   26601,   28214] index = [     353819901,398029005] size =     44209104
	Batch  10 pq = [   28214,   29740] index = [     398029005,442248670] size =     44219665
	Batch  11 pq = [   29740,   31191] index = [     442248670,486454836] size =     44206166
	Batch  12 pq = [   31191,   32578] index = [     486454836,530679331] size =     44224495
	Batch  13 pq = [   32578,   33411] index = [     530679331,558164166] size =     27484835
  Task number: 51
  Buffer size: 11059200
  Buffer per thread: 2
  We computed 33428084 shell quartets total.
  Whereas there are 32012001 unique shell quartets.
     4.42 percent of shell quartets recomputed by reordering.

  ==> DiskJK: Disk-Based J/K Matrices <==

    J tasked:                  Yes
    K tasked:                  Yes
    wK tasked:                  No
    Memory [MiB]:              375
    Schwarz Cutoff:          1E-12

    OpenMP threads:              1

  Minimum eigenvalue in the overlap matrix is 3.3265473556E-04.
  Using Symmetric Orthogonalization.

  SCF Guess: Superposition of Atomic Densities via on-the-fly atomic UHF.

  ==> Iterations <==

                        Total Energy        Delta E     RMS |[F,P]|

   @RHF iter SAD:  -500.83200664142549   -5.00832e+02   0.00000e+00
   @RHF iter   1:  -501.59007262845580   -7.58066e-01   2.69881e-03 DIIS
   @RHF iter   2:  -501.85834397404489   -2.68271e-01   1.16807e-03 DIIS
   @RHF iter   3:  -501.90443756661637   -4.60936e-02   2.68358e-04 DIIS
   @RHF iter   4:  -501.90816820889393   -3.73064e-03   1.14840e-04 DIIS
   @RHF iter   5:  -501.90867973931933   -5.11530e-04   1.88447e-05 DIIS
   @RHF iter   6:  -501.90870165435268   -2.19150e-05   5.70777e-06 DIIS
   @RHF iter   7:  -501.90870361748119   -1.96313e-06   1.81106e-06 DIIS
   @RHF iter   8:  -501.90870387536472   -2.57884e-07   6.58824e-07 DIIS
   @RHF iter   9:  -501.90870391568791   -4.03232e-08   2.58803e-07 DIIS
   @RHF iter  10:  -501.90870392294642   -7.25851e-09   1.03339e-07 DIIS
   @RHF iter  11:  -501.90870392513466   -2.18824e-09   4.76457e-08 DIIS
   @RHF iter  12:  -501.90870392559100   -4.56339e-10   2.18993e-08 DIIS
   @RHF iter  13:  -501.90870392567138   -8.03766e-11   8.35193e-09 DIIS
   @RHF iter  14:  -501.90870392567683   -5.45697e-12   1.90032e-09 DIIS
   @RHF iter  15:  -501.90870392567507    1.76215e-12   7.16537e-10 DIIS
   @RHF iter  16:  -501.90870392568036   -5.28644e-12   3.07653e-10 DIIS
   @RHF iter  17:  -501.90870392567990    4.54747e-13   1.49140e-10 DIIS
   @RHF iter  18:  -501.90870392567768    2.21689e-12   7.37352e-11 DIIS
  Energy and wave function converged.

  ==> Post-Iterations <==

    Orbital Energies [Eh]
    ---------------------

    Doubly Occupied:

       1A    -20.584578     2A    -11.301617     3A    -11.242287
       4A    -11.240907     5A    -11.235373     6A    -11.233085
       7A    -11.232745     8A    -11.227883     9A    -11.223645
      10A    -11.207168    11A    -11.206527    12A    -11.199362
      13A     -1.403660    14A     -1.149946    15A     -1.059265
      16A     -1.057568    17A     -1.017171    18A     -0.978361
      19A     -0.907787    20A     -0.862113    21A     -0.842656
      22A     -0.792217    23A     -0.788878    24A     -0.731393
      25A     -0.670274    26A     -0.649762    27A     -0.628614
      28A     -0.617014    29A     -0.606596    30A     -0.597308
      31A     -0.588318    32A     -0.584836    33A     -0.567739
      34A     -0.548480    35A     -0.534632    36A     -0.523518
      37A     -0.507580    38A     -0.498835    39A     -0.479975
      40A     -0.474804    41A     -0.472419    42A     -0.465959
      43A     -0.457873    44A     -0.444101    45A     -0.338543
      46A     -0.302369

    Virtual:

      47A      0.126134    48A      0.147698    49A      0.177104
      50A      0.182186    51A      0.196904    52A      0.203420
      53A      0.213038    54A      0.222599    55A      0.241036
      56A      0.246771    57A      0.250086    58A      0.254599
      59A      0.267102    60A      0.280576    61A      0.292027
      62A      0.294112    63A      0.306456    64A      0.325980
      65A      0.329189    66A      0.338456    67A      0.360803
      68A      0.377098    69A      0.387780    70A      0.410103
      71A      0.431619    72A      0.448301    73A      0.474025
      74A      0.481647    75A      0.497353    76A      0.518497
      77A      0.563800    78A      0.572078    79A      0.595222
      80A      0.612011    81A      0.614975    82A      0.623523
      83A      0.644891    84A      0.658256    85A      0.675156
      86A      0.678003    87A      0.694933    88A      0.712240
      89A      0.716936    90A      0.732801    91A      0.740386
      92A      0.753218    93A      0.760474    94A      0.767582
      95A      0.787739    96A      0.798862    97A      0.817308
      98A      0.820919    99A      0.841314   100A      0.847240
     101A      0.857925   102A      0.870330   103A      0.874068
     104A      0.882110   105A      0.886315   106A      0.890976
     107A      0.900735   108A      0.904310   109A      0.908089
     110A      0.916345   111A      0.916879   112A      0.926076
     113A      0.936269   114A      0.937076   115A      0.941770
     116A      0.946984   117A      0.955163   118A      0.958449
     119A      0.966630   120A      0.975444   121A      1.000908
     122A      1.014997   123A      1.023257   124A      1.035477
     125A      1.061173   126A      1.080511   127A      1.114065
     128A      1.114682   129A      1.138558   130A      1.147623
     131A      1.163910   132A      1.172981   133A      1.184120
     134A      1.232914   135A      1.244385   136A      1.259316
     137A      1.273457   138A      1.279297   139A      1.295184
     140A      1.306247   141A      1.310257   142A      1.345006
     143A      1.359975   144A      1.382537   145A      1.424303
     146A      1.430754   147A      1.467465   148A      1.477675
     149A      1.485461   150A      1.491367   151A      1.508853
     152A      1.540133   153A      1.595321   154A      1.616307
     155A      1.621712   156A      1.629211   157A      1.635950
     158A      1.643661   159A      1.677809   160A      1.688312
     161A      1.719934   162A      1.726180   163A      1.752585
     164A      1.758728   165A      1.771865   166A      1.792367
     167A      1.802554   168A      1.845922   169A      1.864469
     170A      1.870103   171A      1.873491   172A      1.877266
     173A      1.892290   174A      1.900896   175A      1.902957
     176A      1.906693   177A      1.913373   178A      1.921504
     179A      1.939775   180A      1.941943   181A      1.950129
     182A      1.953563   183A      1.957468   184A      1.965672
     185A      1.976169   186A      1.987502   187A      1.999127
     188A      2.007795   189A      2.015963   190A      2.020419
     191A      2.031477   192A      2.041319   193A      2.057117
     194A      2.067132   195A      2.070675   196A      2.089890
     197A      2.101609   198A      2.114294   199A      2.125994
     200A      2.138868   201A      2.145996   202A      2.155593
     203A      2.173741   204A      2.190523   205A      2.227531
     206A      2.251287   207A      2.253167   208A      2.261076
     209A      2.267500   210A      2.318906   211A      2.327466
     212A      2.329133   213A      2.346784   214A      2.358151
     215A      2.381964   216A      2.441250   217A      2.448986
     218A      2.463808   219A      2.466466   220A      2.480139
     221A      2.491085   222A      2.506288   223A      2.508686
     224A      2.527875   225A      2.544535   226A      2.568892
     227A      2.577447   228A      2.630449   229A      2.638964
     230A      2.656933   231A      2.715594   232A      2.755049
     233A      2.769372   234A      2.774309   235A      2.780909
     236A      2.800913   237A      2.805951   238A      2.821774
     239A      2.849352   240A      2.862334   241A      2.870277
     242A      2.891801   243A      2.917644   244A      2.930061
     245A      2.950728   246A      2.965311   247A      2.982777
     248A      3.008152   249A      3.076572   250A      3.083358
     251A      3.162950   252A      3.270530   253A      3.275699
     254A      3.342893   255A      3.578530   256A      3.672710
     257A      3.958598   258A      4.176750

    Final Occupation by Irrep:
              A
    DOCC [    46 ]

  @RHF Final Energy:  -501.90870392567768

   => Energetics <=

    Nuclear Repulsion Energy =            690.1340574979222993
    One-Electron Energy =               -2049.5140422198082888
    Two-Electron Energy =                 857.4712807962084753
    Total Energy =                       -501.9087039256776279

Computation Completed

Properties will be evaluated at   0.000000,   0.000000,   0.000000 [a0]

Properties computed using the SCF density matrix

  Nuclear Dipole Moment: [e a0]
     X:   -17.8680      Y:     0.4013      Z:    -0.3679

  Electronic Dipole Moment: [e a0]
     X:    17.8635      Y:     0.0192      Z:    -0.0532

  Dipole Moment: [e a0]
     X:    -0.0045      Y:     0.4205      Z:    -0.4211     Total:     0.5952

  Dipole Moment: [D]
     X:    -0.0115      Y:     1.0688      Z:    -1.0704     Total:     1.5127

*** tstop() called on ds3 at Tue Apr 28 04:33:39 2020
Module time:
	user time   =     241.89 seconds =       4.03 minutes
	system time =      82.43 seconds =       1.37 minutes
	total time  =        800 seconds =      13.33 minutes
Total time:
	user time   =     241.89 seconds =       4.03 minutes
	system time =      82.43 seconds =       1.37 minutes
	total time  =        800 seconds =      13.33 minutes
                                     G D M A

                                 by Anthony Stone

                           version 2.2.06, 22 June 2011

               Distributed Multipoles from Gaussian wavefunctions

Starting at 4:33:40 on 28 Apr 2020

Using SCF density matrix from file ./SSI/SSI-004PRO-026TYR-1-dimer.test.27455.fchk

                         Distributed Multipole Analysis

Standard DMA

Positions and radii in angstrom
Multipole moments in atomic units, ea_0^k for rank k

C          x = -2.664304  y =  0.918576  z =  1.113016 angstrom
           Maximum rank =  0   Radius =  0.650 angstrom
                   Q00  =  -0.108317

C          x = -1.681304  y = -0.004424  z =  1.804016 angstrom
           Maximum rank =  0   Radius =  0.650 angstrom
                   Q00  =  -0.225448

C          x = -3.848304  y =  1.014576  z =  2.054016 angstrom
           Maximum rank =  0   Radius =  0.650 angstrom
                   Q00  =  -0.210046

H          x = -2.959304  y =  0.530576  z =  0.138016 angstrom
           Maximum rank =  0   Radius =  0.325 angstrom
                   Q00  =   0.049076

H          x = -2.210304  y =  1.904576  z =  1.004016 angstrom
           Maximum rank =  0   Radius =  0.325 angstrom
                   Q00  =   0.048151

H          x = -1.863304  y = -1.036424  z =  1.502016 angstrom
           Maximum rank =  0   Radius =  0.325 angstrom
                   Q00  =   0.068607

H          x = -0.660304  y =  0.295576  z =  1.572016 angstrom
           Maximum rank =  0   Radius =  0.325 angstrom
                   Q00  =   0.100397

H          x = -4.554304  y =  0.221576  z =  1.808016 angstrom
           Maximum rank =  0   Radius =  0.325 angstrom
                   Q00  =   0.079685

H          x = -4.341304  y =  1.983576  z =  1.969016 angstrom
           Maximum rank =  0   Radius =  0.325 angstrom
                   Q00  =   0.077261

H          x = -1.903656  y =  0.122096  z =  2.873853 angstrom
           Maximum rank =  0   Radius =  0.325 angstrom
                   Q00  =   0.055249

H          x = -3.437977  y =  0.863216  z =  3.063333 angstrom
           Maximum rank =  0   Radius =  0.325 angstrom
                   Q00  =   0.055109

C          x = -1.061304  y = -0.641424  z = -2.006984 angstrom
           Maximum rank =  0   Radius =  0.650 angstrom
                   Q00  =  -0.021682

C          x = -0.801304  y = -1.324424  z = -3.342984 angstrom
           Maximum rank =  0   Radius =  0.650 angstrom
                   Q00  =  -0.235629

C          x =  0.132696  y = -0.368424  z = -1.126984 angstrom
           Maximum rank =  0   Radius =  0.650 angstrom
                   Q00  =  -0.136840

C          x =  0.668696  y =  0.923576  z = -1.027984 angstrom
           Maximum rank =  0   Radius =  0.650 angstrom
                   Q00  =   0.031000

C          x =  0.680696  y = -1.386424  z = -0.335984 angstrom
           Maximum rank =  0   Radius =  0.650 angstrom
                   Q00  =  -0.020296

C          x =  1.740696  y =  1.191576  z = -0.163984 angstrom
           Maximum rank =  0   Radius =  0.650 angstrom
                   Q00  =  -0.189043

C          x =  1.746696  y = -1.125424  z =  0.527016 angstrom
           Maximum rank =  0   Radius =  0.650 angstrom
                   Q00  =  -0.119256

C          x =  2.277696  y =  0.164576  z =  0.609016 angstrom
           Maximum rank =  0   Radius =  0.650 angstrom
                   Q00  =   0.277719

O          x =  3.309696  y =  0.451576  z =  1.449016 angstrom
           Maximum rank =  0   Radius =  0.650 angstrom
                   Q00  =  -0.635860

H          x = -1.593304  y =  0.293576  z = -2.177984 angstrom
           Maximum rank =  0   Radius =  0.325 angstrom
                   Q00  =   0.064539

H          x = -1.738304  y = -1.275424  z = -1.431984 angstrom
           Maximum rank =  0   Radius =  0.325 angstrom
                   Q00  =   0.056409

H          x = -0.234304  y = -2.244424  z = -3.194984 angstrom
           Maximum rank =  0   Radius =  0.325 angstrom
                   Q00  =   0.086379

H          x =  0.249696  y =  1.726576  z = -1.618984 angstrom
           Maximum rank =  0   Radius =  0.325 angstrom
                   Q00  =   0.070819

H          x =  0.266696  y = -2.384424  z = -0.387984 angstrom
           Maximum rank =  0   Radius =  0.325 angstrom
                   Q00  =   0.064113

H          x =  2.142696  y =  2.191576  z = -0.095984 angstrom
           Maximum rank =  0   Radius =  0.325 angstrom
                   Q00  =   0.070983

H          x =  2.169696  y = -1.911424  z =  1.132016 angstrom
           Maximum rank =  0   Radius =  0.325 angstrom
                   Q00  =   0.081793

H          x =  3.659696  y =  1.321576  z =  1.240016 angstrom
           Maximum rank =  0   Radius =  0.325 angstrom
                   Q00  =   0.404962

H          x = -0.277550  y = -0.636664  z = -4.023184 angstrom
           Maximum rank =  0   Radius =  0.325 angstrom
                   Q00  =   0.081280

H          x = -1.791379  y = -1.539944  z = -3.771124 angstrom
           Maximum rank =  0   Radius =  0.325 angstrom
                   Q00  =   0.078887

Total multipoles referred to origin at
           x =   0.000000,  y =    0.000000,  z =    0.000000 angstrom
                   Q00  =  -0.000000

Finished at 4:33:40 on 28 Apr 2020

  DMA results are available in the Python driver through the
	  variable('DMA DISTRIBUTED MULTIPOLES')
  and
	  variable('DMA TOTAL MULTIPOLES')
  commands.

    Psi4 stopped on: Tuesday, 28 April 2020 04:33AM
    Psi4 wall time for execution: 0:13:20.68

*** Psi4 exiting successfully. Buy a developer a beer!
