                               Psi4 1.3.2 release

  ==> Input File <==

--------------------------------------------------------------------------
import numpy as np
set {scf_type pk
basis cc-pvdz
d_convergence 10
gdma_switch   0
gdma_limit    0
gdma_origin   [ 0.0,  0.0,  0.0 ]
}
molecule test {
    units Angstrom
    -1 1
    --
    -1 1
    C               -0.992566776982444    -0.548786378010810     3.911263230755642
    C               -0.240566776982444    -0.766786378010810     0.369263230755642
    C               -0.991566776982444    -0.468786378010810     2.412263230755641
    C               -1.840566776982445     0.163213621989190     1.560263230755641
    N               -0.000566776982444    -1.041786378010810     1.645263230755641
    N               -1.356566776982445    -0.052786378010810     0.286263230755642
    H                0.275433223017556    -1.213786378010810    -0.463736769244358
    H               -1.764566776982445     0.268213621989190    -0.584736769244358
    H               -2.723566776982445     0.727213621989190     1.833263230755642
    H               -0.985566776982445     0.454213621989190     4.307263230755642
    H               -0.053566776982444    -1.006786378010810     4.226263230755642
    H               -1.821526776982445    -1.135664378010810     4.333643230755643
    C                1.971433223017556     1.686213621989190    -3.048736769244358
    C                1.233433223017556     0.552213621989190    -2.340736769244358
    O               -0.016566776982444     0.512213621989190    -2.422736769244358
    O                1.894433223017556    -0.271786378010810    -1.667736769244358
    H                2.933433223017555     1.880213621989190    -2.567736769244358
    H                1.337433223017555     2.563213621989189    -2.972736769244359
    H                2.100523223017556     1.505923621989190    -4.126156769244358

}
e, wfn = energy('scf', return_wfn=True)
gdma(wfn)
dmavals = variable('DMA DISTRIBUTED MULTIPOLES')
charges = np.array(dmavals)
print(charges)
np.save('SSI-031HIE-128GLU-1-dimer.npy', np.array(charges))--------------------------------------------------------------------------

*** tstart() called on ds3
*** at Sun Apr 26 23:02:52 2020

   => Loading Basis Set <=

    Name: CC-PVDZ
    Role: ORBITAL
    Keyword: BASIS
    atoms 1-4, 13-14  entry C          line   138 file /theoryfs2/ds/metcalf/miniconda2/envs/tf2gpu/share/psi4/basis/cc-pvdz.gbs
    atoms 5-6         entry N          line   168 file /theoryfs2/ds/metcalf/miniconda2/envs/tf2gpu/share/psi4/basis/cc-pvdz.gbs
    atoms 7-12, 17-19 entry H          line    22 file /theoryfs2/ds/metcalf/miniconda2/envs/tf2gpu/share/psi4/basis/cc-pvdz.gbs
    atoms 15-16       entry O          line   198 file /theoryfs2/ds/metcalf/miniconda2/envs/tf2gpu/share/psi4/basis/cc-pvdz.gbs

         ---------------------------------------------------------
                                   SCF
               by Justin Turney, Rob Parrish, Andy Simmonett
                          and Daniel G. A. Smith
                              RHF Reference
                        1 Threads,    500 MiB Core
         ---------------------------------------------------------

  ==> Geometry <==

    Molecular point group: c1
    Full point group: C1

    Geometry (in Angstrom), charge = -1, multiplicity = 1:

       Center              X                  Y                   Z               Mass
    ------------   -----------------  -----------------  -----------------  -----------------
         C           -0.992566776982    -0.548786378011     3.911263230756    12.000000000000
         C           -0.240566776982    -0.766786378011     0.369263230756    12.000000000000
         C           -0.991566776982    -0.468786378011     2.412263230756    12.000000000000
         C           -1.840566776982     0.163213621989     1.560263230756    12.000000000000
         N           -0.000566776982    -1.041786378011     1.645263230756    14.003074004430
         N           -1.356566776982    -0.052786378011     0.286263230756    14.003074004430
         H            0.275433223018    -1.213786378011    -0.463736769244     1.007825032230
         H           -1.764566776982     0.268213621989    -0.584736769244     1.007825032230
         H           -2.723566776982     0.727213621989     1.833263230756     1.007825032230
         H           -0.985566776982     0.454213621989     4.307263230756     1.007825032230
         H           -0.053566776982    -1.006786378011     4.226263230756     1.007825032230
         H           -1.821526776982    -1.135664378011     4.333643230756     1.007825032230
         C            1.971433223018     1.686213621989    -3.048736769244    12.000000000000
         C            1.233433223018     0.552213621989    -2.340736769244    12.000000000000
         O           -0.016566776982     0.512213621989    -2.422736769244    15.994914619570
         O            1.894433223018    -0.271786378011    -1.667736769244    15.994914619570
         H            2.933433223018     1.880213621989    -2.567736769244     1.007825032230
         H            1.337433223018     2.563213621989    -2.972736769244     1.007825032230
         H            2.100523223018     1.505923621989    -4.126156769244     1.007825032230

  Running in c1 symmetry.

  Rotational constants: A =      0.12073  B =      0.01751  C =      0.01645 [cm^-1]
  Rotational constants: A =   3619.50794  B =    525.03742  C =    493.29983 [MHz]
  Nuclear repulsion =  492.007018454289550

  Charge       = -1
  Multiplicity = 1
  Electrons    = 76
  Nalpha       = 38
  Nbeta        = 38

  ==> Algorithm <==

  SCF Algorithm Type is PK.
  DIIS enabled.
  MOM disabled.
  Fractional occupation disabled.
  Guess Type is SAD.
  Energy threshold   = 1.00e-06
  Density threshold  = 1.00e-10
  Integral threshold = 0.00e+00

  ==> Primary Basis <==

  Basis Set: CC-PVDZ
    Blend: CC-PVDZ
    Number of shells: 87
    Number of basis function: 185
    Number of Cartesian functions: 195
    Spherical Harmonics?: true
    Max angular momentum: 2

  ==> Pre-Iterations <==

   -------------------------------------------------------
    Irrep   Nso     Nmo     Nalpha   Nbeta   Ndocc  Nsocc
   -------------------------------------------------------
     A        185     185       0       0       0       0
   -------------------------------------------------------
    Total     185     185      38      38      38       0
   -------------------------------------------------------

  ==> Integral Setup <==

  Using integral reordering PK algorithm.
  Sizing the integral batches needed.
  Building batch lookup table.
   Calculation information:
      Number of atoms:                  19
      Number of AO shells:              87
      Number of primitives:            265
      Number of atomic orbitals:       195
      Number of basis functions:       185

      Integral cutoff                 1.00e-12
      Number of threads:                 1

	Batch   1 pq = [       0,    9405] index = [             0,44231715] size =     44231715
	Batch   2 pq = [    9405,   13301] index = [      44231715,88464951] size =     44233236
	Batch   3 pq = [   13301,   16290] index = [      88464951,132690195] size =     44225244
	Batch   4 pq = [   16290,   17205] index = [     132690195,148014615] size =     15324420
  Task number: 14
  Buffer size: 11059200
  Buffer per thread: 2
  We computed 5382554 shell quartets total.
  Whereas there are 7328706 unique shell quartets.

  ==> DiskJK: Disk-Based J/K Matrices <==

    J tasked:                  Yes
    K tasked:                  Yes
    wK tasked:                  No
    Memory [MiB]:              375
    Schwarz Cutoff:          1E-12

    OpenMP threads:              1

  Minimum eigenvalue in the overlap matrix is 1.2208584140E-03.
  Using Symmetric Orthogonalization.

  SCF Guess: Superposition of Atomic Densities via on-the-fly atomic UHF.

  ==> Iterations <==

                        Total Energy        Delta E     RMS |[F,P]|

   @RHF iter SAD:  -489.73561526993274   -4.89736e+02   0.00000e+00
   @RHF iter   1:  -490.82551273697788   -1.08990e+00   4.18388e-03 DIIS
   @RHF iter   2:  -491.05855190761378   -2.33039e-01   2.36180e-03 DIIS
   @RHF iter   3:  -491.13029038791916   -7.17385e-02   4.00980e-04 DIIS
   @RHF iter   4:  -491.13375488285942   -3.46449e-03   1.53788e-04 DIIS
   @RHF iter   5:  -491.13427442605303   -5.19543e-04   3.37564e-05 DIIS
   @RHF iter   6:  -491.13430181092212   -2.73849e-05   1.50057e-05 DIIS
   @RHF iter   7:  -491.13430708899227   -5.27807e-06   3.55191e-06 DIIS
   @RHF iter   8:  -491.13430777961031   -6.90618e-07   1.49058e-06 DIIS
   @RHF iter   9:  -491.13430791452572   -1.34915e-07   7.36038e-07 DIIS
   @RHF iter  10:  -491.13430794021855   -2.56928e-08   1.84470e-07 DIIS
   @RHF iter  11:  -491.13430794201349   -1.79494e-09   7.86222e-08 DIIS
   @RHF iter  12:  -491.13430794220614   -1.92642e-10   3.23691e-08 DIIS
   @RHF iter  13:  -491.13430794224473   -3.85967e-11   8.19312e-09 DIIS
   @RHF iter  14:  -491.13430794224689   -2.16005e-12   3.27606e-09 DIIS
   @RHF iter  15:  -491.13430794224854   -1.64846e-12   9.13125e-10 DIIS
   @RHF iter  16:  -491.13430794224604    2.50111e-12   5.18522e-10 DIIS
   @RHF iter  17:  -491.13430794224644   -3.97904e-13   1.95265e-10 DIIS
   @RHF iter  18:  -491.13430794224769   -1.25056e-12   8.22057e-11 DIIS
  Energy and wave function converged.

  ==> Post-Iterations <==

    Orbital Energies [Eh]
    ---------------------

    Doubly Occupied:

       1A    -20.282998     2A    -20.280903     3A    -15.468766
       4A    -15.381935     5A    -11.137793     6A    -11.133036
       7A    -11.118296     8A    -11.116070     9A    -11.111675
      10A    -11.064794    11A     -1.194554    12A     -1.171053
      13A     -1.056963    14A     -1.009609    15A     -0.902155
      16A     -0.817882    17A     -0.810954    18A     -0.669085
      19A     -0.623085    20A     -0.596992    21A     -0.519370
      22A     -0.478690    23A     -0.475258    24A     -0.454514
      25A     -0.432262    26A     -0.428370    27A     -0.425051
      28A     -0.420615    29A     -0.416739    30A     -0.394845
      31A     -0.361863    32A     -0.323178    33A     -0.270808
      34A     -0.240110    35A     -0.205008    36A     -0.194427
      37A     -0.183827    38A     -0.169694

    Virtual:

      39A      0.298065    40A      0.316111    41A      0.331635
      42A      0.342861    43A      0.360598    44A      0.369900
      45A      0.374591    46A      0.386172    47A      0.404805
      48A      0.407708    49A      0.460776    50A      0.466620
      51A      0.490124    52A      0.528916    53A      0.556747
      54A      0.567565    55A      0.609837    56A      0.619103
      57A      0.699885    58A      0.710101    59A      0.728705
      60A      0.760133    61A      0.776838    62A      0.792221
      63A      0.806529    64A      0.840060    65A      0.849772
      66A      0.864415    67A      0.869843    68A      0.879334
      69A      0.925534    70A      0.943598    71A      0.949638
      72A      0.962712    73A      0.976548    74A      0.982334
      75A      1.000939    76A      1.019104    77A      1.020408
      78A      1.023814    79A      1.030598    80A      1.055748
      81A      1.070429    82A      1.096383    83A      1.101181
      84A      1.115814    85A      1.138780    86A      1.164838
      87A      1.193289    88A      1.202232    89A      1.234137
      90A      1.238962    91A      1.260842    92A      1.281345
      93A      1.307158    94A      1.341727    95A      1.356180
      96A      1.371560    97A      1.398114    98A      1.410175
      99A      1.435080   100A      1.457251   101A      1.490572
     102A      1.522629   103A      1.556010   104A      1.577902
     105A      1.599528   106A      1.601603   107A      1.620516
     108A      1.639018   109A      1.669560   110A      1.679884
     111A      1.692200   112A      1.735457   113A      1.746291
     114A      1.747945   115A      1.778494   116A      1.791590
     117A      1.823223   118A      1.832616   119A      1.851037
     120A      1.942493   121A      1.965762   122A      1.975086
     123A      2.005297   124A      2.012378   125A      2.035052
     126A      2.042767   127A      2.049745   128A      2.053199
     129A      2.066546   130A      2.087060   131A      2.099412
     132A      2.110273   133A      2.146429   134A      2.168158
     135A      2.200047   136A      2.204321   137A      2.239576
     138A      2.257341   139A      2.294862   140A      2.336091
     141A      2.347580   142A      2.366458   143A      2.398380
     144A      2.399704   145A      2.416467   146A      2.466356
     147A      2.481261   148A      2.499925   149A      2.527202
     150A      2.548342   151A      2.609229   152A      2.627775
     153A      2.655723   154A      2.701171   155A      2.723303
     156A      2.747596   157A      2.756702   158A      2.818506
     159A      2.868356   160A      2.881004   161A      2.900517
     162A      2.928278   163A      2.941377   164A      2.962432
     165A      2.966115   166A      2.973577   167A      2.999923
     168A      3.027457   169A      3.089639   170A      3.113603
     171A      3.204968   172A      3.223120   173A      3.256555
     174A      3.281413   175A      3.314855   176A      3.345566
     177A      3.378795   178A      3.607104   179A      3.614047
     180A      3.758545   181A      3.801838   182A      3.942487
     183A      4.042622   184A      4.058350   185A      4.186540

    Final Occupation by Irrep:
              A
    DOCC [    38 ]

  @RHF Final Energy:  -491.13430794224769

   => Energetics <=

    Nuclear Repulsion Energy =            492.0070184542895504
    One-Electron Energy =               -1659.5962025224175704
    Two-Electron Energy =                 676.4548761258802188
    Total Energy =                       -491.1343079422476876

Computation Completed

Properties will be evaluated at   0.000000,   0.000000,   0.000000 [a0]

Properties computed using the SCF density matrix

  Nuclear Dipole Moment: [e a0]
     X:    -0.6451      Y:     3.7943      Z:     3.7109

  Electronic Dipole Moment: [e a0]
     X:    -1.2438      Y:    -3.1485      Z:    -1.9538

  Dipole Moment: [e a0]
     X:    -1.8889      Y:     0.6457      Z:     1.7570     Total:     2.6594

  Dipole Moment: [D]
     X:    -4.8012      Y:     1.6413      Z:     4.4659     Total:     6.7594

*** tstop() called on ds3 at Sun Apr 26 23:04:24 2020
Module time:
	user time   =      48.07 seconds =       0.80 minutes
	system time =      22.68 seconds =       0.38 minutes
	total time  =         92 seconds =       1.53 minutes
Total time:
	user time   =      48.07 seconds =       0.80 minutes
	system time =      22.68 seconds =       0.38 minutes
	total time  =         92 seconds =       1.53 minutes
                                     G D M A

                                 by Anthony Stone

                           version 2.2.06, 22 June 2011

               Distributed Multipoles from Gaussian wavefunctions

Starting at 23:4:24 on 26 Apr 2020

Using SCF density matrix from file ./SSI/SSI-031HIE-128GLU-1-dimer.test.22833.fchk

                         Distributed Multipole Analysis

Standard DMA

Positions and radii in angstrom
Multipole moments in atomic units, ea_0^k for rank k

C          x = -0.992567  y = -0.548786  z =  3.911263 angstrom
           Maximum rank =  0   Radius =  0.650 angstrom
                   Q00  =  -0.207816

C          x = -0.240567  y = -0.766786  z =  0.369263 angstrom
           Maximum rank =  0   Radius =  0.650 angstrom
                   Q00  =   0.508022

C          x = -0.991567  y = -0.468786  z =  2.412263 angstrom
           Maximum rank =  0   Radius =  0.650 angstrom
                   Q00  =   0.240463

C          x = -1.840567  y =  0.163214  z =  1.560263 angstrom
           Maximum rank =  0   Radius =  0.650 angstrom
                   Q00  =  -0.009487

N          x = -0.000567  y = -1.041786  z =  1.645263 angstrom
           Maximum rank =  0   Radius =  0.650 angstrom
                   Q00  =  -0.804202

N          x = -1.356567  y = -0.052786  z =  0.286263 angstrom
           Maximum rank =  0   Radius =  0.650 angstrom
                   Q00  =  -0.477148

H          x =  0.275433  y = -1.213786  z = -0.463737 angstrom
           Maximum rank =  0   Radius =  0.325 angstrom
                   Q00  =   0.140414

H          x = -1.764567  y =  0.268214  z = -0.584737 angstrom
           Maximum rank =  0   Radius =  0.325 angstrom
                   Q00  =   0.242990

H          x = -2.723567  y =  0.727214  z =  1.833263 angstrom
           Maximum rank =  0   Radius =  0.325 angstrom
                   Q00  =   0.061954

H          x = -0.985567  y =  0.454214  z =  4.307263 angstrom
           Maximum rank =  0   Radius =  0.325 angstrom
                   Q00  =   0.085864

H          x = -0.053567  y = -1.006786  z =  4.226263 angstrom
           Maximum rank =  0   Radius =  0.325 angstrom
                   Q00  =   0.106332

H          x = -1.821527  y = -1.135664  z =  4.333643 angstrom
           Maximum rank =  0   Radius =  0.325 angstrom
                   Q00  =   0.076637

C          x =  1.971433  y =  1.686214  z = -3.048737 angstrom
           Maximum rank =  0   Radius =  0.650 angstrom
                   Q00  =  -0.257061

C          x =  1.233433  y =  0.552214  z = -2.340737 angstrom
           Maximum rank =  0   Radius =  0.650 angstrom
                   Q00  =   0.912573

O          x = -0.016567  y =  0.512214  z = -2.422737 angstrom
           Maximum rank =  0   Radius =  0.650 angstrom
                   Q00  =  -0.930286

O          x =  1.894433  y = -0.271786  z = -1.667737 angstrom
           Maximum rank =  0   Radius =  0.650 angstrom
                   Q00  =  -0.891789

H          x =  2.933433  y =  1.880214  z = -2.567737 angstrom
           Maximum rank =  0   Radius =  0.325 angstrom
                   Q00  =   0.064184

H          x =  1.337433  y =  2.563214  z = -2.972737 angstrom
           Maximum rank =  0   Radius =  0.325 angstrom
                   Q00  =   0.059711

H          x =  2.100523  y =  1.505924  z = -4.126157 angstrom
           Maximum rank =  0   Radius =  0.325 angstrom
                   Q00  =   0.078643

Total multipoles referred to origin at
           x =   0.000000,  y =    0.000000,  z =    0.000000 angstrom
                   Q00  =  -1.000000

Finished at 23:4:24 on 26 Apr 2020

  DMA results are available in the Python driver through the
	  variable('DMA DISTRIBUTED MULTIPOLES')
  and
	  variable('DMA TOTAL MULTIPOLES')
  commands.

    Psi4 stopped on: Sunday, 26 April 2020 11:04PM
    Psi4 wall time for execution: 0:01:32.44

*** Psi4 exiting successfully. Buy a developer a beer!
