                               Psi4 1.3.2 release

  ==> Input File <==

--------------------------------------------------------------------------
import numpy as np
set {scf_type pk
basis cc-pvdz
d_convergence 10
gdma_switch   0
gdma_limit    0
gdma_origin   [ 0.0,  0.0,  0.0 ]
}
molecule test {
    units Angstrom
    0 1
    --
    0 1
    C                0.127275812723851    -1.838099962342304     0.902097819016326
    C               -1.146724187276149    -1.197099962342304     1.513097819016326
    H                0.425275812723851    -2.712099962342304     1.483097819016326
    H               -0.043724187276149    -2.144099962342304    -0.129902180983674
    H                0.954275812723851    -1.127099962342304     0.872097819016326
    H               -1.374724187276149    -0.291099962342304     0.951097819016326
    H               -0.957461187276149    -0.921679962342304     2.561107819016326
    H               -2.012751187276149    -1.872339962342304     1.449507819016326
    C                0.528275812723851     0.966900037657696    -1.711902180983674
    C                0.486275812723851     2.070900037657696    -0.698902180983674
    H                0.315275812723851     1.338900037657696    -2.715902180983674
    H                1.525275812723851     0.522900037657696    -1.715902180983674
    H               -0.192724187276149     0.187900037657696    -1.453902180983674
    H                0.864275812723851     1.695900037657696     0.249097819016326
    H               -0.562431187276149     2.380670037657696    -0.579492180983674
    H                1.117741812723851     2.911190037657696    -1.023192180983674

}
e, wfn = energy('scf', return_wfn=True)
gdma(wfn)
dmavals = variable('DMA DISTRIBUTED MULTIPOLES')
charges = np.array(dmavals)
print(charges)
np.save('SSI-021ILE-038VAL-1-dimer.npy', np.array(charges))--------------------------------------------------------------------------

*** tstart() called on ds3
*** at Mon Apr 27 07:33:04 2020

   => Loading Basis Set <=

    Name: CC-PVDZ
    Role: ORBITAL
    Keyword: BASIS
    atoms 1-2, 9-10  entry C          line   138 file /theoryfs2/ds/metcalf/miniconda2/envs/tf2gpu/share/psi4/basis/cc-pvdz.gbs
    atoms 3-8, 11-16 entry H          line    22 file /theoryfs2/ds/metcalf/miniconda2/envs/tf2gpu/share/psi4/basis/cc-pvdz.gbs

         ---------------------------------------------------------
                                   SCF
               by Justin Turney, Rob Parrish, Andy Simmonett
                          and Daniel G. A. Smith
                              RHF Reference
                        1 Threads,    500 MiB Core
         ---------------------------------------------------------

  ==> Geometry <==

    Molecular point group: c1
    Full point group: C1

    Geometry (in Angstrom), charge = 0, multiplicity = 1:

       Center              X                  Y                   Z               Mass
    ------------   -----------------  -----------------  -----------------  -----------------
         C            0.127275812724    -1.838099962342     0.902097819016    12.000000000000
         C           -1.146724187276    -1.197099962342     1.513097819016    12.000000000000
         H            0.425275812724    -2.712099962342     1.483097819016     1.007825032230
         H           -0.043724187276    -2.144099962342    -0.129902180984     1.007825032230
         H            0.954275812724    -1.127099962342     0.872097819016     1.007825032230
         H           -1.374724187276    -0.291099962342     0.951097819016     1.007825032230
         H           -0.957461187276    -0.921679962342     2.561107819016     1.007825032230
         H           -2.012751187276    -1.872339962342     1.449507819016     1.007825032230
         C            0.528275812724     0.966900037658    -1.711902180984    12.000000000000
         C            0.486275812724     2.070900037658    -0.698902180984    12.000000000000
         H            0.315275812724     1.338900037658    -2.715902180984     1.007825032230
         H            1.525275812724     0.522900037658    -1.715902180984     1.007825032230
         H           -0.192724187276     0.187900037658    -1.453902180984     1.007825032230
         H            0.864275812724     1.695900037658     0.249097819016     1.007825032230
         H           -0.562431187276     2.380670037658    -0.579492180984     1.007825032230
         H            1.117741812724     2.911190037658    -1.023192180984     1.007825032230

  Running in c1 symmetry.

  Rotational constants: A =      0.34256  B =      0.06450  C =      0.05932 [cm^-1]
  Rotational constants: A =  10269.63434  B =   1933.65230  C =   1778.37445 [MHz]
  Nuclear repulsion =  125.842632674327049

  Charge       = 0
  Multiplicity = 1
  Electrons    = 36
  Nalpha       = 18
  Nbeta        = 18

  ==> Algorithm <==

  SCF Algorithm Type is PK.
  DIIS enabled.
  MOM disabled.
  Fractional occupation disabled.
  Guess Type is SAD.
  Energy threshold   = 1.00e-06
  Density threshold  = 1.00e-10
  Integral threshold = 0.00e+00

  ==> Primary Basis <==

  Basis Set: CC-PVDZ
    Blend: CC-PVDZ
    Number of shells: 60
    Number of basis function: 116
    Number of Cartesian functions: 120
    Spherical Harmonics?: true
    Max angular momentum: 2

  ==> Pre-Iterations <==

   -------------------------------------------------------
    Irrep   Nso     Nmo     Nalpha   Nbeta   Ndocc  Nsocc
   -------------------------------------------------------
     A        116     116       0       0       0       0
   -------------------------------------------------------
    Total     116     116      18      18      18       0
   -------------------------------------------------------

  ==> Integral Setup <==

  Using integral reordering PK algorithm.
  Sizing the integral batches needed.
  Building batch lookup table.
   Calculation information:
      Number of atoms:                  16
      Number of AO shells:              60
      Number of primitives:            148
      Number of atomic orbitals:       120
      Number of basis functions:       116

      Integral cutoff                 1.00e-12
      Number of threads:                 1

	Batch   1 pq = [       0,    6786] index = [             0,23028291] size =     23028291
  Task number: 3
  Buffer size: 11059200
  Buffer per thread: 2
  We computed 1585293 shell quartets total.
  Whereas there are 1675365 unique shell quartets.

  ==> DiskJK: Disk-Based J/K Matrices <==

    J tasked:                  Yes
    K tasked:                  Yes
    wK tasked:                  No
    Memory [MiB]:              375
    Schwarz Cutoff:          1E-12

    OpenMP threads:              1

  Minimum eigenvalue in the overlap matrix is 7.2355773604E-03.
  Using Symmetric Orthogonalization.

  SCF Guess: Superposition of Atomic Densities via on-the-fly atomic UHF.

  ==> Iterations <==

                        Total Energy        Delta E     RMS |[F,P]|

   @RHF iter SAD:  -157.35654441040441   -1.57357e+02   0.00000e+00
   @RHF iter   1:  -158.30615226312918   -9.49608e-01   4.22466e-03 DIIS
   @RHF iter   2:  -158.43995823156774   -1.33806e-01   1.81357e-03 DIIS
   @RHF iter   3:  -158.46377155442087   -2.38133e-02   3.50713e-04 DIIS
   @RHF iter   4:  -158.46561066430303   -1.83911e-03   3.89880e-05 DIIS
   @RHF iter   5:  -158.46563423737342   -2.35731e-05   7.06866e-06 DIIS
   @RHF iter   6:  -158.46563492415430   -6.86781e-07   1.52501e-06 DIIS
   @RHF iter   7:  -158.46563494570213   -2.15478e-08   3.31445e-07 DIIS
   @RHF iter   8:  -158.46563494681047   -1.10833e-09   4.34054e-08 DIIS
   @RHF iter   9:  -158.46563494683616   -2.56932e-11   1.00153e-08 DIIS
   @RHF iter  10:  -158.46563494683804   -1.87583e-12   2.12223e-09 DIIS
   @RHF iter  11:  -158.46563494683798    5.68434e-14   5.77861e-10 DIIS
   @RHF iter  12:  -158.46563494683761    3.69482e-13   1.87475e-10 DIIS
   @RHF iter  13:  -158.46563494683738    2.27374e-13   2.41707e-11 DIIS
  Energy and wave function converged.

  ==> Post-Iterations <==

    Orbital Energies [Eh]
    ---------------------

    Doubly Occupied:

       1A    -11.222438     2A    -11.219451     3A    -11.217448
       4A    -11.214745     5A     -1.026809     6A     -1.012557
       7A     -0.840785     8A     -0.833057     9A     -0.608366
      10A     -0.603258    11A     -0.592964    12A     -0.590272
      13A     -0.506290    14A     -0.499584    15A     -0.489156
      16A     -0.487047    17A     -0.482769    18A     -0.481244

    Virtual:

      19A      0.163517    20A      0.208236    21A      0.216646
      22A      0.225188    23A      0.247811    24A      0.259577
      25A      0.261231    26A      0.277193    27A      0.283433
      28A      0.296109    29A      0.321067    30A      0.360161
      31A      0.389938    32A      0.403681    33A      0.571047
      34A      0.591788    35A      0.598481    36A      0.607368
      37A      0.613261    38A      0.639194    39A      0.660069
      40A      0.684358    41A      0.717202    42A      0.784649
      43A      0.831458    44A      0.860357    45A      0.869323
      46A      0.879503    47A      0.885496    48A      0.899922
      49A      0.901567    50A      0.913783    51A      0.918849
      52A      0.932526    53A      0.949470    54A      0.973809
      55A      0.996218    56A      1.010250    57A      1.119473
      58A      1.125208    59A      1.128133    60A      1.132061
      61A      1.236291    62A      1.252190    63A      1.456463
      64A      1.468405    65A      1.484851    66A      1.496329
      67A      1.552224    68A      1.593410    69A      1.676019
      70A      1.683939    71A      1.696345    72A      1.705026
      73A      1.853197    74A      1.854040    75A      1.867362
      76A      1.878257    77A      1.908160    78A      1.916289
      79A      1.924443    80A      1.938379    81A      1.944904
      82A      1.949168    83A      1.957213    84A      1.958635
      85A      1.959776    86A      1.966371    87A      1.991722
      88A      2.022741    89A      2.092068    90A      2.113710
      91A      2.119000    92A      2.144421    93A      2.289772
      94A      2.297471    95A      2.322437    96A      2.327877
      97A      2.439891    98A      2.449687    99A      2.454660
     100A      2.462017   101A      2.548625   102A      2.566090
     103A      2.576692   104A      2.587124   105A      2.762319
     106A      2.765800   107A      2.788392   108A      2.800920
     109A      2.840196   110A      2.852819   111A      2.856408
     112A      2.870624   113A      2.939949   114A      2.947249
     115A      2.961734   116A      2.977603

    Final Occupation by Irrep:
              A
    DOCC [    18 ]

  @RHF Final Energy:  -158.46563494683738

   => Energetics <=

    Nuclear Repulsion Energy =            125.8426326743270494
    One-Electron Energy =                -460.7600508980311815
    Two-Electron Energy =                 176.4517832768667631
    Total Energy =                       -158.4656349468373833

Computation Completed

Properties will be evaluated at   0.000000,   0.000000,   0.000000 [a0]

Properties computed using the SCF density matrix

  Nuclear Dipole Moment: [e a0]
     X:     0.0547      Y:    -0.0290      Z:    -0.0490

  Electronic Dipole Moment: [e a0]
     X:    -0.0450      Y:     0.0228      Z:     0.0420

  Dipole Moment: [e a0]
     X:     0.0097      Y:    -0.0062      Z:    -0.0070     Total:     0.0135

  Dipole Moment: [D]
     X:     0.0247      Y:    -0.0159      Z:    -0.0178     Total:     0.0343

*** tstop() called on ds3 at Mon Apr 27 07:33:16 2020
Module time:
	user time   =       9.20 seconds =       0.15 minutes
	system time =       3.42 seconds =       0.06 minutes
	total time  =         12 seconds =       0.20 minutes
Total time:
	user time   =       9.20 seconds =       0.15 minutes
	system time =       3.42 seconds =       0.06 minutes
	total time  =         12 seconds =       0.20 minutes
                                     G D M A

                                 by Anthony Stone

                           version 2.2.06, 22 June 2011

               Distributed Multipoles from Gaussian wavefunctions

Starting at 7:33:16 on 27 Apr 2020

Using SCF density matrix from file ./SSI/SSI-021ILE-038VAL-1-dimer.test.24190.fchk

                         Distributed Multipole Analysis

Standard DMA

Positions and radii in angstrom
Multipole moments in atomic units, ea_0^k for rank k

C          x =  0.127276  y = -1.838100  z =  0.902098 angstrom
           Maximum rank =  0   Radius =  0.650 angstrom
                   Q00  =  -0.247704

C          x = -1.146724  y = -1.197100  z =  1.513098 angstrom
           Maximum rank =  0   Radius =  0.650 angstrom
                   Q00  =  -0.242464

H          x =  0.425276  y = -2.712100  z =  1.483098 angstrom
           Maximum rank =  0   Radius =  0.325 angstrom
                   Q00  =   0.081724

H          x = -0.043724  y = -2.144100  z = -0.129902 angstrom
           Maximum rank =  0   Radius =  0.325 angstrom
                   Q00  =   0.081351

H          x =  0.954276  y = -1.127100  z =  0.872098 angstrom
           Maximum rank =  0   Radius =  0.325 angstrom
                   Q00  =   0.081720

H          x = -1.374724  y = -0.291100  z =  0.951098 angstrom
           Maximum rank =  0   Radius =  0.325 angstrom
                   Q00  =   0.079967

H          x = -0.957461  y = -0.921680  z =  2.561108 angstrom
           Maximum rank =  0   Radius =  0.325 angstrom
                   Q00  =   0.081922

H          x = -2.012751  y = -1.872340  z =  1.449508 angstrom
           Maximum rank =  0   Radius =  0.325 angstrom
                   Q00  =   0.083998

C          x =  0.528276  y =  0.966900  z = -1.711902 angstrom
           Maximum rank =  0   Radius =  0.650 angstrom
                   Q00  =  -0.222314

C          x =  0.486276  y =  2.070900  z = -0.698902 angstrom
           Maximum rank =  0   Radius =  0.650 angstrom
                   Q00  =  -0.233754

H          x =  0.315276  y =  1.338900  z = -2.715902 angstrom
           Maximum rank =  0   Radius =  0.325 angstrom
                   Q00  =   0.077276

H          x =  1.525276  y =  0.522900  z = -1.715902 angstrom
           Maximum rank =  0   Radius =  0.325 angstrom
                   Q00  =   0.072823

H          x = -0.192724  y =  0.187900  z = -1.453902 angstrom
           Maximum rank =  0   Radius =  0.325 angstrom
                   Q00  =   0.077283

H          x =  0.864276  y =  1.695900  z =  0.249098 angstrom
           Maximum rank =  0   Radius =  0.325 angstrom
                   Q00  =   0.076683

H          x = -0.562431  y =  2.380670  z = -0.579492 angstrom
           Maximum rank =  0   Radius =  0.325 angstrom
                   Q00  =   0.073550

H          x =  1.117742  y =  2.911190  z = -1.023192 angstrom
           Maximum rank =  0   Radius =  0.325 angstrom
                   Q00  =   0.077939

Total multipoles referred to origin at
           x =   0.000000,  y =    0.000000,  z =    0.000000 angstrom
                   Q00  =  -0.000000

Finished at 7:33:16 on 27 Apr 2020

  DMA results are available in the Python driver through the
	  variable('DMA DISTRIBUTED MULTIPOLES')
  and
	  variable('DMA TOTAL MULTIPOLES')
  commands.

    Psi4 stopped on: Monday, 27 April 2020 07:33AM
    Psi4 wall time for execution: 0:00:12.41

*** Psi4 exiting successfully. Buy a developer a beer!
