                               Psi4 1.3.2 release

  ==> Input File <==

--------------------------------------------------------------------------
import numpy as np
set {scf_type pk
basis cc-pvdz
d_convergence 10
gdma_switch   0
gdma_limit    0
gdma_origin   [ 0.0,  0.0,  0.0 ]
}
molecule test {
    units Angstrom
    0 1
    --
    0 1
    C               -1.448021271557548     2.730449015972725     0.038222553109203
    C               -0.886021271557548     1.457449015972724    -0.562777446890797
    C               -1.728021271557548     0.370449015972724    -0.829777446890797
    C                0.475978728442452     1.338449015972724    -0.867777446890797
    C               -1.233021271557548    -0.807550984027276    -1.385777446890797
    C                0.983978728442452     0.152449015972724    -1.421777446890797
    C                0.123978728442452    -0.919550984027276    -1.681777446890797
    O                0.589978728442452    -2.085550984027276    -2.219777446890797
    H               -0.765021271557548     3.556449015972725    -0.167777446890797
    H               -1.507021271557548     2.624449015972724     1.118222553109203
    H               -2.781021271557548     0.402449015972724    -0.606777446890797
    H                1.139978728442452     2.170449015972725    -0.677777446890797
    H               -1.903021271557548    -1.633550984027275    -1.583777446890797
    H                2.033978728442452     0.052449015972724    -1.652777446890797
    H               -0.114021271557548    -2.727550984027276    -2.360777446890797
    H               -2.436311271557547     2.980209015972725    -0.375177446890797
    C                0.726978728442452    -0.312550984027275     2.330222553109204
    C                1.730978728442452     0.307449015972725     3.304222553109204
    C                0.344978728442452    -1.748550984027275     2.678222553109204
    H               -0.170021271557548     0.304449015972725     2.273222553109203
    H                1.187978728442452    -0.322550984027276     1.342222553109203
    H                2.620978728442452    -0.308550984027275     3.329222553109203
    H                1.256978728442452    -2.325550984027275     2.775222553109204
    H               -0.187021271557548    -1.740550984027275     3.629222553109203
    H                1.286538728442452     0.400857015972724     4.306092553109202
    H                2.059994728442452     1.286509015972724     2.925812553109204
    H               -0.272424271557548    -2.203327984027275     1.889562553109203

}
e, wfn = energy('scf', return_wfn=True)
gdma(wfn)
dmavals = variable('DMA DISTRIBUTED MULTIPOLES')
charges = np.array(dmavals)
print(charges)
np.save('SSI-014TYR-022LYS-2-dimer.npy', np.array(charges))--------------------------------------------------------------------------

*** tstart() called on ds3
*** at Tue Apr 28 10:06:34 2020

   => Loading Basis Set <=

    Name: CC-PVDZ
    Role: ORBITAL
    Keyword: BASIS
    atoms 1-7, 17-19  entry C          line   138 file /theoryfs2/ds/metcalf/miniconda2/envs/tf2gpu/share/psi4/basis/cc-pvdz.gbs
    atoms 8           entry O          line   198 file /theoryfs2/ds/metcalf/miniconda2/envs/tf2gpu/share/psi4/basis/cc-pvdz.gbs
    atoms 9-16, 20-27 entry H          line    22 file /theoryfs2/ds/metcalf/miniconda2/envs/tf2gpu/share/psi4/basis/cc-pvdz.gbs

         ---------------------------------------------------------
                                   SCF
               by Justin Turney, Rob Parrish, Andy Simmonett
                          and Daniel G. A. Smith
                              RHF Reference
                        1 Threads,    500 MiB Core
         ---------------------------------------------------------

  ==> Geometry <==

    Molecular point group: c1
    Full point group: C1

    Geometry (in Angstrom), charge = 0, multiplicity = 1:

       Center              X                  Y                   Z               Mass
    ------------   -----------------  -----------------  -----------------  -----------------
         C           -1.448021271558     2.730449015973     0.038222553109    12.000000000000
         C           -0.886021271558     1.457449015973    -0.562777446891    12.000000000000
         C           -1.728021271558     0.370449015973    -0.829777446891    12.000000000000
         C            0.475978728442     1.338449015973    -0.867777446891    12.000000000000
         C           -1.233021271558    -0.807550984027    -1.385777446891    12.000000000000
         C            0.983978728442     0.152449015973    -1.421777446891    12.000000000000
         C            0.123978728442    -0.919550984027    -1.681777446891    12.000000000000
         O            0.589978728442    -2.085550984027    -2.219777446891    15.994914619570
         H           -0.765021271558     3.556449015973    -0.167777446891     1.007825032230
         H           -1.507021271558     2.624449015973     1.118222553109     1.007825032230
         H           -2.781021271558     0.402449015973    -0.606777446891     1.007825032230
         H            1.139978728442     2.170449015973    -0.677777446891     1.007825032230
         H           -1.903021271558    -1.633550984027    -1.583777446891     1.007825032230
         H            2.033978728442     0.052449015973    -1.652777446891     1.007825032230
         H           -0.114021271558    -2.727550984027    -2.360777446891     1.007825032230
         H           -2.436311271558     2.980209015973    -0.375177446891     1.007825032230
         C            0.726978728442    -0.312550984027     2.330222553109    12.000000000000
         C            1.730978728442     0.307449015973     3.304222553109    12.000000000000
         C            0.344978728442    -1.748550984027     2.678222553109    12.000000000000
         H           -0.170021271558     0.304449015973     2.273222553109     1.007825032230
         H            1.187978728442    -0.322550984027     1.342222553109     1.007825032230
         H            2.620978728442    -0.308550984027     3.329222553109     1.007825032230
         H            1.256978728442    -2.325550984027     2.775222553109     1.007825032230
         H           -0.187021271558    -1.740550984027     3.629222553109     1.007825032230
         H            1.286538728442     0.400857015973     4.306092553109     1.007825032230
         H            2.059994728442     1.286509015973     2.925812553109     1.007825032230
         H           -0.272424271558    -2.203327984027     1.889562553109     1.007825032230

  Running in c1 symmetry.

  Rotational constants: A =      0.03510  B =      0.02390  C =      0.01784 [cm^-1]
  Rotational constants: A =   1052.39352  B =    716.54321  C =    534.86365 [MHz]
  Nuclear repulsion =  594.167455428642029

  Charge       = 0
  Multiplicity = 1
  Electrons    = 84
  Nalpha       = 42
  Nbeta        = 42

  ==> Algorithm <==

  SCF Algorithm Type is PK.
  DIIS enabled.
  MOM disabled.
  Fractional occupation disabled.
  Guess Type is SAD.
  Energy threshold   = 1.00e-06
  Density threshold  = 1.00e-10
  Integral threshold = 0.00e+00

  ==> Primary Basis <==

  Basis Set: CC-PVDZ
    Blend: CC-PVDZ
    Number of shells: 114
    Number of basis function: 234
    Number of Cartesian functions: 245
    Spherical Harmonics?: true
    Max angular momentum: 2

  ==> Pre-Iterations <==

   -------------------------------------------------------
    Irrep   Nso     Nmo     Nalpha   Nbeta   Ndocc  Nsocc
   -------------------------------------------------------
     A        234     234       0       0       0       0
   -------------------------------------------------------
    Total     234     234      42      42      42       0
   -------------------------------------------------------

  ==> Integral Setup <==

  Using integral reordering PK algorithm.
  Sizing the integral batches needed.
  Building batch lookup table.
   Calculation information:
      Number of atoms:                  27
      Number of AO shells:             114
      Number of primitives:            322
      Number of atomic orbitals:       245
      Number of basis functions:       234

      Integral cutoff                 1.00e-12
      Number of threads:                 1

	Batch   1 pq = [       0,    9405] index = [             0,44231715] size =     44231715
	Batch   2 pq = [    9405,   13301] index = [      44231715,88464951] size =     44233236
	Batch   3 pq = [   13301,   16290] index = [      88464951,132690195] size =     44225244
	Batch   4 pq = [   16290,   18810] index = [     132690195,176917455] size =     44227260
	Batch   5 pq = [   18810,   21030] index = [     176917455,221140965] size =     44223510
	Batch   6 pq = [   21030,   23037] index = [     221140965,265363203] size =     44222238
	Batch   7 pq = [   23037,   24883] index = [     265363203,309594286] size =     44231083
	Batch   8 pq = [   24883,   26601] index = [     309594286,353819901] size =     44225615
	Batch   9 pq = [   26601,   27495] index = [     353819901,378001260] size =     24181359
  Task number: 35
  Buffer size: 11059200
  Buffer per thread: 2
  We computed 21861107 shell quartets total.
  Whereas there are 21487290 unique shell quartets.
     1.74 percent of shell quartets recomputed by reordering.

  ==> DiskJK: Disk-Based J/K Matrices <==

    J tasked:                  Yes
    K tasked:                  Yes
    wK tasked:                  No
    Memory [MiB]:              375
    Schwarz Cutoff:          1E-12

    OpenMP threads:              1

  Minimum eigenvalue in the overlap matrix is 3.3284395710E-04.
  Using Symmetric Orthogonalization.

  SCF Guess: Superposition of Atomic Densities via on-the-fly atomic UHF.

  ==> Iterations <==

                        Total Energy        Delta E     RMS |[F,P]|

   @RHF iter SAD:  -461.62948578877871   -4.61629e+02   0.00000e+00
   @RHF iter   1:  -462.60540293486946   -9.75917e-01   2.81723e-03 DIIS
   @RHF iter   2:  -462.84747879148017   -2.42076e-01   1.19665e-03 DIIS
   @RHF iter   3:  -462.88705379927563   -3.95750e-02   2.69099e-04 DIIS
   @RHF iter   4:  -462.89029570882730   -3.24191e-03   1.06410e-04 DIIS
   @RHF iter   5:  -462.89065681055024   -3.61102e-04   2.05722e-05 DIIS
   @RHF iter   6:  -462.89067665826303   -1.98477e-05   6.53317e-06 DIIS
   @RHF iter   7:  -462.89067870608653   -2.04782e-06   1.88976e-06 DIIS
   @RHF iter   8:  -462.89067895028876   -2.44202e-07   7.08952e-07 DIIS
   @RHF iter   9:  -462.89067898660198   -3.63132e-08   2.92623e-07 DIIS
   @RHF iter  10:  -462.89067899366103   -7.05904e-09   1.19601e-07 DIIS
   @RHF iter  11:  -462.89067899582699   -2.16596e-09   5.22231e-08 DIIS
   @RHF iter  12:  -462.89067899627133   -4.44345e-10   2.55455e-08 DIIS
   @RHF iter  13:  -462.89067899634364   -7.23048e-11   8.13552e-09 DIIS
   @RHF iter  14:  -462.89067899635722   -1.35856e-11   2.01323e-09 DIIS
   @RHF iter  15:  -462.89067899635302    4.20641e-12   6.85042e-10 DIIS
   @RHF iter  16:  -462.89067899635364   -6.25278e-13   1.98613e-10 DIIS
   @RHF iter  17:  -462.89067899635370   -5.68434e-14   7.75383e-11 DIIS
  Energy and wave function converged.

  ==> Post-Iterations <==

    Orbital Energies [Eh]
    ---------------------

    Doubly Occupied:

       1A    -20.583506     2A    -11.301844     3A    -11.241899
       4A    -11.240263     5A    -11.236990     6A    -11.234643
       7A    -11.233844     8A    -11.229862     9A    -11.210317
      10A    -11.206940    11A    -11.206007    12A     -1.398877
      13A     -1.148358    14A     -1.044698    15A     -1.036072
      16A     -1.017139    17A     -0.926821    18A     -0.917397
      19A     -0.843526    20A     -0.803208    21A     -0.786102
      22A     -0.732901    23A     -0.666667    24A     -0.641858
      25A     -0.620181    26A     -0.608086    27A     -0.590530
      28A     -0.587087    29A     -0.582306    30A     -0.572293
      31A     -0.566705    32A     -0.538201    33A     -0.528937
      34A     -0.527819    35A     -0.497569    36A     -0.485549
      37A     -0.472067    38A     -0.463928    39A     -0.461445
      40A     -0.449415    41A     -0.337655    42A     -0.301893

    Virtual:

      43A      0.126736    44A      0.153470    45A      0.171333
      46A      0.176791    47A      0.199231    48A      0.208571
      49A      0.217145    50A      0.239346    51A      0.240814
      52A      0.250252    53A      0.255458    54A      0.266279
      55A      0.276637    56A      0.288104    57A      0.300979
      58A      0.307404    59A      0.315149    60A      0.336630
      61A      0.366994    62A      0.374493    63A      0.386136
      64A      0.427480    65A      0.431320    66A      0.452852
      67A      0.484799    68A      0.490606    69A      0.502902
      70A      0.576024    71A      0.594819    72A      0.600270
      73A      0.613911    74A      0.618730    75A      0.623344
      76A      0.636688    77A      0.648675    78A      0.672209
      79A      0.689202    80A      0.705163    81A      0.732753
      82A      0.736002    83A      0.745664    84A      0.766141
      85A      0.766826    86A      0.776409    87A      0.785670
      88A      0.797958    89A      0.808720    90A      0.823945
      91A      0.840603    92A      0.845846    93A      0.870862
      94A      0.874570    95A      0.882537    96A      0.887367
      97A      0.893599    98A      0.904888    99A      0.905935
     100A      0.907479   101A      0.918968   102A      0.922626
     103A      0.925901   104A      0.932738   105A      0.935960
     106A      0.945497   107A      0.946192   108A      0.958973
     109A      0.980451   110A      0.995866   111A      1.009813
     112A      1.019480   113A      1.056774   114A      1.073689
     115A      1.120720   116A      1.130190   117A      1.140031
     118A      1.144850   119A      1.151131   120A      1.176192
     121A      1.213248   122A      1.233632   123A      1.248267
     124A      1.262418   125A      1.276383   126A      1.283253
     127A      1.289395   128A      1.306238   129A      1.310037
     130A      1.353386   131A      1.358126   132A      1.387051
     133A      1.392813   134A      1.477483   135A      1.484196
     136A      1.498272   137A      1.509339   138A      1.530244
     139A      1.535508   140A      1.574906   141A      1.608376
     142A      1.621986   143A      1.634774   144A      1.679548
     145A      1.684024   146A      1.695800   147A      1.698118
     148A      1.710879   149A      1.730802   150A      1.753373
     151A      1.784798   152A      1.801087   153A      1.810935
     154A      1.865285   155A      1.873451   156A      1.883755
     157A      1.886704   158A      1.889601   159A      1.899134
     160A      1.907978   161A      1.912950   162A      1.916920
     163A      1.925474   164A      1.941885   165A      1.947585
     166A      1.951970   167A      1.959154   168A      1.969305
     169A      1.982733   170A      1.987249   171A      1.997391
     172A      1.998628   173A      2.007836   174A      2.027293
     175A      2.043579   176A      2.053761   177A      2.055269
     178A      2.064727   179A      2.068310   180A      2.082522
     181A      2.129127   182A      2.133338   183A      2.146521
     184A      2.168782   185A      2.174768   186A      2.203448
     187A      2.231936   188A      2.258381   189A      2.274370
     190A      2.292078   191A      2.305760   192A      2.309527
     193A      2.321997   194A      2.332801   195A      2.359178
     196A      2.369097   197A      2.401704   198A      2.452940
     199A      2.473837   200A      2.475914   201A      2.505447
     202A      2.532679   203A      2.545546   204A      2.554706
     205A      2.591029   206A      2.610068   207A      2.626357
     208A      2.640325   209A      2.652191   210A      2.744735
     211A      2.762334   212A      2.772289   213A      2.779290
     214A      2.792388   215A      2.803285   216A      2.806195
     217A      2.820047   218A      2.845605   219A      2.892075
     220A      2.922930   221A      2.958543   222A      2.975670
     223A      2.983537   224A      3.001166   225A      3.075772
     226A      3.113206   227A      3.120260   228A      3.247519
     229A      3.270604   230A      3.343990   231A      3.569816
     232A      3.655141   233A      3.966829   234A      4.181208

    Final Occupation by Irrep:
              A
    DOCC [    42 ]

  @RHF Final Energy:  -462.89067899635370

   => Energetics <=

    Nuclear Repulsion Energy =            594.1674554286420289
    One-Electron Energy =               -1805.9534598348352574
    Two-Electron Energy =                 748.8953254098394154
    Total Energy =                       -462.8906789963536994

Computation Completed

Properties will be evaluated at   0.000000,   0.000000,   0.000000 [a0]

Properties computed using the SCF density matrix

  Nuclear Dipole Moment: [e a0]
     X:     1.3627      Y:     2.3492      Z:    15.1426

  Electronic Dipole Moment: [e a0]
     X:    -1.9564      Y:    -2.3607      Z:   -15.1946

  Dipole Moment: [e a0]
     X:    -0.5938      Y:    -0.0115      Z:    -0.0520     Total:     0.5962

  Dipole Moment: [D]
     X:    -1.5092      Y:    -0.0291      Z:    -0.1322     Total:     1.5153

*** tstop() called on ds3 at Tue Apr 28 10:11:54 2020
Module time:
	user time   =     156.33 seconds =       2.61 minutes
	system time =      52.63 seconds =       0.88 minutes
	total time  =        320 seconds =       5.33 minutes
Total time:
	user time   =     156.33 seconds =       2.61 minutes
	system time =      52.63 seconds =       0.88 minutes
	total time  =        320 seconds =       5.33 minutes
                                     G D M A

                                 by Anthony Stone

                           version 2.2.06, 22 June 2011

               Distributed Multipoles from Gaussian wavefunctions

Starting at 10:11:54 on 28 Apr 2020

Using SCF density matrix from file ./SSI/SSI-014TYR-022LYS-2-dimer.test.31228.fchk

                         Distributed Multipole Analysis

Standard DMA

Positions and radii in angstrom
Multipole moments in atomic units, ea_0^k for rank k

C          x = -1.448021  y =  2.730449  z =  0.038223 angstrom
           Maximum rank =  0   Radius =  0.650 angstrom
                   Q00  =  -0.201127

C          x = -0.886021  y =  1.457449  z = -0.562777 angstrom
           Maximum rank =  0   Radius =  0.650 angstrom
                   Q00  =  -0.132739

C          x = -1.728021  y =  0.370449  z = -0.829777 angstrom
           Maximum rank =  0   Radius =  0.650 angstrom
                   Q00  =   0.046250

C          x =  0.475979  y =  1.338449  z = -0.867777 angstrom
           Maximum rank =  0   Radius =  0.650 angstrom
                   Q00  =  -0.044657

C          x = -1.233021  y = -0.807551  z = -1.385777 angstrom
           Maximum rank =  0   Radius =  0.650 angstrom
                   Q00  =  -0.181478

C          x =  0.983979  y =  0.152449  z = -1.421777 angstrom
           Maximum rank =  0   Radius =  0.650 angstrom
                   Q00  =  -0.107320

C          x =  0.123979  y = -0.919551  z = -1.681777 angstrom
           Maximum rank =  0   Radius =  0.650 angstrom
                   Q00  =   0.284477

O          x =  0.589979  y = -2.085551  z = -2.219777 angstrom
           Maximum rank =  0   Radius =  0.650 angstrom
                   Q00  =  -0.646895

H          x = -0.765021  y =  3.556449  z = -0.167777 angstrom
           Maximum rank =  0   Radius =  0.325 angstrom
                   Q00  =   0.096581

H          x = -1.507021  y =  2.624449  z =  1.118223 angstrom
           Maximum rank =  0   Radius =  0.325 angstrom
                   Q00  =   0.099250

H          x = -2.781021  y =  0.402449  z = -0.606777 angstrom
           Maximum rank =  0   Radius =  0.325 angstrom
                   Q00  =   0.067475

H          x =  1.139979  y =  2.170449  z = -0.677777 angstrom
           Maximum rank =  0   Radius =  0.325 angstrom
                   Q00  =   0.066615

H          x = -1.903021  y = -1.633551  z = -1.583777 angstrom
           Maximum rank =  0   Radius =  0.325 angstrom
                   Q00  =   0.070334

H          x =  2.033979  y =  0.052449  z = -1.652777 angstrom
           Maximum rank =  0   Radius =  0.325 angstrom
                   Q00  =   0.082072

H          x = -0.114021  y = -2.727551  z = -2.360777 angstrom
           Maximum rank =  0   Radius =  0.325 angstrom
                   Q00  =   0.407922

H          x = -2.436311  y =  2.980209  z = -0.375177 angstrom
           Maximum rank =  0   Radius =  0.325 angstrom
                   Q00  =   0.098481

C          x =  0.726979  y = -0.312551  z =  2.330223 angstrom
           Maximum rank =  0   Radius =  0.650 angstrom
                   Q00  =  -0.081437

C          x =  1.730979  y =  0.307449  z =  3.304223 angstrom
           Maximum rank =  0   Radius =  0.650 angstrom
                   Q00  =  -0.243722

C          x =  0.344979  y = -1.748551  z =  2.678223 angstrom
           Maximum rank =  0   Radius =  0.650 angstrom
                   Q00  =  -0.233085

H          x = -0.170021  y =  0.304449  z =  2.273223 angstrom
           Maximum rank =  0   Radius =  0.325 angstrom
                   Q00  =   0.044229

H          x =  1.187979  y = -0.322551  z =  1.342223 angstrom
           Maximum rank =  0   Radius =  0.325 angstrom
                   Q00  =   0.053892

H          x =  2.620979  y = -0.308551  z =  3.329223 angstrom
           Maximum rank =  0   Radius =  0.325 angstrom
                   Q00  =   0.076487

H          x =  1.256979  y = -2.325551  z =  2.775223 angstrom
           Maximum rank =  0   Radius =  0.325 angstrom
                   Q00  =   0.073451

H          x = -0.187021  y = -1.740551  z =  3.629223 angstrom
           Maximum rank =  0   Radius =  0.325 angstrom
                   Q00  =   0.069581

H          x =  1.286539  y =  0.400857  z =  4.306093 angstrom
           Maximum rank =  0   Radius =  0.325 angstrom
                   Q00  =   0.073258

H          x =  2.059995  y =  1.286509  z =  2.925813 angstrom
           Maximum rank =  0   Radius =  0.325 angstrom
                   Q00  =   0.077547

H          x = -0.272424  y = -2.203328  z =  1.889563 angstrom
           Maximum rank =  0   Radius =  0.325 angstrom
                   Q00  =   0.084561

Total multipoles referred to origin at
           x =   0.000000,  y =    0.000000,  z =    0.000000 angstrom
                   Q00  =  -0.000000

Finished at 10:11:54 on 28 Apr 2020

  DMA results are available in the Python driver through the
	  variable('DMA DISTRIBUTED MULTIPOLES')
  and
	  variable('DMA TOTAL MULTIPOLES')
  commands.

    Psi4 stopped on: Tuesday, 28 April 2020 10:11AM
    Psi4 wall time for execution: 0:05:20.49

*** Psi4 exiting successfully. Buy a developer a beer!
