                               Psi4 1.3.2 release

  ==> Input File <==

--------------------------------------------------------------------------
import numpy as np
set {scf_type pk
basis cc-pvdz
d_convergence 10
gdma_switch   0
gdma_limit    0
gdma_origin   [ 0.0,  0.0,  0.0 ]
}
molecule test {
    units Angstrom
    -1 1
    --
    -1 1
    C                1.761283570564643    -2.479296821854912     0.268071607449745
    C                1.182283570564643    -1.100296821854912     0.587071607449746
    O                0.177283570564643    -0.998296821854912     1.329071607449746
    O                1.780283570564643    -0.111296821854912     0.106071607449745
    H                2.617283570564643    -2.656296821854912     0.920071607449746
    H                2.133283570564643    -2.486296821854912    -0.753928392550255
    H                1.041633570564643    -3.301963821854912     0.391829607449745
    C               -1.331716429435357     1.551703178145088    -0.285928392550254
    C               -2.425716429435357     0.534703178145088    -0.622928392550255
    C               -1.154716429435357     2.621703178145088    -1.360928392550254
    H               -1.590716429435357     2.038703178145088     0.656071607449746
    H               -0.386716429435357     1.042703178145088    -0.153928392550255
    H               -3.344716429435358     1.089703178145088    -0.779928392550255
    H               -0.792716429435357     2.157703178145088    -2.278928392550255
    H               -2.114716429435357     3.085703178145088    -1.566928392550254
    H               -2.582956429435357    -0.160779821854912     0.214674607449745
    H               -2.168576429435357    -0.035190821854912    -1.527969852550255
    H               -0.439526429435357     3.399023178145088    -1.053900392550255

}
e, wfn = energy('scf', return_wfn=True)
gdma(wfn)
dmavals = variable('DMA DISTRIBUTED MULTIPOLES')
charges = np.array(dmavals)
print(charges)
np.save('SSI-152ASP-156LYS-1-dimer.npy', np.array(charges))--------------------------------------------------------------------------

*** tstart() called on ds3
*** at Mon Apr 27 16:02:52 2020

   => Loading Basis Set <=

    Name: CC-PVDZ
    Role: ORBITAL
    Keyword: BASIS
    atoms 1-2, 8-10  entry C          line   138 file /theoryfs2/ds/metcalf/miniconda2/envs/tf2gpu/share/psi4/basis/cc-pvdz.gbs
    atoms 3-4        entry O          line   198 file /theoryfs2/ds/metcalf/miniconda2/envs/tf2gpu/share/psi4/basis/cc-pvdz.gbs
    atoms 5-7, 11-18 entry H          line    22 file /theoryfs2/ds/metcalf/miniconda2/envs/tf2gpu/share/psi4/basis/cc-pvdz.gbs

         ---------------------------------------------------------
                                   SCF
               by Justin Turney, Rob Parrish, Andy Simmonett
                          and Daniel G. A. Smith
                              RHF Reference
                        1 Threads,    500 MiB Core
         ---------------------------------------------------------

  ==> Geometry <==

    Molecular point group: c1
    Full point group: C1

    Geometry (in Angstrom), charge = -1, multiplicity = 1:

       Center              X                  Y                   Z               Mass
    ------------   -----------------  -----------------  -----------------  -----------------
         C            1.761283570565    -2.479296821855     0.268071607450    12.000000000000
         C            1.182283570565    -1.100296821855     0.587071607450    12.000000000000
         O            0.177283570565    -0.998296821855     1.329071607450    15.994914619570
         O            1.780283570565    -0.111296821855     0.106071607450    15.994914619570
         H            2.617283570565    -2.656296821855     0.920071607450     1.007825032230
         H            2.133283570565    -2.486296821855    -0.753928392550     1.007825032230
         H            1.041633570565    -3.301963821855     0.391829607450     1.007825032230
         C           -1.331716429435     1.551703178145    -0.285928392550    12.000000000000
         C           -2.425716429435     0.534703178145    -0.622928392550    12.000000000000
         C           -1.154716429435     2.621703178145    -1.360928392550    12.000000000000
         H           -1.590716429435     2.038703178145     0.656071607450     1.007825032230
         H           -0.386716429435     1.042703178145    -0.153928392550     1.007825032230
         H           -3.344716429435     1.089703178145    -0.779928392550     1.007825032230
         H           -0.792716429435     2.157703178145    -2.278928392550     1.007825032230
         H           -2.114716429435     3.085703178145    -1.566928392550     1.007825032230
         H           -2.582956429435    -0.160779821855     0.214674607450     1.007825032230
         H           -2.168576429435    -0.035190821855    -1.527969852550     1.007825032230
         H           -0.439526429435     3.399023178145    -1.053900392550     1.007825032230

  Running in c1 symmetry.

  Rotational constants: A =      0.14133  B =      0.03248  C =      0.02922 [cm^-1]
  Rotational constants: A =   4236.91369  B =    973.71444  C =    875.95878 [MHz]
  Nuclear repulsion =  292.763684220628704

  Charge       = -1
  Multiplicity = 1
  Electrons    = 58
  Nalpha       = 29
  Nbeta        = 29

  ==> Algorithm <==

  SCF Algorithm Type is PK.
  DIIS enabled.
  MOM disabled.
  Fractional occupation disabled.
  Guess Type is SAD.
  Energy threshold   = 1.00e-06
  Density threshold  = 1.00e-10
  Integral threshold = 0.00e+00

  ==> Primary Basis <==

  Basis Set: CC-PVDZ
    Blend: CC-PVDZ
    Number of shells: 75
    Number of basis function: 153
    Number of Cartesian functions: 160
    Spherical Harmonics?: true
    Max angular momentum: 2

  ==> Pre-Iterations <==

   -------------------------------------------------------
    Irrep   Nso     Nmo     Nalpha   Nbeta   Ndocc  Nsocc
   -------------------------------------------------------
     A        153     153       0       0       0       0
   -------------------------------------------------------
    Total     153     153      29      29      29       0
   -------------------------------------------------------

  ==> Integral Setup <==

  Using integral reordering PK algorithm.
  Sizing the integral batches needed.
  Building batch lookup table.
   Calculation information:
      Number of atoms:                  18
      Number of AO shells:              75
      Number of primitives:            209
      Number of atomic orbitals:       160
      Number of basis functions:       153

      Integral cutoff                 1.00e-12
      Number of threads:                 1

	Batch   1 pq = [       0,    9405] index = [             0,44231715] size =     44231715
	Batch   2 pq = [    9405,   11781] index = [      44231715,69401871] size =     25170156
  Task number: 7
  Buffer size: 11059200
  Buffer per thread: 2
  We computed 3390356 shell quartets total.
  Whereas there are 4062675 unique shell quartets.

  ==> DiskJK: Disk-Based J/K Matrices <==

    J tasked:                  Yes
    K tasked:                  Yes
    wK tasked:                  No
    Memory [MiB]:              375
    Schwarz Cutoff:          1E-12

    OpenMP threads:              1

  Minimum eigenvalue in the overlap matrix is 5.3291868946E-03.
  Using Symmetric Orthogonalization.

  SCF Guess: Superposition of Atomic Densities via on-the-fly atomic UHF.

  ==> Iterations <==

                        Total Energy        Delta E     RMS |[F,P]|

   @RHF iter SAD:  -343.85151640913466   -3.43852e+02   0.00000e+00
   @RHF iter   1:  -345.21830568319217   -1.36679e+00   4.96704e-03 DIIS
   @RHF iter   2:  -345.44762388303599   -2.29318e-01   2.75524e-03 DIIS
   @RHF iter   3:  -345.51460575675037   -6.69819e-02   4.28886e-04 DIIS
   @RHF iter   4:  -345.51757880659983   -2.97305e-03   1.60037e-04 DIIS
   @RHF iter   5:  -345.51799274499308   -4.13938e-04   2.42708e-05 DIIS
   @RHF iter   6:  -345.51800435183719   -1.16068e-05   6.20447e-06 DIIS
   @RHF iter   7:  -345.51800507983631   -7.27999e-07   1.78631e-06 DIIS
   @RHF iter   8:  -345.51800513142052   -5.15842e-08   6.58037e-07 DIIS
   @RHF iter   9:  -345.51800513698402   -5.56349e-09   2.00445e-07 DIIS
   @RHF iter  10:  -345.51800513780694   -8.22922e-10   5.96558e-08 DIIS
   @RHF iter  11:  -345.51800513792324   -1.16302e-10   2.01658e-08 DIIS
   @RHF iter  12:  -345.51800513793904   -1.58025e-11   7.29021e-09 DIIS
   @RHF iter  13:  -345.51800513794262   -3.58114e-12   2.27084e-09 DIIS
   @RHF iter  14:  -345.51800513794291   -2.84217e-13   6.27926e-10 DIIS
   @RHF iter  15:  -345.51800513794103    1.87583e-12   1.89369e-10 DIIS
   @RHF iter  16:  -345.51800513794336   -2.33058e-12   7.70335e-11 DIIS
  Energy and wave function converged.

  ==> Post-Iterations <==

    Orbital Energies [Eh]
    ---------------------

    Doubly Occupied:

       1A    -20.263843     2A    -20.262758     3A    -11.120673
       4A    -11.089898     5A    -11.082442     6A    -11.066096
       7A    -11.053839     8A     -1.151729     9A     -1.038417
      10A     -0.914148    11A     -0.798371    12A     -0.792847
      13A     -0.656238    14A     -0.504650    15A     -0.488383
      16A     -0.460777    17A     -0.414191    18A     -0.412249
      19A     -0.409134    20A     -0.405940    21A     -0.404355
      22A     -0.345449    23A     -0.337771    24A     -0.330015
      25A     -0.325793    26A     -0.303199    27A     -0.184890
      28A     -0.175552    29A     -0.164551

    Virtual:

      30A      0.307750    31A      0.348603    32A      0.355814
      33A      0.360924    34A      0.371683    35A      0.393781
      36A      0.399655    37A      0.413484    38A      0.421088
      39A      0.423863    40A      0.477567    41A      0.496199
      42A      0.526776    43A      0.563203    44A      0.572268
      45A      0.681621    46A      0.701739    47A      0.728045
      48A      0.747038    49A      0.754347    50A      0.764956
      51A      0.795774    52A      0.816937    53A      0.874599
      54A      0.933901    55A      0.937476    56A      0.957813
      57A      0.976952    58A      0.992441    59A      1.015254
      60A      1.017261    61A      1.025286    62A      1.030092
      63A      1.033248    64A      1.037221    65A      1.039603
      66A      1.053959    67A      1.065316    68A      1.073764
      69A      1.095317    70A      1.132082    71A      1.133470
      72A      1.163277    73A      1.227969    74A      1.262310
      75A      1.268653    76A      1.325164    77A      1.342322
      78A      1.378079    79A      1.427282    80A      1.504638
      81A      1.539618    82A      1.561761    83A      1.578706
      84A      1.609078    85A      1.617137    86A      1.637649
      87A      1.649109    88A      1.693411    89A      1.698270
      90A      1.743196    91A      1.788317    92A      1.805494
      93A      1.819555    94A      1.831532    95A      1.843908
      96A      1.868065    97A      1.982892    98A      2.014530
      99A      2.022065   100A      2.039191   101A      2.049857
     102A      2.069040   103A      2.069627   104A      2.088927
     105A      2.099704   106A      2.113622   107A      2.121292
     108A      2.133856   109A      2.140834   110A      2.148537
     111A      2.161059   112A      2.174871   113A      2.218178
     114A      2.247318   115A      2.257954   116A      2.297942
     117A      2.368283   118A      2.424482   119A      2.429651
     120A      2.433697   121A      2.442194   122A      2.460488
     123A      2.497569   124A      2.559664   125A      2.643901
     126A      2.672327   127A      2.675648   128A      2.707787
     129A      2.725031   130A      2.761666   131A      2.768312
     132A      2.774027   133A      2.881184   134A      2.904025
     135A      2.910730   136A      2.924619   137A      2.939958
     138A      2.975053   139A      2.984996   140A      3.069554
     141A      3.103273   142A      3.107015   143A      3.226821
     144A      3.246527   145A      3.273199   146A      3.317448
     147A      3.359410   148A      3.629312   149A      3.772578
     150A      3.835554   151A      4.060815   152A      4.075937
     153A      4.199336

    Final Occupation by Irrep:
              A
    DOCC [    29 ]

  @RHF Final Energy:  -345.51800513794336

   => Energetics <=

    Nuclear Repulsion Energy =            292.7636842206287042
    One-Electron Energy =               -1062.6469803474917626
    Two-Electron Energy =                 424.3652909889197531
    Total Energy =                       -345.5180051379433621

Computation Completed

Properties will be evaluated at   0.000000,   0.000000,   0.000000 [a0]

Properties computed using the SCF density matrix

  Nuclear Dipole Moment: [e a0]
     X:    -7.1420      Y:     3.9067      Z:    -5.5550

  Electronic Dipole Moment: [e a0]
     X:     5.9295      Y:    -3.4995      Z:     4.4961

  Dipole Moment: [e a0]
     X:    -1.2125      Y:     0.4073      Z:    -1.0589     Total:     1.6605

  Dipole Moment: [D]
     X:    -3.0818      Y:     1.0352      Z:    -2.6915     Total:     4.2206

*** tstop() called on ds3 at Mon Apr 27 16:03:37 2020
Module time:
	user time   =      22.81 seconds =       0.38 minutes
	system time =      10.69 seconds =       0.18 minutes
	total time  =         45 seconds =       0.75 minutes
Total time:
	user time   =      22.81 seconds =       0.38 minutes
	system time =      10.69 seconds =       0.18 minutes
	total time  =         45 seconds =       0.75 minutes
                                     G D M A

                                 by Anthony Stone

                           version 2.2.06, 22 June 2011

               Distributed Multipoles from Gaussian wavefunctions

Starting at 16:3:38 on 27 Apr 2020

Using SCF density matrix from file ./SSI/SSI-152ASP-156LYS-1-dimer.test.8936.fchk

                         Distributed Multipole Analysis

Standard DMA

Positions and radii in angstrom
Multipole moments in atomic units, ea_0^k for rank k

C          x =  1.761284  y = -2.479297  z =  0.268072 angstrom
           Maximum rank =  0   Radius =  0.650 angstrom
                   Q00  =  -0.263040

C          x =  1.182284  y = -1.100297  z =  0.587072 angstrom
           Maximum rank =  0   Radius =  0.650 angstrom
                   Q00  =   0.915100

O          x =  0.177284  y = -0.998297  z =  1.329072 angstrom
           Maximum rank =  0   Radius =  0.650 angstrom
                   Q00  =  -0.906890

O          x =  1.780284  y = -0.111297  z =  0.106072 angstrom
           Maximum rank =  0   Radius =  0.650 angstrom
                   Q00  =  -0.908978

H          x =  2.617284  y = -2.656297  z =  0.920072 angstrom
           Maximum rank =  0   Radius =  0.325 angstrom
                   Q00  =   0.081535

H          x =  2.133284  y = -2.486297  z = -0.753928 angstrom
           Maximum rank =  0   Radius =  0.325 angstrom
                   Q00  =   0.057944

H          x =  1.041634  y = -3.301964  z =  0.391830 angstrom
           Maximum rank =  0   Radius =  0.325 angstrom
                   Q00  =   0.045189

C          x = -1.331716  y =  1.551703  z = -0.285928 angstrom
           Maximum rank =  0   Radius =  0.650 angstrom
                   Q00  =  -0.015218

C          x = -2.425716  y =  0.534703  z = -0.622928 angstrom
           Maximum rank =  0   Radius =  0.650 angstrom
                   Q00  =  -0.225616

C          x = -1.154716  y =  2.621703  z = -1.360928 angstrom
           Maximum rank =  0   Radius =  0.650 angstrom
                   Q00  =  -0.257365

H          x = -1.590716  y =  2.038703  z =  0.656072 angstrom
           Maximum rank =  0   Radius =  0.325 angstrom
                   Q00  =   0.014616

H          x = -0.386716  y =  1.042703  z = -0.153928 angstrom
           Maximum rank =  0   Radius =  0.325 angstrom
                   Q00  =   0.104237

H          x = -3.344716  y =  1.089703  z = -0.779928 angstrom
           Maximum rank =  0   Radius =  0.325 angstrom
                   Q00  =   0.018515

H          x = -0.792716  y =  2.157703  z = -2.278928 angstrom
           Maximum rank =  0   Radius =  0.325 angstrom
                   Q00  =   0.068689

H          x = -2.114716  y =  3.085703  z = -1.566928 angstrom
           Maximum rank =  0   Radius =  0.325 angstrom
                   Q00  =   0.032367

H          x = -2.582956  y = -0.160780  z =  0.214675 angstrom
           Maximum rank =  0   Radius =  0.325 angstrom
                   Q00  =   0.101489

H          x = -2.168576  y = -0.035191  z = -1.527970 angstrom
           Maximum rank =  0   Radius =  0.325 angstrom
                   Q00  =   0.064596

H          x = -0.439526  y =  3.399023  z = -1.053900 angstrom
           Maximum rank =  0   Radius =  0.325 angstrom
                   Q00  =   0.072829

Total multipoles referred to origin at
           x =   0.000000,  y =    0.000000,  z =    0.000000 angstrom
                   Q00  =  -1.000000

Finished at 16:3:38 on 27 Apr 2020

  DMA results are available in the Python driver through the
	  variable('DMA DISTRIBUTED MULTIPOLES')
  and
	  variable('DMA TOTAL MULTIPOLES')
  commands.

    Psi4 stopped on: Monday, 27 April 2020 04:03PM
    Psi4 wall time for execution: 0:00:45.28

*** Psi4 exiting successfully. Buy a developer a beer!
