                               Psi4 1.3.2 release

  ==> Input File <==

--------------------------------------------------------------------------
import numpy as np
set {scf_type pk
basis cc-pvdz
d_convergence 10
gdma_switch   0
gdma_limit    0
gdma_origin   [ 0.0,  0.0,  0.0 ]
}
molecule test {
    units Angstrom
    0 1
    --
    0 1
    C                0.184387786795004    -1.276660345508373    -1.037535601614654
    C                0.284387786795004    -2.369660345508374    -2.127535601614654
    H                1.045387786795004    -0.617660345508373    -1.078535601614654
    H               -0.707612213204996    -0.676660345508373    -1.223535601614654
    H                0.084387786795004    -1.706660345508373    -0.039535601614654
    H               -0.580612213204996    -3.023660345508373    -2.010535601614654
    H                1.193987786795004    -2.967310345508373    -1.968019601614654
    H                0.284387786795004    -1.995510345508373    -3.161949601614654
    C               -0.394612213204996     1.896339654491627     0.844464398385345
    C               -0.068612213204996     1.755339654491627     2.321464398385345
    H                0.359387786795004     1.398339654491627     0.235464398385346
    H               -1.361612213204996     1.436339654491627     0.636464398385346
    H               -0.436612213204996     2.950339654492627     0.568464398385345
    H               -0.015612213204996     0.700339654491627     2.564464398385346
    H                0.911077786795004     2.214479654492627     2.519972398385346
    H               -0.842652213204996     2.223819654491627     2.947070398385346

}
e, wfn = energy('scf', return_wfn=True)
gdma(wfn)
dmavals = variable('DMA DISTRIBUTED MULTIPOLES')
charges = np.array(dmavals)
print(charges)
np.save('SSI-172ILE-235VAL-1-dimer.npy', np.array(charges))--------------------------------------------------------------------------

*** tstart() called on ds3
*** at Mon Apr 27 21:46:13 2020

   => Loading Basis Set <=

    Name: CC-PVDZ
    Role: ORBITAL
    Keyword: BASIS
    atoms 1-2, 9-10  entry C          line   138 file /theoryfs2/ds/metcalf/miniconda2/envs/tf2gpu/share/psi4/basis/cc-pvdz.gbs
    atoms 3-8, 11-16 entry H          line    22 file /theoryfs2/ds/metcalf/miniconda2/envs/tf2gpu/share/psi4/basis/cc-pvdz.gbs

         ---------------------------------------------------------
                                   SCF
               by Justin Turney, Rob Parrish, Andy Simmonett
                          and Daniel G. A. Smith
                              RHF Reference
                        1 Threads,    500 MiB Core
         ---------------------------------------------------------

  ==> Geometry <==

    Molecular point group: c1
    Full point group: C1

    Geometry (in Angstrom), charge = 0, multiplicity = 1:

       Center              X                  Y                   Z               Mass
    ------------   -----------------  -----------------  -----------------  -----------------
         C            0.184387786795    -1.276660345508    -1.037535601615    12.000000000000
         C            0.284387786795    -2.369660345508    -2.127535601615    12.000000000000
         H            1.045387786795    -0.617660345508    -1.078535601615     1.007825032230
         H           -0.707612213205    -0.676660345508    -1.223535601615     1.007825032230
         H            0.084387786795    -1.706660345508    -0.039535601615     1.007825032230
         H           -0.580612213205    -3.023660345508    -2.010535601615     1.007825032230
         H            1.193987786795    -2.967310345508    -1.968019601615     1.007825032230
         H            0.284387786795    -1.995510345508    -3.161949601615     1.007825032230
         C           -0.394612213205     1.896339654492     0.844464398385    12.000000000000
         C           -0.068612213205     1.755339654492     2.321464398385    12.000000000000
         H            0.359387786795     1.398339654492     0.235464398385     1.007825032230
         H           -1.361612213205     1.436339654492     0.636464398385     1.007825032230
         H           -0.436612213205     2.950339654493     0.568464398385     1.007825032230
         H           -0.015612213205     0.700339654492     2.564464398385     1.007825032230
         H            0.911077786795     2.214479654493     2.519972398385     1.007825032230
         H           -0.842652213205     2.223819654492     2.947070398385     1.007825032230

  Running in c1 symmetry.

  Rotational constants: A =      0.66084  B =      0.04308  C =      0.04172 [cm^-1]
  Rotational constants: A =  19811.56083  B =   1291.38614  C =   1250.59658 [MHz]
  Nuclear repulsion =  120.662387126540921

  Charge       = 0
  Multiplicity = 1
  Electrons    = 36
  Nalpha       = 18
  Nbeta        = 18

  ==> Algorithm <==

  SCF Algorithm Type is PK.
  DIIS enabled.
  MOM disabled.
  Fractional occupation disabled.
  Guess Type is SAD.
  Energy threshold   = 1.00e-06
  Density threshold  = 1.00e-10
  Integral threshold = 0.00e+00

  ==> Primary Basis <==

  Basis Set: CC-PVDZ
    Blend: CC-PVDZ
    Number of shells: 60
    Number of basis function: 116
    Number of Cartesian functions: 120
    Spherical Harmonics?: true
    Max angular momentum: 2

  ==> Pre-Iterations <==

   -------------------------------------------------------
    Irrep   Nso     Nmo     Nalpha   Nbeta   Ndocc  Nsocc
   -------------------------------------------------------
     A        116     116       0       0       0       0
   -------------------------------------------------------
    Total     116     116      18      18      18       0
   -------------------------------------------------------

  ==> Integral Setup <==

  Using integral reordering PK algorithm.
  Sizing the integral batches needed.
  Building batch lookup table.
   Calculation information:
      Number of atoms:                  16
      Number of AO shells:              60
      Number of primitives:            148
      Number of atomic orbitals:       120
      Number of basis functions:       116

      Integral cutoff                 1.00e-12
      Number of threads:                 1

	Batch   1 pq = [       0,    6786] index = [             0,23028291] size =     23028291
  Task number: 3
  Buffer size: 11059200
  Buffer per thread: 2
  We computed 1369616 shell quartets total.
  Whereas there are 1675365 unique shell quartets.

  ==> DiskJK: Disk-Based J/K Matrices <==

    J tasked:                  Yes
    K tasked:                  Yes
    wK tasked:                  No
    Memory [MiB]:              375
    Schwarz Cutoff:          1E-12

    OpenMP threads:              1

  Minimum eigenvalue in the overlap matrix is 7.0135472106E-03.
  Using Symmetric Orthogonalization.

  SCF Guess: Superposition of Atomic Densities via on-the-fly atomic UHF.

  ==> Iterations <==

                        Total Energy        Delta E     RMS |[F,P]|

   @RHF iter SAD:  -157.33162898130078   -1.57332e+02   0.00000e+00
   @RHF iter   1:  -158.30816594224098   -9.76537e-01   4.20050e-03 DIIS
   @RHF iter   2:  -158.44100559097456   -1.32840e-01   1.79034e-03 DIIS
   @RHF iter   3:  -158.46427773829447   -2.32721e-02   3.49034e-04 DIIS
   @RHF iter   4:  -158.46610535931055   -1.82762e-03   3.87169e-05 DIIS
   @RHF iter   5:  -158.46612886784905   -2.35085e-05   6.51738e-06 DIIS
   @RHF iter   6:  -158.46612949453575   -6.26687e-07   1.09432e-06 DIIS
   @RHF iter   7:  -158.46612950662845   -1.20927e-08   3.25620e-07 DIIS
   @RHF iter   8:  -158.46612950761053   -9.82084e-10   4.69546e-08 DIIS
   @RHF iter   9:  -158.46612950764705   -3.65219e-11   1.09102e-08 DIIS
   @RHF iter  10:  -158.46612950764916   -2.10321e-12   2.94116e-09 DIIS
   @RHF iter  11:  -158.46612950764882    3.41061e-13   8.65687e-10 DIIS
   @RHF iter  12:  -158.46612950764913   -3.12639e-13   1.83480e-10 DIIS
   @RHF iter  13:  -158.46612950764924   -1.13687e-13   2.62763e-11 DIIS
  Energy and wave function converged.

  ==> Post-Iterations <==

    Orbital Energies [Eh]
    ---------------------

    Doubly Occupied:

       1A    -11.221138     2A    -11.219125     3A    -11.217208
       4A    -11.214425     5A     -1.019936     6A     -1.013592
       7A     -0.841731     8A     -0.833929     9A     -0.599543
      10A     -0.599076    11A     -0.595303    12A     -0.592401
      13A     -0.506355    14A     -0.500663    15A     -0.489481
      16A     -0.486585    17A     -0.481567    18A     -0.478460

    Virtual:

      19A      0.173213    20A      0.194009    21A      0.226625
      22A      0.232554    23A      0.234367    24A      0.260970
      25A      0.265999    26A      0.275331    27A      0.276768
      28A      0.299539    29A      0.311392    30A      0.337726
      31A      0.390243    32A      0.407156    33A      0.572953
      34A      0.586217    35A      0.597725    36A      0.601001
      37A      0.606970    38A      0.630293    39A      0.679287
      40A      0.685733    41A      0.707313    42A      0.755403
      43A      0.850715    44A      0.865075    45A      0.885165
      46A      0.890699    47A      0.891371    48A      0.894212
      49A      0.900675    50A      0.907402    51A      0.914836
      52A      0.924896    53A      0.941158    54A      0.951083
      55A      0.968991    56A      0.996391    57A      1.116921
      58A      1.129462    59A      1.136560    60A      1.148480
      61A      1.230389    62A      1.252038    63A      1.448197
      64A      1.473700    65A      1.483395    66A      1.494433
      67A      1.564113    68A      1.585173    69A      1.681918
      70A      1.685964    71A      1.696061    72A      1.697442
      73A      1.855685    74A      1.857302    75A      1.874402
      76A      1.882065    77A      1.887970    78A      1.911814
      79A      1.925872    80A      1.941226    81A      1.943691
      82A      1.948036    83A      1.951853    84A      1.962201
      85A      1.964459    86A      1.970267    87A      1.977958
      88A      2.049341    89A      2.064068    90A      2.096397
      91A      2.123383    92A      2.132088    93A      2.297635
      94A      2.306976    95A      2.313765    96A      2.340829
      97A      2.437501    98A      2.462044    99A      2.470213
     100A      2.478362   101A      2.531404   102A      2.560493
     103A      2.578611   104A      2.583915   105A      2.755250
     106A      2.765338   107A      2.783640   108A      2.793560
     109A      2.844920   110A      2.854583   111A      2.865040
     112A      2.875727   113A      2.934778   114A      2.950031
     115A      2.970699   116A      2.971758

    Final Occupation by Irrep:
              A
    DOCC [    18 ]

  @RHF Final Energy:  -158.46612950764924

   => Energetics <=

    Nuclear Repulsion Energy =            120.6623871265409207
    One-Electron Energy =                -450.4359941274167909
    Two-Electron Energy =                 171.3074774932266280
    Total Energy =                       -158.4661295076492422

Computation Completed

Properties will be evaluated at   0.000000,   0.000000,   0.000000 [a0]

Properties computed using the SCF density matrix

  Nuclear Dipole Moment: [e a0]
     X:    -0.0620      Y:    -0.0598      Z:    -0.0096

  Electronic Dipole Moment: [e a0]
     X:     0.0530      Y:     0.0463      Z:    -0.0014

  Dipole Moment: [e a0]
     X:    -0.0090      Y:    -0.0135      Z:    -0.0110     Total:     0.0196

  Dipole Moment: [D]
     X:    -0.0228      Y:    -0.0344      Z:    -0.0279     Total:     0.0498

*** tstop() called on ds3 at Mon Apr 27 21:46:25 2020
Module time:
	user time   =       6.95 seconds =       0.12 minutes
	system time =       2.55 seconds =       0.04 minutes
	total time  =         12 seconds =       0.20 minutes
Total time:
	user time   =       6.95 seconds =       0.12 minutes
	system time =       2.55 seconds =       0.04 minutes
	total time  =         12 seconds =       0.20 minutes
                                     G D M A

                                 by Anthony Stone

                           version 2.2.06, 22 June 2011

               Distributed Multipoles from Gaussian wavefunctions

Starting at 21:46:25 on 27 Apr 2020

Using SCF density matrix from file ./SSI/SSI-172ILE-235VAL-1-dimer.test.20746.fchk

                         Distributed Multipole Analysis

Standard DMA

Positions and radii in angstrom
Multipole moments in atomic units, ea_0^k for rank k

C          x =  0.184388  y = -1.276660  z = -1.037536 angstrom
           Maximum rank =  0   Radius =  0.650 angstrom
                   Q00  =  -0.234657

C          x =  0.284388  y = -2.369660  z = -2.127536 angstrom
           Maximum rank =  0   Radius =  0.650 angstrom
                   Q00  =  -0.252138

H          x =  1.045388  y = -0.617660  z = -1.078536 angstrom
           Maximum rank =  0   Radius =  0.325 angstrom
                   Q00  =   0.080286

H          x = -0.707612  y = -0.676660  z = -1.223536 angstrom
           Maximum rank =  0   Radius =  0.325 angstrom
                   Q00  =   0.079393

H          x =  0.084388  y = -1.706660  z = -0.039536 angstrom
           Maximum rank =  0   Radius =  0.325 angstrom
                   Q00  =   0.084806

H          x = -0.580612  y = -3.023660  z = -2.010536 angstrom
           Maximum rank =  0   Radius =  0.325 angstrom
                   Q00  =   0.078826

H          x =  1.193988  y = -2.967310  z = -1.968020 angstrom
           Maximum rank =  0   Radius =  0.325 angstrom
                   Q00  =   0.078873

H          x =  0.284388  y = -1.995510  z = -3.161950 angstrom
           Maximum rank =  0   Radius =  0.325 angstrom
                   Q00  =   0.085430

C          x = -0.394612  y =  1.896340  z =  0.844464 angstrom
           Maximum rank =  0   Radius =  0.650 angstrom
                   Q00  =  -0.236300

C          x = -0.068612  y =  1.755340  z =  2.321464 angstrom
           Maximum rank =  0   Radius =  0.650 angstrom
                   Q00  =  -0.233663

H          x =  0.359388  y =  1.398340  z =  0.235464 angstrom
           Maximum rank =  0   Radius =  0.325 angstrom
                   Q00  =   0.083633

H          x = -1.361612  y =  1.436340  z =  0.636464 angstrom
           Maximum rank =  0   Radius =  0.325 angstrom
                   Q00  =   0.076229

H          x = -0.436612  y =  2.950340  z =  0.568464 angstrom
           Maximum rank =  0   Radius =  0.325 angstrom
                   Q00  =   0.076600

H          x = -0.015612  y =  0.700340  z =  2.564464 angstrom
           Maximum rank =  0   Radius =  0.325 angstrom
                   Q00  =   0.077809

H          x =  0.911078  y =  2.214480  z =  2.519972 angstrom
           Maximum rank =  0   Radius =  0.325 angstrom
                   Q00  =   0.075897

H          x = -0.842652  y =  2.223820  z =  2.947070 angstrom
           Maximum rank =  0   Radius =  0.325 angstrom
                   Q00  =   0.078975

Total multipoles referred to origin at
           x =   0.000000,  y =    0.000000,  z =    0.000000 angstrom
                   Q00  =  -0.000000

Finished at 21:46:25 on 27 Apr 2020

  DMA results are available in the Python driver through the
	  variable('DMA DISTRIBUTED MULTIPOLES')
  and
	  variable('DMA TOTAL MULTIPOLES')
  commands.

    Psi4 stopped on: Monday, 27 April 2020 09:46PM
    Psi4 wall time for execution: 0:00:11.98

*** Psi4 exiting successfully. Buy a developer a beer!
