                               Psi4 1.3.2 release

  ==> Input File <==

--------------------------------------------------------------------------
import numpy as np
set {scf_type pk
basis cc-pvdz
d_convergence 10
gdma_switch   0
gdma_limit    0
gdma_origin   [ 0.0,  0.0,  0.0 ]
}
molecule test {
    units Angstrom
    0 1
    --
    0 1
    C               -0.005890963458428    -2.060658337063818    -2.092387027735565
    C                0.602109036541572    -0.610658337063818    -0.031387027735565
    C                0.893109036541572    -1.621658337063818    -0.999387027735565
    C                1.727109036541572    -0.506658337063818     0.822612972264435
    C                2.143109036541572    -2.078658337063818    -0.720387027735565
    C               -0.499890963458428     0.225341662936182     0.195612972264435
    C               -0.458890963458428     1.120341662936182     1.261612972264435
    C                0.673109036541573     1.198341662936182     2.092612972264435
    C                1.776109036541572     0.393341662936182     1.876612972264435
    N                2.643109036541572    -1.423658337063818     0.378612972264435
    H               -1.368890963458428     0.161341662936182    -0.441387027735565
    H               -1.309890963458428     1.760341662936182     1.444612972264435
    H                0.681109036541572     1.898341662936182     2.916612972264435
    H                0.592109036541572    -2.392658337063819    -2.939387027735565
    H               -0.595890963458428    -1.202658337063818    -2.419387027735565
    H                2.657109036541572    -2.859658337063818    -1.269387027735565
    H                3.571109036541572    -1.598658337063818     0.762612972264435
    H                2.649109036541572     0.443341662936182     2.504612972264435
    H               -0.686259963458428    -2.868418337063818    -1.784773027735565
    C               -3.535890963458427     2.060341662936182    -1.022387027735565
    C               -4.817890963458428     2.857341662936182    -1.172387027735565
    H               -3.420890963458428     1.364341662936182    -1.852387027735565
    H               -2.683890963458428     2.740341662936181    -1.017387027735565
    H               -3.526890963458428     1.514341662936182    -0.080387027735565
    H               -4.927890963458427     3.481341662936182    -0.287387027735565
    H               -5.686985763458428     2.188531662936182    -1.258224027735565
    H               -4.761849363458427     3.520500662936182    -2.048217027735566

}
e, wfn = energy('scf', return_wfn=True)
gdma(wfn)
dmavals = variable('DMA DISTRIBUTED MULTIPOLES')
charges = np.array(dmavals)
print(charges)
np.save('SSI-039TRP-064VAL-1-dimer.npy', np.array(charges))--------------------------------------------------------------------------

*** tstart() called on ds3
*** at Sun Apr 26 17:55:43 2020

   => Loading Basis Set <=

    Name: CC-PVDZ
    Role: ORBITAL
    Keyword: BASIS
    atoms 1-9, 20-21   entry C          line   138 file /theoryfs2/ds/metcalf/miniconda2/envs/tf2gpu/share/psi4/basis/cc-pvdz.gbs
    atoms 10           entry N          line   168 file /theoryfs2/ds/metcalf/miniconda2/envs/tf2gpu/share/psi4/basis/cc-pvdz.gbs
    atoms 11-19, 22-27 entry H          line    22 file /theoryfs2/ds/metcalf/miniconda2/envs/tf2gpu/share/psi4/basis/cc-pvdz.gbs

         ---------------------------------------------------------
                                   SCF
               by Justin Turney, Rob Parrish, Andy Simmonett
                          and Daniel G. A. Smith
                              RHF Reference
                        1 Threads,    500 MiB Core
         ---------------------------------------------------------

  ==> Geometry <==

    Molecular point group: c1
    Full point group: C1

    Geometry (in Angstrom), charge = 0, multiplicity = 1:

       Center              X                  Y                   Z               Mass
    ------------   -----------------  -----------------  -----------------  -----------------
         C           -0.005890963458    -2.060658337064    -2.092387027736    12.000000000000
         C            0.602109036542    -0.610658337064    -0.031387027736    12.000000000000
         C            0.893109036542    -1.621658337064    -0.999387027736    12.000000000000
         C            1.727109036542    -0.506658337064     0.822612972264    12.000000000000
         C            2.143109036542    -2.078658337064    -0.720387027736    12.000000000000
         C           -0.499890963458     0.225341662936     0.195612972264    12.000000000000
         C           -0.458890963458     1.120341662936     1.261612972264    12.000000000000
         C            0.673109036542     1.198341662936     2.092612972264    12.000000000000
         C            1.776109036542     0.393341662936     1.876612972264    12.000000000000
         N            2.643109036542    -1.423658337064     0.378612972264    14.003074004430
         H           -1.368890963458     0.161341662936    -0.441387027736     1.007825032230
         H           -1.309890963458     1.760341662936     1.444612972264     1.007825032230
         H            0.681109036542     1.898341662936     2.916612972264     1.007825032230
         H            0.592109036542    -2.392658337064    -2.939387027736     1.007825032230
         H           -0.595890963458    -1.202658337064    -2.419387027736     1.007825032230
         H            2.657109036542    -2.859658337064    -1.269387027736     1.007825032230
         H            3.571109036542    -1.598658337064     0.762612972264     1.007825032230
         H            2.649109036542     0.443341662936     2.504612972264     1.007825032230
         H           -0.686259963458    -2.868418337064    -1.784773027736     1.007825032230
         C           -3.535890963458     2.060341662936    -1.022387027736    12.000000000000
         C           -4.817890963458     2.857341662936    -1.172387027736    12.000000000000
         H           -3.420890963458     1.364341662936    -1.852387027736     1.007825032230
         H           -2.683890963458     2.740341662936    -1.017387027736     1.007825032230
         H           -3.526890963458     1.514341662936    -0.080387027736     1.007825032230
         H           -4.927890963458     3.481341662936    -0.287387027736     1.007825032230
         H           -5.686985763458     2.188531662936    -1.258224027736     1.007825032230
         H           -4.761849363458     3.520500662936    -2.048217027736     1.007825032230

  Running in c1 symmetry.

  Rotational constants: A =      0.04405  B =      0.01466  C =      0.01112 [cm^-1]
  Rotational constants: A =   1320.49579  B =    439.50798  C =    333.32589 [MHz]
  Nuclear repulsion =  639.457744661640504

  Charge       = 0
  Multiplicity = 1
  Electrons    = 88
  Nalpha       = 44
  Nbeta        = 44

  ==> Algorithm <==

  SCF Algorithm Type is PK.
  DIIS enabled.
  MOM disabled.
  Fractional occupation disabled.
  Guess Type is SAD.
  Energy threshold   = 1.00e-06
  Density threshold  = 1.00e-10
  Integral threshold = 0.00e+00

  ==> Primary Basis <==

  Basis Set: CC-PVDZ
    Blend: CC-PVDZ
    Number of shells: 117
    Number of basis function: 243
    Number of Cartesian functions: 255
    Spherical Harmonics?: true
    Max angular momentum: 2

  ==> Pre-Iterations <==

   -------------------------------------------------------
    Irrep   Nso     Nmo     Nalpha   Nbeta   Ndocc  Nsocc
   -------------------------------------------------------
     A        243     243       0       0       0       0
   -------------------------------------------------------
    Total     243     243      44      44      44       0
   -------------------------------------------------------

  ==> Integral Setup <==

  Using integral reordering PK algorithm.
  Sizing the integral batches needed.
  Building batch lookup table.
   Calculation information:
      Number of atoms:                  27
      Number of AO shells:             117
      Number of primitives:            339
      Number of atomic orbitals:       255
      Number of basis functions:       243

      Integral cutoff                 1.00e-12
      Number of threads:                 1

	Batch   1 pq = [       0,    9405] index = [             0,44231715] size =     44231715
	Batch   2 pq = [    9405,   13301] index = [      44231715,88464951] size =     44233236
	Batch   3 pq = [   13301,   16290] index = [      88464951,132690195] size =     44225244
	Batch   4 pq = [   16290,   18810] index = [     132690195,176917455] size =     44227260
	Batch   5 pq = [   18810,   21030] index = [     176917455,221140965] size =     44223510
	Batch   6 pq = [   21030,   23037] index = [     221140965,265363203] size =     44222238
	Batch   7 pq = [   23037,   24883] index = [     265363203,309594286] size =     44231083
	Batch   8 pq = [   24883,   26601] index = [     309594286,353819901] size =     44225615
	Batch   9 pq = [   26601,   28214] index = [     353819901,398029005] size =     44209104
	Batch  10 pq = [   28214,   29646] index = [     398029005,439457481] size =     41428476
  Task number: 40
  Buffer size: 11059200
  Buffer per thread: 2
  We computed 19106020 shell quartets total.
  Whereas there are 23829156 unique shell quartets.

  ==> DiskJK: Disk-Based J/K Matrices <==

    J tasked:                  Yes
    K tasked:                  Yes
    wK tasked:                  No
    Memory [MiB]:              375
    Schwarz Cutoff:          1E-12

    OpenMP threads:              1

  Minimum eigenvalue in the overlap matrix is 2.3396749437E-04.
  Using Symmetric Orthogonalization.

  SCF Guess: Superposition of Atomic Densities via on-the-fly atomic UHF.

  ==> Iterations <==

                        Total Energy        Delta E     RMS |[F,P]|

   @RHF iter SAD:  -479.10633968002185   -4.79106e+02   0.00000e+00
   @RHF iter   1:  -479.48580587303468   -3.79466e-01   2.62579e-03 DIIS
   @RHF iter   2:  -479.72082131523848   -2.35015e-01   1.17661e-03 DIIS
   @RHF iter   3:  -479.76388947964989   -4.30682e-02   3.06901e-04 DIIS
   @RHF iter   4:  -479.76776230832627   -3.87283e-03   1.41139e-04 DIIS
   @RHF iter   5:  -479.76842668493919   -6.64377e-04   2.00435e-05 DIIS
   @RHF iter   6:  -479.76845565936958   -2.89744e-05   9.18374e-06 DIIS
   @RHF iter   7:  -479.76846150232859   -5.84296e-06   3.79545e-06 DIIS
   @RHF iter   8:  -479.76846313499664   -1.63267e-06   1.50092e-06 DIIS
   @RHF iter   9:  -479.76846346533500   -3.30338e-07   6.64329e-07 DIIS
   @RHF iter  10:  -479.76846353035194   -6.50169e-08   3.02031e-07 DIIS
   @RHF iter  11:  -479.76846354646688   -1.61149e-08   1.16261e-07 DIIS
   @RHF iter  12:  -479.76846354879871   -2.33183e-09   3.68371e-08 DIIS
   @RHF iter  13:  -479.76846354895281   -1.54103e-10   9.62321e-09 DIIS
   @RHF iter  14:  -479.76846354896742   -1.46088e-11   3.92035e-09 DIIS
   @RHF iter  15:  -479.76846354897532   -7.90124e-12   1.88581e-09 DIIS
   @RHF iter  16:  -479.76846354896537    9.94760e-12   9.48964e-10 DIIS
   @RHF iter  17:  -479.76846354896912   -3.75167e-12   3.38160e-10 DIIS
   @RHF iter  18:  -479.76846354897219   -3.06954e-12   1.43257e-10 DIIS
   @RHF iter  19:  -479.76846354897009    2.10321e-12   5.13611e-11 DIIS
  Energy and wave function converged.

  ==> Post-Iterations <==

    Orbital Energies [Eh]
    ---------------------

    Doubly Occupied:

       1A    -15.600650     2A    -11.261483     3A    -11.261397
       4A    -11.228865     5A    -11.228403     6A    -11.227591
       7A    -11.223643     8A    -11.220251     9A    -11.217270
      10A    -11.217045    11A    -11.214694    12A    -11.213388
      13A     -1.294431    14A     -1.126987    15A     -1.074449
      16A     -1.020369    17A     -0.996608    18A     -0.986291
      19A     -0.930592    20A     -0.838649    21A     -0.835233
      22A     -0.803312    23A     -0.750987    24A     -0.717715
      25A     -0.662018    26A     -0.641255    27A     -0.602088
      28A     -0.599589    29A     -0.597161    30A     -0.591887
      31A     -0.589833    32A     -0.567536    33A     -0.551629
      34A     -0.538455    35A     -0.525034    36A     -0.502328
      37A     -0.493948    38A     -0.483758    39A     -0.482998
      40A     -0.469492    41A     -0.459992    42A     -0.371402
      43A     -0.294134    44A     -0.273079

    Virtual:

      45A      0.126771    46A      0.170355    47A      0.177191
      48A      0.181168    49A      0.193504    50A      0.206834
      51A      0.220297    52A      0.224335    53A      0.228499
      54A      0.246795    55A      0.255888    56A      0.263235
      57A      0.276404    58A      0.287480    59A      0.294209
      60A      0.299319    61A      0.312483    62A      0.324216
      63A      0.374136    64A      0.383821    65A      0.396950
      66A      0.413246    67A      0.434087    68A      0.452378
      69A      0.476020    70A      0.480269    71A      0.501599
      72A      0.510875    73A      0.589114    74A      0.599103
      75A      0.605340    76A      0.612362    77A      0.637503
      78A      0.644490    79A      0.656209    80A      0.670707
      81A      0.691647    82A      0.697873    83A      0.703241
      84A      0.711655    85A      0.721962    86A      0.733546
      87A      0.742308    88A      0.743380    89A      0.752334
      90A      0.762734    91A      0.773479    92A      0.783508
      93A      0.785163    94A      0.792105    95A      0.805542
      96A      0.835956    97A      0.848847    98A      0.863013
      99A      0.878459   100A      0.888254   101A      0.890019
     102A      0.893487   103A      0.896314   104A      0.901753
     105A      0.912736   106A      0.917861   107A      0.921677
     108A      0.926956   109A      0.931063   110A      0.957013
     111A      0.962997   112A      0.974304   113A      0.979085
     114A      0.992446   115A      1.009329   116A      1.017374
     117A      1.055583   118A      1.075095   119A      1.094812
     120A      1.121380   121A      1.131152   122A      1.143421
     123A      1.144076   124A      1.152871   125A      1.162253
     126A      1.198056   127A      1.214880   128A      1.230851
     129A      1.237273   130A      1.241815   131A      1.253710
     132A      1.275115   133A      1.275725   134A      1.295431
     135A      1.306472   136A      1.328991   137A      1.340086
     138A      1.362605   139A      1.380800   140A      1.442242
     141A      1.450149   142A      1.479883   143A      1.484765
     144A      1.530392   145A      1.560963   146A      1.583475
     147A      1.591076   148A      1.608823   149A      1.628866
     150A      1.640755   151A      1.653101   152A      1.681809
     153A      1.693567   154A      1.697031   155A      1.703082
     156A      1.739298   157A      1.761444   158A      1.769063
     159A      1.785884   160A      1.808396   161A      1.825421
     162A      1.835781   163A      1.863431   164A      1.873541
     165A      1.892733   166A      1.899455   167A      1.901179
     168A      1.909590   169A      1.918530   170A      1.923319
     171A      1.935633   172A      1.943270   173A      1.946559
     174A      1.949757   175A      1.956196   176A      1.964744
     177A      1.972375   178A      1.981358   179A      1.997503
     180A      2.007687   181A      2.013623   182A      2.028106
     183A      2.066667   184A      2.080715   185A      2.091190
     186A      2.094721   187A      2.099175   188A      2.107929
     189A      2.112661   190A      2.117626   191A      2.130812
     192A      2.156151   193A      2.168900   194A      2.178256
     195A      2.190965   196A      2.242349   197A      2.268211
     198A      2.286746   199A      2.304527   200A      2.313875
     201A      2.320491   202A      2.340719   203A      2.353010
     204A      2.369368   205A      2.405646   206A      2.420086
     207A      2.451683   208A      2.465274   209A      2.470470
     210A      2.471026   211A      2.539069   212A      2.560892
     213A      2.580175   214A      2.593949   215A      2.607971
     216A      2.644005   217A      2.670794   218A      2.692832
     219A      2.715223   220A      2.762204   221A      2.772227
     222A      2.781975   223A      2.788427   224A      2.794303
     225A      2.816027   226A      2.833297   227A      2.855578
     228A      2.858606   229A      2.866470   230A      2.885425
     231A      2.915728   232A      2.952821   233A      2.958500
     234A      2.972979   235A      3.035790   236A      3.055205
     237A      3.080491   238A      3.126064   239A      3.214995
     240A      3.315232   241A      3.387390   242A      3.741502
     243A      3.958252

    Final Occupation by Irrep:
              A
    DOCC [    44 ]

  @RHF Final Energy:  -479.76846354897009

   => Energetics <=

    Nuclear Repulsion Energy =            639.4577446616405041
    One-Electron Energy =               -1916.8765807003878763
    Two-Electron Energy =                 797.6503724897773964
    Total Energy =                       -479.7684635489700895

Computation Completed

Properties will be evaluated at   0.000000,   0.000000,   0.000000 [a0]

Properties computed using the SCF density matrix

  Nuclear Dipole Moment: [e a0]
     X:   -17.6497      Y:     7.6452      Z:    -7.2851

  Electronic Dipole Moment: [e a0]
     X:    18.3450      Y:    -8.0518      Z:     7.2456

  Dipole Moment: [e a0]
     X:     0.6953      Y:    -0.4066      Z:    -0.0395     Total:     0.8064

  Dipole Moment: [D]
     X:     1.7672      Y:    -1.0334      Z:    -0.1004     Total:     2.0497

*** tstop() called on ds3 at Sun Apr 26 17:59:26 2020
Module time:
	user time   =     155.80 seconds =       2.60 minutes
	system time =      75.94 seconds =       1.27 minutes
	total time  =        223 seconds =       3.72 minutes
Total time:
	user time   =     155.80 seconds =       2.60 minutes
	system time =      75.94 seconds =       1.27 minutes
	total time  =        223 seconds =       3.72 minutes
                                     G D M A

                                 by Anthony Stone

                           version 2.2.06, 22 June 2011

               Distributed Multipoles from Gaussian wavefunctions

Starting at 17:59:26 on 26 Apr 2020

Using SCF density matrix from file ./SSI/SSI-039TRP-064VAL-1-dimer.test.1340.fchk

                         Distributed Multipole Analysis

Standard DMA

Positions and radii in angstrom
Multipole moments in atomic units, ea_0^k for rank k

C          x = -0.005891  y = -2.060658  z = -2.092387 angstrom
           Maximum rank =  0   Radius =  0.650 angstrom
                   Q00  =  -0.212813

C          x =  0.602109  y = -0.610658  z = -0.031387 angstrom
           Maximum rank =  0   Radius =  0.650 angstrom
                   Q00  =  -0.048710

C          x =  0.893109  y = -1.621658  z = -0.999387 angstrom
           Maximum rank =  0   Radius =  0.650 angstrom
                   Q00  =  -0.118517

C          x =  1.727109  y = -0.506658  z =  0.822613 angstrom
           Maximum rank =  0   Radius =  0.650 angstrom
                   Q00  =   0.275574

C          x =  2.143109  y = -2.078658  z = -0.720387 angstrom
           Maximum rank =  0   Radius =  0.650 angstrom
                   Q00  =   0.069519

C          x = -0.499891  y =  0.225342  z =  0.195613 angstrom
           Maximum rank =  0   Radius =  0.650 angstrom
                   Q00  =  -0.105498

C          x = -0.458891  y =  1.120342  z =  1.261613 angstrom
           Maximum rank =  0   Radius =  0.650 angstrom
                   Q00  =  -0.097935

C          x =  0.673109  y =  1.198342  z =  2.092613 angstrom
           Maximum rank =  0   Radius =  0.650 angstrom
                   Q00  =  -0.038293

C          x =  1.776109  y =  0.393342  z =  1.876613 angstrom
           Maximum rank =  0   Radius =  0.650 angstrom
                   Q00  =  -0.118178

N          x =  2.643109  y = -1.423658  z =  0.378613 angstrom
           Maximum rank =  0   Radius =  0.650 angstrom
                   Q00  =  -0.494738

H          x = -1.368891  y =  0.161342  z = -0.441387 angstrom
           Maximum rank =  0   Radius =  0.325 angstrom
                   Q00  =   0.072987

H          x = -1.309891  y =  1.760342  z =  1.444613 angstrom
           Maximum rank =  0   Radius =  0.325 angstrom
                   Q00  =   0.059736

H          x =  0.681109  y =  1.898342  z =  2.916613 angstrom
           Maximum rank =  0   Radius =  0.325 angstrom
                   Q00  =   0.063741

H          x =  0.592109  y = -2.392658  z = -2.939387 angstrom
           Maximum rank =  0   Radius =  0.325 angstrom
                   Q00  =   0.103311

H          x = -0.595891  y = -1.202658  z = -2.419387 angstrom
           Maximum rank =  0   Radius =  0.325 angstrom
                   Q00  =   0.101184

H          x =  2.657109  y = -2.859658  z = -1.269387 angstrom
           Maximum rank =  0   Radius =  0.325 angstrom
                   Q00  =   0.100644

H          x =  3.571109  y = -1.598658  z =  0.762613 angstrom
           Maximum rank =  0   Radius =  0.325 angstrom
                   Q00  =   0.216999

H          x =  2.649109  y =  0.443342  z =  2.504613 angstrom
           Maximum rank =  0   Radius =  0.325 angstrom
                   Q00  =   0.072808

H          x = -0.686260  y = -2.868418  z = -1.784773 angstrom
           Maximum rank =  0   Radius =  0.325 angstrom
                   Q00  =   0.098258

C          x = -3.535891  y =  2.060342  z = -1.022387 angstrom
           Maximum rank =  0   Radius =  0.650 angstrom
                   Q00  =  -0.245800

C          x = -4.817891  y =  2.857342  z = -1.172387 angstrom
           Maximum rank =  0   Radius =  0.650 angstrom
                   Q00  =  -0.225259

H          x = -3.420891  y =  1.364342  z = -1.852387 angstrom
           Maximum rank =  0   Radius =  0.325 angstrom
                   Q00  =   0.076196

H          x = -2.683891  y =  2.740342  z = -1.017387 angstrom
           Maximum rank =  0   Radius =  0.325 angstrom
                   Q00  =   0.081189

H          x = -3.526891  y =  1.514342  z = -0.080387 angstrom
           Maximum rank =  0   Radius =  0.325 angstrom
                   Q00  =   0.076476

H          x = -4.927891  y =  3.481342  z = -0.287387 angstrom
           Maximum rank =  0   Radius =  0.325 angstrom
                   Q00  =   0.078424

H          x = -5.686986  y =  2.188532  z = -1.258224 angstrom
           Maximum rank =  0   Radius =  0.325 angstrom
                   Q00  =   0.079081

H          x = -4.761849  y =  3.520501  z = -2.048217 angstrom
           Maximum rank =  0   Radius =  0.325 angstrom
                   Q00  =   0.079614

Total multipoles referred to origin at
           x =   0.000000,  y =    0.000000,  z =    0.000000 angstrom
                   Q00  =  -0.000000

Finished at 17:59:26 on 26 Apr 2020

  DMA results are available in the Python driver through the
	  variable('DMA DISTRIBUTED MULTIPOLES')
  and
	  variable('DMA TOTAL MULTIPOLES')
  commands.

    Psi4 stopped on: Sunday, 26 April 2020 05:59PM
    Psi4 wall time for execution: 0:03:42.80

*** Psi4 exiting successfully. Buy a developer a beer!
