                               Psi4 1.3.2 release

  ==> Input File <==

--------------------------------------------------------------------------
import numpy as np
set {scf_type pk
basis cc-pvdz
d_convergence 10
gdma_switch   0
gdma_limit    0
gdma_origin   [ 0.0,  0.0,  0.0 ]
}
molecule test {
    units Angstrom
    0 1
    --
    0 1
    C                0.108590599915842    -1.981870601786732    -0.079126922962389
    C                0.636590599915842    -1.295870601786733    -1.346126922962389
    C                1.013590599915842    -1.443870601786733     0.970873077037611
    H                0.230590599915842    -3.063870601786733    -0.162126922962389
    H               -0.934409400084158    -1.726870601786733     0.112873077037611
    H                0.443590599915842    -1.933870601786732    -2.209126922962389
    H                0.171590599915842    -0.327870601786733    -1.504126922962389
    H                1.016590599915842    -2.081870601786733     1.855873077037611
    H                0.702590599915842    -0.437870601786733     1.252873077037611
    H                1.715920599915842    -1.186892601786733    -1.163996922962389
    H                2.001520599915843    -1.400010601786733     0.489133077037611
    C               -0.847409400084158     1.566129398213267    -0.024126922962389
    C               -0.924409400084158     3.017129398213267     0.476873077037611
    H               -1.443409400084158     1.436129398213267    -0.927126922962389
    H                0.197590599915842     1.360129398213267    -0.252126922962389
    H               -1.194409400084157     0.882129398213267     0.749873077037611
    H               -0.696409400084158     3.693129398213267    -0.348126922962389
    H               -0.150409400084158     3.156129398213267     1.225873077037611
    H               -1.905589400084157     3.278825398213267     0.899723077037611

}
e, wfn = energy('scf', return_wfn=True)
gdma(wfn)
dmavals = variable('DMA DISTRIBUTED MULTIPOLES')
charges = np.array(dmavals)
print(charges)
np.save('SSI-020PRO-181ILE-1-dimer.npy', np.array(charges))--------------------------------------------------------------------------

*** tstart() called on ds3
*** at Mon Apr 27 23:23:14 2020

   => Loading Basis Set <=

    Name: CC-PVDZ
    Role: ORBITAL
    Keyword: BASIS
    atoms 1-3, 12-13  entry C          line   138 file /theoryfs2/ds/metcalf/miniconda2/envs/tf2gpu/share/psi4/basis/cc-pvdz.gbs
    atoms 4-11, 14-19 entry H          line    22 file /theoryfs2/ds/metcalf/miniconda2/envs/tf2gpu/share/psi4/basis/cc-pvdz.gbs

         ---------------------------------------------------------
                                   SCF
               by Justin Turney, Rob Parrish, Andy Simmonett
                          and Daniel G. A. Smith
                              RHF Reference
                        1 Threads,    500 MiB Core
         ---------------------------------------------------------

  ==> Geometry <==

    Molecular point group: c1
    Full point group: C1

    Geometry (in Angstrom), charge = 0, multiplicity = 1:

       Center              X                  Y                   Z               Mass
    ------------   -----------------  -----------------  -----------------  -----------------
         C            0.108590599916    -1.981870601787    -0.079126922962    12.000000000000
         C            0.636590599916    -1.295870601787    -1.346126922962    12.000000000000
         C            1.013590599916    -1.443870601787     0.970873077038    12.000000000000
         H            0.230590599916    -3.063870601787    -0.162126922962     1.007825032230
         H           -0.934409400084    -1.726870601787     0.112873077038     1.007825032230
         H            0.443590599916    -1.933870601787    -2.209126922962     1.007825032230
         H            0.171590599916    -0.327870601787    -1.504126922962     1.007825032230
         H            1.016590599916    -2.081870601787     1.855873077038     1.007825032230
         H            0.702590599916    -0.437870601787     1.252873077038     1.007825032230
         H            1.715920599916    -1.186892601787    -1.163996922962     1.007825032230
         H            2.001520599916    -1.400010601787     0.489133077038     1.007825032230
         C           -0.847409400084     1.566129398213    -0.024126922962    12.000000000000
         C           -0.924409400084     3.017129398213     0.476873077038    12.000000000000
         H           -1.443409400084     1.436129398213    -0.927126922962     1.007825032230
         H            0.197590599916     1.360129398213    -0.252126922962     1.007825032230
         H           -1.194409400084     0.882129398213     0.749873077038     1.007825032230
         H           -0.696409400084     3.693129398213    -0.348126922962     1.007825032230
         H           -0.150409400084     3.156129398213     1.225873077038     1.007825032230
         H           -1.905589400084     3.278825398213     0.899723077038     1.007825032230

  Running in c1 symmetry.

  Rotational constants: A =      0.24437  B =      0.04812  C =      0.04382 [cm^-1]
  Rotational constants: A =   7326.01565  B =   1442.58438  C =   1313.79887 [MHz]
  Nuclear repulsion =  185.856495810483523

  Charge       = 0
  Multiplicity = 1
  Electrons    = 44
  Nalpha       = 22
  Nbeta        = 22

  ==> Algorithm <==

  SCF Algorithm Type is PK.
  DIIS enabled.
  MOM disabled.
  Fractional occupation disabled.
  Guess Type is SAD.
  Energy threshold   = 1.00e-06
  Density threshold  = 1.00e-10
  Integral threshold = 0.00e+00

  ==> Primary Basis <==

  Basis Set: CC-PVDZ
    Blend: CC-PVDZ
    Number of shells: 72
    Number of basis function: 140
    Number of Cartesian functions: 145
    Spherical Harmonics?: true
    Max angular momentum: 2

  ==> Pre-Iterations <==

   -------------------------------------------------------
    Irrep   Nso     Nmo     Nalpha   Nbeta   Ndocc  Nsocc
   -------------------------------------------------------
     A        140     140       0       0       0       0
   -------------------------------------------------------
    Total     140     140      22      22      22       0
   -------------------------------------------------------

  ==> Integral Setup <==

  Using integral reordering PK algorithm.
  Sizing the integral batches needed.
  Building batch lookup table.
   Calculation information:
      Number of atoms:                  19
      Number of AO shells:              72
      Number of primitives:            180
      Number of atomic orbitals:       145
      Number of basis functions:       140

      Integral cutoff                 1.00e-12
      Number of threads:                 1

	Batch   1 pq = [       0,    9405] index = [             0,44231715] size =     44231715
	Batch   2 pq = [    9405,    9870] index = [      44231715,48713385] size =      4481670
  Task number: 5
  Buffer size: 11059200
  Buffer per thread: 2
  We computed 3071984 shell quartets total.
  Whereas there are 3454506 unique shell quartets.

  ==> DiskJK: Disk-Based J/K Matrices <==

    J tasked:                  Yes
    K tasked:                  Yes
    wK tasked:                  No
    Memory [MiB]:              375
    Schwarz Cutoff:          1E-12

    OpenMP threads:              1

  Minimum eigenvalue in the overlap matrix is 4.8883751103E-03.
  Using Symmetric Orthogonalization.

  SCF Guess: Superposition of Atomic Densities via on-the-fly atomic UHF.

  ==> Iterations <==

                        Total Energy        Delta E     RMS |[F,P]|

   @RHF iter SAD:  -196.59424578790777   -1.96594e+02   0.00000e+00
   @RHF iter   1:  -197.28414318120105   -6.89897e-01   3.86907e-03 DIIS
   @RHF iter   2:  -197.44741661909976   -1.63273e-01   1.68154e-03 DIIS
   @RHF iter   3:  -197.47711476496389   -2.96981e-02   3.33462e-04 DIIS
   @RHF iter   4:  -197.47938360200055   -2.26884e-03   5.31397e-05 DIIS
   @RHF iter   5:  -197.47942878253059   -4.51805e-05   1.63306e-05 DIIS
   @RHF iter   6:  -197.47943294840485   -4.16587e-06   2.55357e-06 DIIS
   @RHF iter   7:  -197.47943307349655   -1.25092e-07   4.74942e-07 DIIS
   @RHF iter   8:  -197.47943307784189   -4.34534e-09   1.03201e-07 DIIS
   @RHF iter   9:  -197.47943307804877   -2.06882e-10   3.22593e-08 DIIS
   @RHF iter  10:  -197.47943307807037   -2.16005e-11   7.47859e-09 DIIS
   @RHF iter  11:  -197.47943307807142   -1.05160e-12   1.54106e-09 DIIS
   @RHF iter  12:  -197.47943307807165   -2.27374e-13   3.41652e-10 DIIS
   @RHF iter  13:  -197.47943307807151    1.42109e-13   6.52286e-11 DIIS
  Energy and wave function converged.

  ==> Post-Iterations <==

    Orbital Energies [Eh]
    ---------------------

    Doubly Occupied:

       1A    -11.219592     2A    -11.218992     3A    -11.213013
       4A    -11.209076     5A    -11.208149     6A     -1.069084
       7A     -1.019419     8A     -0.911879     9A     -0.841584
      10A     -0.797320    11A     -0.638840    12A     -0.611528
      13A     -0.601237    14A     -0.599641    15A     -0.541543
      16A     -0.512376    17A     -0.499855    18A     -0.492237
      19A     -0.487647    20A     -0.484968    21A     -0.462735
      22A     -0.451876

    Virtual:

      23A      0.178771    24A      0.197013    25A      0.218285
      26A      0.227665    27A      0.232242    28A      0.250444
      29A      0.255908    30A      0.274205    31A      0.281627
      32A      0.292410    33A      0.303129    34A      0.321504
      35A      0.332568    36A      0.340166    37A      0.385368
      38A      0.401273    39A      0.434595    40A      0.571608
      41A      0.594827    42A      0.597423    43A      0.599226
      44A      0.610158    45A      0.632279    46A      0.662585
      47A      0.696519    48A      0.734032    49A      0.750560
      50A      0.798923    51A      0.824078    52A      0.845908
      53A      0.861638    54A      0.876104    55A      0.888378
      56A      0.892028    57A      0.894546    58A      0.902633
      59A      0.910180    60A      0.916423    61A      0.925876
      62A      0.937863    63A      0.943970    64A      0.956079
      65A      0.965717    66A      0.975239    67A      0.991123
      68A      1.035220    69A      1.095546    70A      1.129619
      71A      1.146941    72A      1.179929    73A      1.226363
      74A      1.252192    75A      1.405751    76A      1.440285
      77A      1.467317    78A      1.487403    79A      1.497241
      80A      1.598528    81A      1.629209    82A      1.632984
      83A      1.640646    84A      1.680866    85A      1.691744
      86A      1.729938    87A      1.750460    88A      1.805862
      89A      1.855854    90A      1.866670    91A      1.883226
      92A      1.885709    93A      1.908651    94A      1.923383
      95A      1.930723    96A      1.936916    97A      1.944788
      98A      1.949006    99A      1.956792   100A      1.963371
     101A      1.977475   102A      2.001101   103A      2.015578
     104A      2.031366   105A      2.051502   106A      2.095309
     107A      2.111807   108A      2.126605   109A      2.134786
     110A      2.174148   111A      2.187976   112A      2.249335
     113A      2.286727   114A      2.317676   115A      2.348205
     116A      2.360068   117A      2.440969   118A      2.448411
     119A      2.473071   120A      2.489914   121A      2.526924
     122A      2.557574   123A      2.576853   124A      2.583115
     125A      2.649080   126A      2.700462   127A      2.752289
     128A      2.770837   129A      2.791997   130A      2.807821
     131A      2.815358   132A      2.840638   133A      2.849204
     134A      2.858203   135A      2.886212   136A      2.945302
     137A      2.959909   138A      2.965223   139A      2.983459
     140A      3.056814

    Final Occupation by Irrep:
              A
    DOCC [    22 ]

  @RHF Final Energy:  -197.47943307807151

   => Energetics <=

    Nuclear Repulsion Energy =            185.8564958104835227
    One-Electron Energy =                -632.4866745836578730
    Two-Electron Energy =                 249.1507456951028416
    Total Energy =                       -197.4794330780715086

Computation Completed

Properties will be evaluated at   0.000000,   0.000000,   0.000000 [a0]

Properties computed using the SCF density matrix

  Nuclear Dipole Moment: [e a0]
     X:     0.1456      Y:     1.5443      Z:     0.0182

  Electronic Dipole Moment: [e a0]
     X:    -0.1873      Y:    -1.5133      Z:    -0.0185

  Dipole Moment: [e a0]
     X:    -0.0416      Y:     0.0310      Z:    -0.0003     Total:     0.0519

  Dipole Moment: [D]
     X:    -0.1058      Y:     0.0789      Z:    -0.0007     Total:     0.1320

*** tstop() called on ds3 at Mon Apr 27 23:23:40 2020
Module time:
	user time   =      18.36 seconds =       0.31 minutes
	system time =       7.87 seconds =       0.13 minutes
	total time  =         26 seconds =       0.43 minutes
Total time:
	user time   =      18.36 seconds =       0.31 minutes
	system time =       7.87 seconds =       0.13 minutes
	total time  =         26 seconds =       0.43 minutes
                                     G D M A

                                 by Anthony Stone

                           version 2.2.06, 22 June 2011

               Distributed Multipoles from Gaussian wavefunctions

Starting at 23:23:40 on 27 Apr 2020

Using SCF density matrix from file ./SSI/SSI-020PRO-181ILE-1-dimer.test.2585.fchk

                         Distributed Multipole Analysis

Standard DMA

Positions and radii in angstrom
Multipole moments in atomic units, ea_0^k for rank k

C          x =  0.108591  y = -1.981871  z = -0.079127 angstrom
           Maximum rank =  0   Radius =  0.650 angstrom
                   Q00  =  -0.086827

C          x =  0.636591  y = -1.295871  z = -1.346127 angstrom
           Maximum rank =  0   Radius =  0.650 angstrom
                   Q00  =  -0.249724

C          x =  1.013591  y = -1.443871  z =  0.970873 angstrom
           Maximum rank =  0   Radius =  0.650 angstrom
                   Q00  =  -0.195327

H          x =  0.230591  y = -3.063871  z = -0.162127 angstrom
           Maximum rank =  0   Radius =  0.325 angstrom
                   Q00  =   0.049883

H          x = -0.934409  y = -1.726871  z =  0.112873 angstrom
           Maximum rank =  0   Radius =  0.325 angstrom
                   Q00  =   0.055760

H          x =  0.443591  y = -1.933871  z = -2.209127 angstrom
           Maximum rank =  0   Radius =  0.325 angstrom
                   Q00  =   0.076826

H          x =  0.171591  y = -0.327871  z = -1.504127 angstrom
           Maximum rank =  0   Radius =  0.325 angstrom
                   Q00  =   0.090026

H          x =  1.016591  y = -2.081871  z =  1.855873 angstrom
           Maximum rank =  0   Radius =  0.325 angstrom
                   Q00  =   0.073768

H          x =  0.702591  y = -0.437871  z =  1.252873 angstrom
           Maximum rank =  0   Radius =  0.325 angstrom
                   Q00  =   0.076872

H          x =  1.715921  y = -1.186893  z = -1.163997 angstrom
           Maximum rank =  0   Radius =  0.325 angstrom
                   Q00  =   0.058884

H          x =  2.001521  y = -1.400011  z =  0.489133 angstrom
           Maximum rank =  0   Radius =  0.325 angstrom
                   Q00  =   0.046768

C          x = -0.847409  y =  1.566129  z = -0.024127 angstrom
           Maximum rank =  0   Radius =  0.650 angstrom
                   Q00  =  -0.252210

C          x = -0.924409  y =  3.017129  z =  0.476873 angstrom
           Maximum rank =  0   Radius =  0.650 angstrom
                   Q00  =  -0.224536

H          x = -1.443409  y =  1.436129  z = -0.927127 angstrom
           Maximum rank =  0   Radius =  0.325 angstrom
                   Q00  =   0.079362

H          x =  0.197591  y =  1.360129  z = -0.252127 angstrom
           Maximum rank =  0   Radius =  0.325 angstrom
                   Q00  =   0.078378

H          x = -1.194409  y =  0.882129  z =  0.749873 angstrom
           Maximum rank =  0   Radius =  0.325 angstrom
                   Q00  =   0.082067

H          x = -0.696409  y =  3.693129  z = -0.348127 angstrom
           Maximum rank =  0   Radius =  0.325 angstrom
                   Q00  =   0.079027

H          x = -0.150409  y =  3.156129  z =  1.225873 angstrom
           Maximum rank =  0   Radius =  0.325 angstrom
                   Q00  =   0.079018

H          x = -1.905589  y =  3.278825  z =  0.899723 angstrom
           Maximum rank =  0   Radius =  0.325 angstrom
                   Q00  =   0.081984

Total multipoles referred to origin at
           x =   0.000000,  y =    0.000000,  z =    0.000000 angstrom
                   Q00  =  -0.000000

Finished at 23:23:40 on 27 Apr 2020

  DMA results are available in the Python driver through the
	  variable('DMA DISTRIBUTED MULTIPOLES')
  and
	  variable('DMA TOTAL MULTIPOLES')
  commands.

    Psi4 stopped on: Monday, 27 April 2020 11:23PM
    Psi4 wall time for execution: 0:00:25.69

*** Psi4 exiting successfully. Buy a developer a beer!
