                               Psi4 1.3.2 release

  ==> Input File <==

--------------------------------------------------------------------------
import numpy as np
set {scf_type pk
basis cc-pvdz
d_convergence 10
gdma_switch   0
gdma_limit    0
gdma_origin   [ 0.0,  0.0,  0.0 ]
}
molecule test {
    units Angstrom
    0 1
    --
    0 1
    C                0.383439454117195     1.656357093987515     2.922502402957148
    N                0.086439454117195     0.322357093987515     2.322502402957148
    H               -0.083560545882805     0.359357093987515     1.313502402957148
    H                0.853439454117195    -0.321642906012485     2.477502402957148
    H               -0.738560545882805    -0.090642906012485     2.740502402957148
    H                1.367439454117195     2.003357093987515     2.594502402957148
    H                0.415439454117195     1.565357093987515     4.013502402957148
    H               -0.368530545882805     2.412647093987515     2.653122402957148
    C               -0.794560545882805    -1.107642906012485    -2.538497597042852
    C               -0.084560545882805    -0.473642906012485    -1.355497597042852
    O               -0.741560545882805    -0.272642906012485    -0.311497597042852
    O                1.131439454117195    -0.197642906012485    -1.454497597042852
    H               -1.847560545882805    -0.816642906012485    -2.538497597042852
    H               -0.743560545882805    -2.191642906012484    -2.427497597042851
    H               -0.341230545882805    -0.829172906012485    -3.501277597042852

}
e, wfn = energy('scf', return_wfn=True)
gdma(wfn)
dmavals = variable('DMA DISTRIBUTED MULTIPOLES')
charges = np.array(dmavals)
print(charges)
np.save('SSI-165LYS-169ASP-1-dimer.npy', np.array(charges))--------------------------------------------------------------------------

*** tstart() called on ds3
*** at Sun Apr 26 18:47:19 2020

   => Loading Basis Set <=

    Name: CC-PVDZ
    Role: ORBITAL
    Keyword: BASIS
    atoms 1, 9-10    entry C          line   138 file /theoryfs2/ds/metcalf/miniconda2/envs/tf2gpu/share/psi4/basis/cc-pvdz.gbs
    atoms 2          entry N          line   168 file /theoryfs2/ds/metcalf/miniconda2/envs/tf2gpu/share/psi4/basis/cc-pvdz.gbs
    atoms 3-8, 13-15 entry H          line    22 file /theoryfs2/ds/metcalf/miniconda2/envs/tf2gpu/share/psi4/basis/cc-pvdz.gbs
    atoms 11-12      entry O          line   198 file /theoryfs2/ds/metcalf/miniconda2/envs/tf2gpu/share/psi4/basis/cc-pvdz.gbs

         ---------------------------------------------------------
                                   SCF
               by Justin Turney, Rob Parrish, Andy Simmonett
                          and Daniel G. A. Smith
                              RHF Reference
                        1 Threads,    500 MiB Core
         ---------------------------------------------------------

  ==> Geometry <==

    Molecular point group: c1
    Full point group: C1

    Geometry (in Angstrom), charge = 0, multiplicity = 1:

       Center              X                  Y                   Z               Mass
    ------------   -----------------  -----------------  -----------------  -----------------
         C            0.383439454117     1.656357093988     2.922502402957    12.000000000000
         N            0.086439454117     0.322357093988     2.322502402957    14.003074004430
         H           -0.083560545883     0.359357093988     1.313502402957     1.007825032230
         H            0.853439454117    -0.321642906012     2.477502402957     1.007825032230
         H           -0.738560545883    -0.090642906012     2.740502402957     1.007825032230
         H            1.367439454117     2.003357093988     2.594502402957     1.007825032230
         H            0.415439454117     1.565357093988     4.013502402957     1.007825032230
         H           -0.368530545883     2.412647093988     2.653122402957     1.007825032230
         C           -0.794560545883    -1.107642906012    -2.538497597043    12.000000000000
         C           -0.084560545883    -0.473642906012    -1.355497597043    12.000000000000
         O           -0.741560545883    -0.272642906012    -0.311497597043    15.994914619570
         O            1.131439454117    -0.197642906012    -1.454497597043    15.994914619570
         H           -1.847560545883    -0.816642906012    -2.538497597043     1.007825032230
         H           -0.743560545883    -2.191642906012    -2.427497597043     1.007825032230
         H           -0.341230545883    -0.829172906012    -3.501277597043     1.007825032230

  Running in c1 symmetry.

  Rotational constants: A =      0.28634  B =      0.03704  C =      0.03440 [cm^-1]
  Rotational constants: A =   8584.25612  B =   1110.48290  C =   1031.22236 [MHz]
  Nuclear repulsion =  234.350608423353179

  Charge       = 0
  Multiplicity = 1
  Electrons    = 50
  Nalpha       = 25
  Nbeta        = 25

  ==> Algorithm <==

  SCF Algorithm Type is PK.
  DIIS enabled.
  MOM disabled.
  Fractional occupation disabled.
  Guess Type is SAD.
  Energy threshold   = 1.00e-06
  Density threshold  = 1.00e-10
  Integral threshold = 0.00e+00

  ==> Primary Basis <==

  Basis Set: CC-PVDZ
    Blend: CC-PVDZ
    Number of shells: 63
    Number of basis function: 129
    Number of Cartesian functions: 135
    Spherical Harmonics?: true
    Max angular momentum: 2

  ==> Pre-Iterations <==

   -------------------------------------------------------
    Irrep   Nso     Nmo     Nalpha   Nbeta   Ndocc  Nsocc
   -------------------------------------------------------
     A        129     129       0       0       0       0
   -------------------------------------------------------
    Total     129     129      25      25      25       0
   -------------------------------------------------------

  ==> Integral Setup <==

  Using integral reordering PK algorithm.
  Sizing the integral batches needed.
  Building batch lookup table.
   Calculation information:
      Number of atoms:                  15
      Number of AO shells:              63
      Number of primitives:            177
      Number of atomic orbitals:       135
      Number of basis functions:       129

      Integral cutoff                 1.00e-12
      Number of threads:                 1

	Batch   1 pq = [       0,    8385] index = [             0,35158305] size =     35158305
  Task number: 4
  Buffer size: 11059200
  Buffer per thread: 2
  We computed 1584422 shell quartets total.
  Whereas there are 2033136 unique shell quartets.

  ==> DiskJK: Disk-Based J/K Matrices <==

    J tasked:                  Yes
    K tasked:                  Yes
    wK tasked:                  No
    Memory [MiB]:              375
    Schwarz Cutoff:          1E-12

    OpenMP threads:              1

  Minimum eigenvalue in the overlap matrix is 5.2006328130E-03.
  Using Symmetric Orthogonalization.

  SCF Guess: Superposition of Atomic Densities via on-the-fly atomic UHF.

  ==> Iterations <==

                        Total Energy        Delta E     RMS |[F,P]|

   @RHF iter SAD:  -321.70732998391435   -3.21707e+02   0.00000e+00
   @RHF iter   1:  -322.78751239969375   -1.08018e+00   5.20341e-03 DIIS
   @RHF iter   2:  -322.95641963690088   -1.68907e-01   2.87216e-03 DIIS
   @RHF iter   3:  -323.00478680625815   -4.83672e-02   4.75657e-04 DIIS
   @RHF iter   4:  -323.00728022119108   -2.49341e-03   1.65982e-04 DIIS
   @RHF iter   5:  -323.00757742182338   -2.97201e-04   3.56043e-05 DIIS
   @RHF iter   6:  -323.00759320877222   -1.57869e-05   1.87297e-05 DIIS
   @RHF iter   7:  -323.00759653195570   -3.32318e-06   4.16671e-06 DIIS
   @RHF iter   8:  -323.00759707377739   -5.41822e-07   1.84264e-06 DIIS
   @RHF iter   9:  -323.00759717528103   -1.01504e-07   4.67163e-07 DIIS
   @RHF iter  10:  -323.00759718120372   -5.92269e-09   1.38260e-07 DIIS
   @RHF iter  11:  -323.00759718148925   -2.85524e-10   3.79740e-08 DIIS
   @RHF iter  12:  -323.00759718151392   -2.46700e-11   9.95053e-09 DIIS
   @RHF iter  13:  -323.00759718151670   -2.78533e-12   3.14042e-09 DIIS
   @RHF iter  14:  -323.00759718151568    1.02318e-12   1.09357e-09 DIIS
   @RHF iter  15:  -323.00759718151591   -2.27374e-13   3.14239e-10 DIIS
   @RHF iter  16:  -323.00759718151636   -4.54747e-13   1.40700e-10 DIIS
   @RHF iter  17:  -323.00759718151539    9.66338e-13   4.01512e-11 DIIS
  Energy and wave function converged.

  ==> Post-Iterations <==

    Orbital Energies [Eh]
    ---------------------

    Doubly Occupied:

       1A    -20.424272     2A    -20.398914     3A    -15.733480
       4A    -11.354438     5A    -11.259211     6A    -11.165321
       7A     -1.356340     8A     -1.302210     9A     -1.185275
      10A     -1.022887    11A     -0.915919    12A     -0.816361
      13A     -0.806804    14A     -0.713476    15A     -0.643576
      16A     -0.628403    17A     -0.622378    18A     -0.549413
      19A     -0.537441    20A     -0.533507    21A     -0.473402
      22A     -0.445070    23A     -0.339638    24A     -0.314945
      25A     -0.314138

    Virtual:

      26A      0.099351    27A      0.153436    28A      0.163730
      29A      0.195008    30A      0.213515    31A      0.251510
      32A      0.268382    33A      0.284665    34A      0.315042
      35A      0.341039    36A      0.356911    37A      0.458506
      38A      0.507747    39A      0.509231    40A      0.557822
      41A      0.568775    42A      0.611507    43A      0.662907
      44A      0.694940    45A      0.710464    46A      0.761244
      47A      0.785007    48A      0.788539    49A      0.797934
      50A      0.810205    51A      0.828942    52A      0.858209
      53A      0.895223    54A      0.917303    55A      0.922014
      56A      0.927047    57A      0.942807    58A      0.963507
      59A      1.006546    60A      1.026276    61A      1.065924
      62A      1.067840    63A      1.099621    64A      1.188327
      65A      1.218892    66A      1.224856    67A      1.303097
      68A      1.372929    69A      1.409158    70A      1.428599
      71A      1.448847    72A      1.454947    73A      1.499287
      74A      1.523777    75A      1.593104    76A      1.598162
      77A      1.619370    78A      1.668560    79A      1.719084
      80A      1.732725    81A      1.749497    82A      1.802627
      83A      1.821026    84A      1.841851    85A      1.862774
      86A      1.899329    87A      1.948775    88A      1.954741
      89A      1.976386    90A      2.026750    91A      2.074544
      92A      2.082757    93A      2.090526    94A      2.099274
      95A      2.104042    96A      2.119231    97A      2.174733
      98A      2.235159    99A      2.277963   100A      2.302401
     101A      2.319023   102A      2.391907   103A      2.402120
     104A      2.444182   105A      2.547569   106A      2.566540
     107A      2.581702   108A      2.612362   109A      2.635746
     110A      2.647495   111A      2.672652   112A      2.801706
     113A      2.852598   114A      2.864292   115A      2.866397
     116A      2.883932   117A      2.952465   118A      3.088871
     119A      3.134076   120A      3.146838   121A      3.212417
     122A      3.238642   123A      3.317084   124A      3.486259
     125A      3.636914   126A      3.687112   127A      3.921412
     128A      3.937015   129A      4.067186

    Final Occupation by Irrep:
              A
    DOCC [    25 ]

  @RHF Final Energy:  -323.00759718151539

   => Energetics <=

    Nuclear Repulsion Energy =            234.3506084233531794
    One-Electron Energy =                -907.0027682522260193
    Two-Electron Energy =                 349.6445626473574748
    Total Energy =                       -323.0075971815153935

Computation Completed

Properties will be evaluated at   0.000000,   0.000000,   0.000000 [a0]

Properties computed using the SCF density matrix

  Nuclear Dipole Moment: [e a0]
     X:    -1.3921      Y:     1.9570      Z:     6.8521

  Electronic Dipole Moment: [e a0]
     X:     1.0923      Y:    -1.0337      Z:    -2.0037

  Dipole Moment: [e a0]
     X:    -0.2998      Y:     0.9233      Z:     4.8484     Total:     4.9446

  Dipole Moment: [D]
     X:    -0.7619      Y:     2.3468      Z:    12.3234     Total:    12.5680

*** tstop() called on ds3 at Sun Apr 26 18:47:37 2020
Module time:
	user time   =      12.33 seconds =       0.21 minutes
	system time =       5.97 seconds =       0.10 minutes
	total time  =         18 seconds =       0.30 minutes
Total time:
	user time   =      12.33 seconds =       0.21 minutes
	system time =       5.97 seconds =       0.10 minutes
	total time  =         18 seconds =       0.30 minutes
                                     G D M A

                                 by Anthony Stone

                           version 2.2.06, 22 June 2011

               Distributed Multipoles from Gaussian wavefunctions

Starting at 18:47:37 on 26 Apr 2020

Using SCF density matrix from file ./SSI/SSI-165LYS-169ASP-1-dimer.test.15981.fchk

                         Distributed Multipole Analysis

Standard DMA

Positions and radii in angstrom
Multipole moments in atomic units, ea_0^k for rank k

C          x =  0.383439  y =  1.656357  z =  2.922502 angstrom
           Maximum rank =  0   Radius =  0.650 angstrom
                   Q00  =  -0.142181

N          x =  0.086439  y =  0.322357  z =  2.322502 angstrom
           Maximum rank =  0   Radius =  0.650 angstrom
                   Q00  =  -0.104248

H          x = -0.083561  y =  0.359357  z =  1.313502 angstrom
           Maximum rank =  0   Radius =  0.325 angstrom
                   Q00  =   0.283164

H          x =  0.853439  y = -0.321643  z =  2.477502 angstrom
           Maximum rank =  0   Radius =  0.325 angstrom
                   Q00  =   0.237583

H          x = -0.738561  y = -0.090643  z =  2.740502 angstrom
           Maximum rank =  0   Radius =  0.325 angstrom
                   Q00  =   0.230864

H          x =  1.367439  y =  2.003357  z =  2.594502 angstrom
           Maximum rank =  0   Radius =  0.325 angstrom
                   Q00  =   0.153173

H          x =  0.415439  y =  1.565357  z =  4.013502 angstrom
           Maximum rank =  0   Radius =  0.325 angstrom
                   Q00  =   0.122282

H          x = -0.368531  y =  2.412647  z =  2.653122 angstrom
           Maximum rank =  0   Radius =  0.325 angstrom
                   Q00  =   0.154490

C          x = -0.794561  y = -1.107643  z = -2.538498 angstrom
           Maximum rank =  0   Radius =  0.650 angstrom
                   Q00  =  -0.266621

C          x = -0.084561  y = -0.473643  z = -1.355498 angstrom
           Maximum rank =  0   Radius =  0.650 angstrom
                   Q00  =   0.910930

O          x = -0.741561  y = -0.272643  z = -0.311498 angstrom
           Maximum rank =  0   Radius =  0.650 angstrom
                   Q00  =  -0.946976

O          x =  1.131439  y = -0.197643  z = -1.454498 angstrom
           Maximum rank =  0   Radius =  0.650 angstrom
                   Q00  =  -0.893284

H          x = -1.847561  y = -0.816643  z = -2.538498 angstrom
           Maximum rank =  0   Radius =  0.325 angstrom
                   Q00  =   0.074366

H          x = -0.743561  y = -2.191643  z = -2.427498 angstrom
           Maximum rank =  0   Radius =  0.325 angstrom
                   Q00  =   0.100057

H          x = -0.341231  y = -0.829173  z = -3.501278 angstrom
           Maximum rank =  0   Radius =  0.325 angstrom
                   Q00  =   0.086402

Total multipoles referred to origin at
           x =   0.000000,  y =    0.000000,  z =    0.000000 angstrom
                   Q00  =  -0.000000

Finished at 18:47:37 on 26 Apr 2020

  DMA results are available in the Python driver through the
	  variable('DMA DISTRIBUTED MULTIPOLES')
  and
	  variable('DMA TOTAL MULTIPOLES')
  commands.

    Psi4 stopped on: Sunday, 26 April 2020 06:47PM
    Psi4 wall time for execution: 0:00:18.14

*** Psi4 exiting successfully. Buy a developer a beer!
