                               Psi4 1.3.2 release

  ==> Input File <==

--------------------------------------------------------------------------
import numpy as np
set {scf_type pk
basis cc-pvdz
d_convergence 10
gdma_switch   0
gdma_limit    0
gdma_origin   [ 0.0,  0.0,  0.0 ]
}
molecule test {
    units Angstrom
    1 1
    --
    1 1
    C               -0.943780863838379    -1.450951428359361    -1.734690119542762
    C                1.357219136161621    -1.738951428359362    -0.843690119542763
    N                1.205219136161621    -0.756951428359361     0.027309880457237
    N                0.378219136161621    -2.092951428359362    -1.668690119542762
    N                2.504219136161621    -2.386951428359362    -0.877690119542763
    H                0.367219136161621    -0.184951428359361    -0.009690119542763
    H                1.964219136161621    -0.502951428359361     0.637309880457237
    H                0.567219136161621    -2.839951428359361    -2.321690119542762
    H                2.651219136161621    -3.124951428359362    -1.547690119542762
    H                3.257219136161621    -2.126951428359362    -0.259690119542763
    H               -0.883780863838379    -0.564951428359362    -2.370690119542763
    H               -1.248780863838379    -1.147951428359362    -0.733690119542763
    H               -1.712780863838379    -2.129101428359361    -2.133140119542763
    C               -2.431780863838379     2.717048571640639     1.544309880457237
    C               -1.104780863838379     2.056048571640638     1.212309880457238
    O               -0.973780863838379     1.340048571640639     0.220309880457237
    N               -0.103780863838379     2.284048571640638     2.052309880457238
    H               -2.243780863838379     3.586048571640639     2.177309880457238
    H               -3.033780863838379     2.025048571640639     2.127309880457237
    H                0.813219136161621     1.933048571640639     1.818309880457238
    H               -0.230780863838379     2.920048571640639     2.826309880457238
    H               -2.978900863838379     3.066517571640638     0.656319880457237

}
e, wfn = energy('scf', return_wfn=True)
gdma(wfn)
dmavals = variable('DMA DISTRIBUTED MULTIPOLES')
charges = np.array(dmavals)
print(charges)
np.save('SSI-028ARG-031GLN-1-dimer.npy', np.array(charges))--------------------------------------------------------------------------

*** tstart() called on ds3
*** at Tue Apr 28 03:07:18 2020

   => Loading Basis Set <=

    Name: CC-PVDZ
    Role: ORBITAL
    Keyword: BASIS
    atoms 1-2, 14-15  entry C          line   138 file /theoryfs2/ds/metcalf/miniconda2/envs/tf2gpu/share/psi4/basis/cc-pvdz.gbs
    atoms 3-5, 17     entry N          line   168 file /theoryfs2/ds/metcalf/miniconda2/envs/tf2gpu/share/psi4/basis/cc-pvdz.gbs
    atoms 6-13, 18-22 entry H          line    22 file /theoryfs2/ds/metcalf/miniconda2/envs/tf2gpu/share/psi4/basis/cc-pvdz.gbs
    atoms 16          entry O          line   198 file /theoryfs2/ds/metcalf/miniconda2/envs/tf2gpu/share/psi4/basis/cc-pvdz.gbs

         ---------------------------------------------------------
                                   SCF
               by Justin Turney, Rob Parrish, Andy Simmonett
                          and Daniel G. A. Smith
                              RHF Reference
                        1 Threads,    500 MiB Core
         ---------------------------------------------------------

  ==> Geometry <==

    Molecular point group: c1
    Full point group: C1

    Geometry (in Angstrom), charge = 1, multiplicity = 1:

       Center              X                  Y                   Z               Mass
    ------------   -----------------  -----------------  -----------------  -----------------
         C           -0.943780863838    -1.450951428359    -1.734690119543    12.000000000000
         C            1.357219136162    -1.738951428359    -0.843690119543    12.000000000000
         N            1.205219136162    -0.756951428359     0.027309880457    14.003074004430
         N            0.378219136162    -2.092951428359    -1.668690119543    14.003074004430
         N            2.504219136162    -2.386951428359    -0.877690119543    14.003074004430
         H            0.367219136162    -0.184951428359    -0.009690119543     1.007825032230
         H            1.964219136162    -0.502951428359     0.637309880457     1.007825032230
         H            0.567219136162    -2.839951428359    -2.321690119543     1.007825032230
         H            2.651219136162    -3.124951428359    -1.547690119543     1.007825032230
         H            3.257219136162    -2.126951428359    -0.259690119543     1.007825032230
         H           -0.883780863838    -0.564951428359    -2.370690119543     1.007825032230
         H           -1.248780863838    -1.147951428359    -0.733690119543     1.007825032230
         H           -1.712780863838    -2.129101428359    -2.133140119543     1.007825032230
         C           -2.431780863838     2.717048571641     1.544309880457    12.000000000000
         C           -1.104780863838     2.056048571641     1.212309880457    12.000000000000
         O           -0.973780863838     1.340048571641     0.220309880457    15.994914619570
         N           -0.103780863838     2.284048571641     2.052309880457    14.003074004430
         H           -2.243780863838     3.586048571641     2.177309880457     1.007825032230
         H           -3.033780863838     2.025048571641     2.127309880457     1.007825032230
         H            0.813219136162     1.933048571641     1.818309880457     1.007825032230
         H           -0.230780863838     2.920048571641     2.826309880457     1.007825032230
         H           -2.978900863838     3.066517571641     0.656319880457     1.007825032230

  Running in c1 symmetry.

  Rotational constants: A =      0.09816  B =      0.01894  C =      0.01606 [cm^-1]
  Rotational constants: A =   2942.79644  B =    567.66994  C =    481.48736 [MHz]
  Nuclear repulsion =  458.795315416710764

  Charge       = 1
  Multiplicity = 1
  Electrons    = 72
  Nalpha       = 36
  Nbeta        = 36

  ==> Algorithm <==

  SCF Algorithm Type is PK.
  DIIS enabled.
  MOM disabled.
  Fractional occupation disabled.
  Guess Type is SAD.
  Energy threshold   = 1.00e-06
  Density threshold  = 1.00e-10
  Integral threshold = 0.00e+00

  ==> Primary Basis <==

  Basis Set: CC-PVDZ
    Blend: CC-PVDZ
    Number of shells: 93
    Number of basis function: 191
    Number of Cartesian functions: 200
    Spherical Harmonics?: true
    Max angular momentum: 2

  ==> Pre-Iterations <==

   -------------------------------------------------------
    Irrep   Nso     Nmo     Nalpha   Nbeta   Ndocc  Nsocc
   -------------------------------------------------------
     A        191     191       0       0       0       0
   -------------------------------------------------------
    Total     191     191      36      36      36       0
   -------------------------------------------------------

  ==> Integral Setup <==

  Using integral reordering PK algorithm.
  Sizing the integral batches needed.
  Building batch lookup table.
   Calculation information:
      Number of atoms:                  22
      Number of AO shells:              93
      Number of primitives:            263
      Number of atomic orbitals:       200
      Number of basis functions:       191

      Integral cutoff                 1.00e-12
      Number of threads:                 1

	Batch   1 pq = [       0,    9405] index = [             0,44231715] size =     44231715
	Batch   2 pq = [    9405,   13301] index = [      44231715,88464951] size =     44233236
	Batch   3 pq = [   13301,   16290] index = [      88464951,132690195] size =     44225244
	Batch   4 pq = [   16290,   18336] index = [     132690195,168113616] size =     35423421
  Task number: 16
  Buffer size: 11059200
  Buffer per thread: 2
  We computed 7353763 shell quartets total.
  Whereas there are 9555006 unique shell quartets.

  ==> DiskJK: Disk-Based J/K Matrices <==

    J tasked:                  Yes
    K tasked:                  Yes
    wK tasked:                  No
    Memory [MiB]:              375
    Schwarz Cutoff:          1E-12

    OpenMP threads:              1

  Minimum eigenvalue in the overlap matrix is 3.8689043686E-03.
  Using Symmetric Orthogonalization.

  SCF Guess: Superposition of Atomic Densities via on-the-fly atomic UHF.

  ==> Iterations <==

                        Total Energy        Delta E     RMS |[F,P]|

   @RHF iter SAD:  -450.71287823219848   -4.50713e+02   0.00000e+00
   @RHF iter   1:  -451.34690342949358   -6.34025e-01   3.63629e-03 DIIS
   @RHF iter   2:  -451.55336667280943   -2.06463e-01   1.79283e-03 DIIS
   @RHF iter   3:  -451.59820384733723   -4.48372e-02   4.43069e-04 DIIS
   @RHF iter   4:  -451.60215379613527   -3.94995e-03   1.64696e-04 DIIS
   @RHF iter   5:  -451.60270751673397   -5.53721e-04   2.80840e-05 DIIS
   @RHF iter   6:  -451.60273928321078   -3.17665e-05   1.15458e-05 DIIS
   @RHF iter   7:  -451.60274337484447   -4.09163e-06   3.45852e-06 DIIS
   @RHF iter   8:  -451.60274400789604   -6.33052e-07   1.11169e-06 DIIS
   @RHF iter   9:  -451.60274407221488   -6.43188e-08   4.03031e-07 DIIS
   @RHF iter  10:  -451.60274408034837   -8.13350e-09   1.60096e-07 DIIS
   @RHF iter  11:  -451.60274408150008   -1.15170e-09   3.38379e-08 DIIS
   @RHF iter  12:  -451.60274408155090   -5.08180e-11   1.12102e-08 DIIS
   @RHF iter  13:  -451.60274408155760   -6.70752e-12   3.35110e-09 DIIS
   @RHF iter  14:  -451.60274408155550    2.10321e-12   9.13287e-10 DIIS
   @RHF iter  15:  -451.60274408155345    2.04636e-12   3.37886e-10 DIIS
   @RHF iter  16:  -451.60274408155306    3.97904e-13   1.34937e-10 DIIS
   @RHF iter  17:  -451.60274408155351   -4.54747e-13   5.19355e-11 DIIS
  Energy and wave function converged.

  ==> Post-Iterations <==

    Orbital Energies [Eh]
    ---------------------

    Doubly Occupied:

       1A    -20.635669     2A    -15.768902     3A    -15.763736
       4A    -15.756870     5A    -15.708566     6A    -11.566760
       7A    -11.472986     8A    -11.412170     9A    -11.343889
      10A     -1.521780    11A     -1.497832    12A     -1.379201
      13A     -1.366164    14A     -1.337910    15A     -1.114296
      16A     -1.105456    17A     -1.013855    18A     -0.955147
      19A     -0.920258    20A     -0.914684    21A     -0.845712
      22A     -0.838510    23A     -0.833216    24A     -0.800431
      25A     -0.775108    26A     -0.768100    27A     -0.724393
      28A     -0.717348    29A     -0.699368    30A     -0.687473
      31A     -0.657204    32A     -0.636393    33A     -0.593301
      34A     -0.561792    35A     -0.539889    36A     -0.532181

    Virtual:

      37A      0.004673    38A      0.036388    39A      0.049433
      40A      0.052770    41A      0.072982    42A      0.082078
      43A      0.089645    44A      0.110036    45A      0.129625
      46A      0.141583    47A      0.148171    48A      0.161620
      49A      0.179620    50A      0.185957    51A      0.201109
      52A      0.229758    53A      0.275638    54A      0.302061
      55A      0.347719    56A      0.357841    57A      0.389555
      58A      0.447563    59A      0.464497    60A      0.492679
      61A      0.534805    62A      0.537344    63A      0.546098
      64A      0.550024    65A      0.553710    66A      0.562920
      67A      0.575203    68A      0.576265    69A      0.603648
      70A      0.615368    71A      0.628018    72A      0.657830
      73A      0.697380    74A      0.712770    75A      0.721692
      76A      0.738980    77A      0.751520    78A      0.765599
      79A      0.775988    80A      0.777518    81A      0.791359
      82A      0.807046    83A      0.821953    84A      0.825714
      85A      0.842217    86A      0.850449    87A      0.886748
      88A      0.893590    89A      0.901386    90A      0.921496
      91A      0.930953    92A      0.954685    93A      1.000107
      94A      1.018770    95A      1.048680    96A      1.079905
      97A      1.098020    98A      1.139814    99A      1.159530
     100A      1.176052   101A      1.199887   102A      1.202830
     103A      1.233507   104A      1.241395   105A      1.268625
     106A      1.273287   107A      1.307385   108A      1.321453
     109A      1.334868   110A      1.365127   111A      1.366437
     112A      1.438985   113A      1.509270   114A      1.521343
     115A      1.544659   116A      1.552911   117A      1.554144
     118A      1.566352   119A      1.583786   120A      1.604608
     121A      1.647562   122A      1.676826   123A      1.698504
     124A      1.728032   125A      1.740355   126A      1.742310
     127A      1.749499   128A      1.760596   129A      1.788207
     130A      1.791759   131A      1.796266   132A      1.801091
     133A      1.812856   134A      1.841206   135A      1.845827
     136A      1.872722   137A      1.882182   138A      1.901906
     139A      1.929444   140A      1.946480   141A      1.965496
     142A      2.039781   143A      2.050390   144A      2.054798
     145A      2.075144   146A      2.110903   147A      2.156873
     148A      2.162480   149A      2.169437   150A      2.195279
     151A      2.267350   152A      2.281943   153A      2.294876
     154A      2.325963   155A      2.339233   156A      2.342151
     157A      2.351008   158A      2.360832   159A      2.393333
     160A      2.437574   161A      2.447383   162A      2.461768
     163A      2.495400   164A      2.513045   165A      2.583669
     166A      2.621265   167A      2.634001   168A      2.636371
     169A      2.639112   170A      2.654912   171A      2.702961
     172A      2.749740   173A      2.752728   174A      2.782749
     175A      2.801148   176A      2.840051   177A      2.846993
     178A      2.852174   179A      2.906235   180A      2.959495
     181A      3.007036   182A      3.088249   183A      3.108141
     184A      3.163332   185A      3.176272   186A      3.358394
     187A      3.414910   188A      3.586601   189A      3.669058
     190A      3.738524   191A      3.822702

    Final Occupation by Irrep:
              A
    DOCC [    36 ]

  @RHF Final Energy:  -451.60274408155351

   => Energetics <=

    Nuclear Repulsion Energy =            458.7953154167107641
    One-Electron Energy =               -1513.2630249139654097
    Two-Electron Energy =                 602.8649654157011355
    Total Energy =                       -451.6027440815535101

Computation Completed

Properties will be evaluated at   0.000000,   0.000000,   0.000000 [a0]

Properties computed using the SCF density matrix

  Nuclear Dipole Moment: [e a0]
     X:    -2.5589      Y:     0.8671      Z:     0.8148

  Electronic Dipole Moment: [e a0]
     X:     4.5566      Y:    -2.4312      Z:    -0.8371

  Dipole Moment: [e a0]
     X:     1.9977      Y:    -1.5641      Z:    -0.0223     Total:     2.5372

  Dipole Moment: [D]
     X:     5.0777      Y:    -3.9755      Z:    -0.0566     Total:     6.4490

*** tstop() called on ds3 at Tue Apr 28 03:08:32 2020
Module time:
	user time   =      50.72 seconds =       0.85 minutes
	system time =      25.75 seconds =       0.43 minutes
	total time  =         74 seconds =       1.23 minutes
Total time:
	user time   =      50.72 seconds =       0.85 minutes
	system time =      25.75 seconds =       0.43 minutes
	total time  =         74 seconds =       1.23 minutes
                                     G D M A

                                 by Anthony Stone

                           version 2.2.06, 22 June 2011

               Distributed Multipoles from Gaussian wavefunctions

Starting at 3:8:32 on 28 Apr 2020

Using SCF density matrix from file ./SSI/SSI-028ARG-031GLN-1-dimer.test.16991.fchk

                         Distributed Multipole Analysis

Standard DMA

Positions and radii in angstrom
Multipole moments in atomic units, ea_0^k for rank k

C          x = -0.943781  y = -1.450951  z = -1.734690 angstrom
           Maximum rank =  0   Radius =  0.650 angstrom
                   Q00  =  -0.112627

C          x =  1.357219  y = -1.738951  z = -0.843690 angstrom
           Maximum rank =  0   Radius =  0.650 angstrom
                   Q00  =   1.084453

N          x =  1.205219  y = -0.756951  z =  0.027310 angstrom
           Maximum rank =  0   Radius =  0.650 angstrom
                   Q00  =  -0.591340

N          x =  0.378219  y = -2.092951  z = -1.668690 angstrom
           Maximum rank =  0   Radius =  0.650 angstrom
                   Q00  =  -0.499101

N          x =  2.504219  y = -2.386951  z = -0.877690 angstrom
           Maximum rank =  0   Radius =  0.650 angstrom
                   Q00  =  -0.596347

H          x =  0.367219  y = -0.184951  z = -0.009690 angstrom
           Maximum rank =  0   Radius =  0.325 angstrom
                   Q00  =   0.297164

H          x =  1.964219  y = -0.502951  z =  0.637310 angstrom
           Maximum rank =  0   Radius =  0.325 angstrom
                   Q00  =   0.247328

H          x =  0.567219  y = -2.839951  z = -2.321690 angstrom
           Maximum rank =  0   Radius =  0.325 angstrom
                   Q00  =   0.225409

H          x =  2.651219  y = -3.124951  z = -1.547690 angstrom
           Maximum rank =  0   Radius =  0.325 angstrom
                   Q00  =   0.259142

H          x =  3.257219  y = -2.126951  z = -0.259690 angstrom
           Maximum rank =  0   Radius =  0.325 angstrom
                   Q00  =   0.259442

H          x = -0.883781  y = -0.564951  z = -2.370690 angstrom
           Maximum rank =  0   Radius =  0.325 angstrom
                   Q00  =   0.128186

H          x = -1.248781  y = -1.147951  z = -0.733690 angstrom
           Maximum rank =  0   Radius =  0.325 angstrom
                   Q00  =   0.123894

H          x = -1.712781  y = -2.129101  z = -2.133140 angstrom
           Maximum rank =  0   Radius =  0.325 angstrom
                   Q00  =   0.150605

C          x = -2.431781  y =  2.717049  z =  1.544310 angstrom
           Maximum rank =  0   Radius =  0.650 angstrom
                   Q00  =  -0.249223

C          x = -1.104781  y =  2.056049  z =  1.212310 angstrom
           Maximum rank =  0   Radius =  0.650 angstrom
                   Q00  =   0.797281

O          x = -0.973781  y =  1.340049  z =  0.220310 angstrom
           Maximum rank =  0   Radius =  0.650 angstrom
                   Q00  =  -0.829653

N          x = -0.103781  y =  2.284049  z =  2.052310 angstrom
           Maximum rank =  0   Radius =  0.650 angstrom
                   Q00  =  -0.521995

H          x = -2.243781  y =  3.586049  z =  2.177310 angstrom
           Maximum rank =  0   Radius =  0.325 angstrom
                   Q00  =   0.093151

H          x = -3.033781  y =  2.025049  z =  2.127310 angstrom
           Maximum rank =  0   Radius =  0.325 angstrom
                   Q00  =   0.141935

H          x =  0.813219  y =  1.933049  z =  1.818310 angstrom
           Maximum rank =  0   Radius =  0.325 angstrom
                   Q00  =   0.212512

H          x = -0.230781  y =  2.920049  z =  2.826310 angstrom
           Maximum rank =  0   Radius =  0.325 angstrom
                   Q00  =   0.233612

H          x = -2.978901  y =  3.066518  z =  0.656320 angstrom
           Maximum rank =  0   Radius =  0.325 angstrom
                   Q00  =   0.146173

Total multipoles referred to origin at
           x =   0.000000,  y =    0.000000,  z =    0.000000 angstrom
                   Q00  =   1.000000

Finished at 3:8:32 on 28 Apr 2020

  DMA results are available in the Python driver through the
	  variable('DMA DISTRIBUTED MULTIPOLES')
  and
	  variable('DMA TOTAL MULTIPOLES')
  commands.

    Psi4 stopped on: Tuesday, 28 April 2020 03:08AM
    Psi4 wall time for execution: 0:01:14.12

*** Psi4 exiting successfully. Buy a developer a beer!
