                               Psi4 1.3.2 release

  ==> Input File <==

--------------------------------------------------------------------------
import numpy as np
set {scf_type pk
basis cc-pvdz
d_convergence 10
gdma_switch   0
gdma_limit    0
gdma_origin   [ 0.0,  0.0,  0.0 ]
}
molecule test {
    units Angstrom
    0 1
    --
    0 1
    C                0.005554232937126    -1.541274558773688     2.105984219455573
    C                1.365554232937126    -2.198274558773689     1.864984219455573
    C               -1.132445767062874    -2.028274558773688    -0.352015780544427
    S               -1.347445767062874    -2.472274558773688     1.370984219455573
    H               -0.189445767062874    -1.480274558773688     3.175984219455573
    H                0.007554232937126    -0.528274558773688     1.701984219455573
    H                1.574554232937126    -2.203274558773689     0.794984219455573
    H                1.323554232937126    -3.232274558773689     2.214984219455572
    H               -0.152445767062874    -2.349274558773689    -0.706015780544427
    H               -1.901445767062874    -2.521274558773689    -0.946015780544427
    H               -1.223445767062874    -0.947274558773688    -0.467015780544427
    H                2.178714232937126    -1.667984558773688     2.382251219455573
    C               -2.225445767062874     2.178725441226312    -2.128015780544427
    C                0.583554232937126     1.838725441226312     0.429984219455573
    C                1.563554232937126     1.199725441226312    -0.297015780544427
    C               -0.652445767062874     2.113725441226312    -0.148015780544427
    C               -0.922445767062874     1.807725441226312    -1.469015780544427
    C                1.329554232937125     0.865725441226312    -1.620015780544428
    C                0.081554232937126     1.172725441226312    -2.199015780544427
    O                2.781554232937125     0.985725441226312     0.280984219455573
    H                0.774554232937126     2.113725441226312     1.457984219455573
    H               -1.411445767062874     2.598725441226312     0.447984219455573
    H                2.100554232937126     0.390725441226312    -2.211015780544427
    H                3.373554232937126     0.525725441226312    -0.329015780544427
    H               -2.919445767062874     2.545725441226312    -1.370015780544428
    H               -2.653445767062874     1.271725441226312    -2.537015780544427
    H               -0.084445767062874     0.935725441226312    -3.240015780544427
    H               -2.155445767062874     2.926605441226312    -2.931615780544428

}
e, wfn = energy('scf', return_wfn=True)
gdma(wfn)
dmavals = variable('DMA DISTRIBUTED MULTIPOLES')
charges = np.array(dmavals)
print(charges)
np.save('SSI-021MET-058TYR-1-dimer.npy', np.array(charges))--------------------------------------------------------------------------

*** tstart() called on ds3
*** at Tue Apr 28 14:45:33 2020

   => Loading Basis Set <=

    Name: CC-PVDZ
    Role: ORBITAL
    Keyword: BASIS
    atoms 1-3, 13-19  entry C          line   138 file /theoryfs2/ds/metcalf/miniconda2/envs/tf2gpu/share/psi4/basis/cc-pvdz.gbs
    atoms 4           entry S          line   598 file /theoryfs2/ds/metcalf/miniconda2/envs/tf2gpu/share/psi4/basis/cc-pvdz.gbs
    atoms 5-12, 21-28 entry H          line    22 file /theoryfs2/ds/metcalf/miniconda2/envs/tf2gpu/share/psi4/basis/cc-pvdz.gbs
    atoms 20          entry O          line   198 file /theoryfs2/ds/metcalf/miniconda2/envs/tf2gpu/share/psi4/basis/cc-pvdz.gbs

         ---------------------------------------------------------
                                   SCF
               by Justin Turney, Rob Parrish, Andy Simmonett
                          and Daniel G. A. Smith
                              RHF Reference
                        1 Threads,    500 MiB Core
         ---------------------------------------------------------

  ==> Geometry <==

    Molecular point group: c1
    Full point group: C1

    Geometry (in Angstrom), charge = 0, multiplicity = 1:

       Center              X                  Y                   Z               Mass
    ------------   -----------------  -----------------  -----------------  -----------------
         C            0.005554232937    -1.541274558774     2.105984219456    12.000000000000
         C            1.365554232937    -2.198274558774     1.864984219456    12.000000000000
         C           -1.132445767063    -2.028274558774    -0.352015780544    12.000000000000
         S           -1.347445767063    -2.472274558774     1.370984219456    31.972071174400
         H           -0.189445767063    -1.480274558774     3.175984219456     1.007825032230
         H            0.007554232937    -0.528274558774     1.701984219456     1.007825032230
         H            1.574554232937    -2.203274558774     0.794984219456     1.007825032230
         H            1.323554232937    -3.232274558774     2.214984219456     1.007825032230
         H           -0.152445767063    -2.349274558774    -0.706015780544     1.007825032230
         H           -1.901445767063    -2.521274558774    -0.946015780544     1.007825032230
         H           -1.223445767063    -0.947274558774    -0.467015780544     1.007825032230
         H            2.178714232937    -1.667984558774     2.382251219456     1.007825032230
         C           -2.225445767063     2.178725441226    -2.128015780544    12.000000000000
         C            0.583554232937     1.838725441226     0.429984219456    12.000000000000
         C            1.563554232937     1.199725441226    -0.297015780544    12.000000000000
         C           -0.652445767063     2.113725441226    -0.148015780544    12.000000000000
         C           -0.922445767063     1.807725441226    -1.469015780544    12.000000000000
         C            1.329554232937     0.865725441226    -1.620015780544    12.000000000000
         C            0.081554232937     1.172725441226    -2.199015780544    12.000000000000
         O            2.781554232937     0.985725441226     0.280984219456    15.994914619570
         H            0.774554232937     2.113725441226     1.457984219456     1.007825032230
         H           -1.411445767063     2.598725441226     0.447984219456     1.007825032230
         H            2.100554232937     0.390725441226    -2.211015780544     1.007825032230
         H            3.373554232937     0.525725441226    -0.329015780544     1.007825032230
         H           -2.919445767063     2.545725441226    -1.370015780544     1.007825032230
         H           -2.653445767063     1.271725441226    -2.537015780544     1.007825032230
         H           -0.084445767063     0.935725441226    -3.240015780544     1.007825032230
         H           -2.155445767063     2.926605441226    -2.931615780544     1.007825032230

  Running in c1 symmetry.

  Rotational constants: A =      0.03070  B =      0.01672  C =      0.01280 [cm^-1]
  Rotational constants: A =    920.22642  B =    501.16092  C =    383.75374 [MHz]
  Nuclear repulsion =  783.228694363708200

  Charge       = 0
  Multiplicity = 1
  Electrons    = 100
  Nalpha       = 50
  Nbeta        = 50

  ==> Algorithm <==

  SCF Algorithm Type is PK.
  DIIS enabled.
  MOM disabled.
  Fractional occupation disabled.
  Guess Type is SAD.
  Energy threshold   = 1.00e-06
  Density threshold  = 1.00e-10
  Integral threshold = 0.00e+00

  ==> Primary Basis <==

  Basis Set: CC-PVDZ
    Blend: CC-PVDZ
    Number of shells: 122
    Number of basis function: 252
    Number of Cartesian functions: 264
    Spherical Harmonics?: true
    Max angular momentum: 2

  ==> Pre-Iterations <==

   -------------------------------------------------------
    Irrep   Nso     Nmo     Nalpha   Nbeta   Ndocc  Nsocc
   -------------------------------------------------------
     A        252     252       0       0       0       0
   -------------------------------------------------------
    Total     252     252      50      50      50       0
   -------------------------------------------------------

  ==> Integral Setup <==

  Using integral reordering PK algorithm.
  Sizing the integral batches needed.
  Building batch lookup table.
   Calculation information:
      Number of atoms:                  28
      Number of AO shells:             122
      Number of primitives:            372
      Number of atomic orbitals:       264
      Number of basis functions:       252

      Integral cutoff                 1.00e-12
      Number of threads:                 1

	Batch   1 pq = [       0,    9405] index = [             0,44231715] size =     44231715
	Batch   2 pq = [    9405,   13301] index = [      44231715,88464951] size =     44233236
	Batch   3 pq = [   13301,   16290] index = [      88464951,132690195] size =     44225244
	Batch   4 pq = [   16290,   18810] index = [     132690195,176917455] size =     44227260
	Batch   5 pq = [   18810,   21030] index = [     176917455,221140965] size =     44223510
	Batch   6 pq = [   21030,   23037] index = [     221140965,265363203] size =     44222238
	Batch   7 pq = [   23037,   24883] index = [     265363203,309594286] size =     44231083
	Batch   8 pq = [   24883,   26601] index = [     309594286,353819901] size =     44225615
	Batch   9 pq = [   26601,   28214] index = [     353819901,398029005] size =     44209104
	Batch  10 pq = [   28214,   29740] index = [     398029005,442248670] size =     44219665
	Batch  11 pq = [   29740,   31191] index = [     442248670,486454836] size =     44206166
	Batch  12 pq = [   31191,   31878] index = [     486454836,508119381] size =     21664545
  Task number: 46
  Buffer size: 11059200
  Buffer per thread: 2
  We computed 29639132 shell quartets total.
  Whereas there are 28151256 unique shell quartets.
     5.29 percent of shell quartets recomputed by reordering.

  ==> DiskJK: Disk-Based J/K Matrices <==

    J tasked:                  Yes
    K tasked:                  Yes
    wK tasked:                  No
    Memory [MiB]:              375
    Schwarz Cutoff:          1E-12

    OpenMP threads:              1

  Minimum eigenvalue in the overlap matrix is 3.0789298296E-04.
  Using Symmetric Orthogonalization.

  SCF Guess: Superposition of Atomic Densities via on-the-fly atomic UHF.

  ==> Iterations <==

                        Total Energy        Delta E     RMS |[F,P]|

   @RHF iter SAD:  -859.31280978430061   -8.59313e+02   0.00000e+00
   @RHF iter   1:  -860.14517141794170   -8.32362e-01   2.52634e-03 DIIS
   @RHF iter   2:  -860.37821661334306   -2.33045e-01   1.04262e-03 DIIS
   @RHF iter   3:  -860.41322362790436   -3.50070e-02   2.57824e-04 DIIS
   @RHF iter   4:  -860.41663995264094   -3.41632e-03   9.27702e-05 DIIS
   @RHF iter   5:  -860.41696499226884   -3.25040e-04   2.02736e-05 DIIS
   @RHF iter   6:  -860.41698631526094   -2.13230e-05   6.56963e-06 DIIS
   @RHF iter   7:  -860.41698867786283   -2.36260e-06   1.89181e-06 DIIS
   @RHF iter   8:  -860.41698896011258   -2.82250e-07   7.13426e-07 DIIS
   @RHF iter   9:  -860.41698900401434   -4.39018e-08   2.79741e-07 DIIS
   @RHF iter  10:  -860.41698901111079   -7.09645e-09   1.20406e-07 DIIS
   @RHF iter  11:  -860.41698901327732   -2.16653e-09   5.53549e-08 DIIS
   @RHF iter  12:  -860.41698901384564   -5.68321e-10   2.55212e-08 DIIS
   @RHF iter  13:  -860.41698901394011   -9.44738e-11   8.20506e-09 DIIS
   @RHF iter  14:  -860.41698901395500   -1.48930e-11   2.28974e-09 DIIS
   @RHF iter  15:  -860.41698901395227    2.72848e-12   7.84858e-10 DIIS
   @RHF iter  16:  -860.41698901394761    4.66116e-12   2.84266e-10 DIIS
   @RHF iter  17:  -860.41698901395660   -8.98126e-12   1.14215e-10 DIIS
   @RHF iter  18:  -860.41698901394489    1.17097e-11   5.29216e-11 DIIS
  Energy and wave function converged.

  ==> Post-Iterations <==

    Orbital Energies [Eh]
    ---------------------

    Doubly Occupied:

       1A    -91.922255     2A    -20.590865     3A    -11.303842
       4A    -11.247365     5A    -11.244919     6A    -11.243188
       7A    -11.242617     8A    -11.242283     9A    -11.239598
      10A    -11.234385    11A    -11.233028    12A    -11.218825
      13A     -8.926681    14A     -6.608767    15A     -6.607183
      16A     -6.605003    17A     -1.405857    18A     -1.160043
      19A     -1.072999    20A     -1.047302    21A     -1.022578
      22A     -0.985119    23A     -0.935074    24A     -0.875083
      25A     -0.853596    26A     -0.808141    27A     -0.774555
      28A     -0.737245    29A     -0.674421    30A     -0.648059
      31A     -0.624375    32A     -0.615467    33A     -0.597666
      34A     -0.591367    35A     -0.590131    36A     -0.579581
      37A     -0.574162    38A     -0.570015    39A     -0.549377
      40A     -0.534044    41A     -0.520404    42A     -0.505512
      43A     -0.500618    44A     -0.492453    45A     -0.474578
      46A     -0.467612    47A     -0.411328    48A     -0.343751
      49A     -0.320378    50A     -0.312551

    Virtual:

      51A      0.120258    52A      0.150311    53A      0.163663
      54A      0.176014    55A      0.193875    56A      0.200869
      57A      0.213675    58A      0.220725    59A      0.236366
      60A      0.246477    61A      0.249283    62A      0.261789
      63A      0.266295    64A      0.269354    65A      0.271925
      66A      0.285088    67A      0.292678    68A      0.296909
      69A      0.327948    70A      0.350151    71A      0.365893
      72A      0.371722    73A      0.391709    74A      0.421265
      75A      0.448963    76A      0.486247    77A      0.488085
      78A      0.504662    79A      0.535193    80A      0.566298
      81A      0.585301    82A      0.592563    83A      0.607722
      84A      0.623612    85A      0.629236    86A      0.635424
      87A      0.645943    88A      0.666396    89A      0.692678
      90A      0.695523    91A      0.700992    92A      0.706559
      93A      0.724395    94A      0.730067    95A      0.743081
      96A      0.749772    97A      0.763011    98A      0.767971
      99A      0.779932   100A      0.795375   101A      0.806128
     102A      0.813175   103A      0.823113   104A      0.837420
     105A      0.844443   106A      0.855728   107A      0.860579
     108A      0.872596   109A      0.879051   110A      0.882835
     111A      0.886574   112A      0.889994   113A      0.893014
     114A      0.896924   115A      0.906281   116A      0.919437
     117A      0.922290   118A      0.932452   119A      0.937821
     120A      0.942366   121A      0.946888   122A      0.954080
     123A      0.979499   124A      0.993763   125A      0.999625
     126A      1.015096   127A      1.026619   128A      1.033737
     129A      1.073688   130A      1.100354   131A      1.117713
     132A      1.144114   133A      1.160688   134A      1.202344
     135A      1.205125   136A      1.230444   137A      1.242658
     138A      1.243071   139A      1.263692   140A      1.273912
     141A      1.278922   142A      1.283723   143A      1.298450
     144A      1.298773   145A      1.312118   146A      1.323608
     147A      1.347731   148A      1.357928   149A      1.357995
     150A      1.385978   151A      1.391528   152A      1.456309
     153A      1.475233   154A      1.495411   155A      1.498416
     156A      1.515799   157A      1.531081   158A      1.543597
     159A      1.606067   160A      1.621258   161A      1.646590
     162A      1.663212   163A      1.684215   164A      1.685824
     165A      1.696310   166A      1.704573   167A      1.726725
     168A      1.738907   169A      1.781350   170A      1.802935
     171A      1.811193   172A      1.861597   173A      1.870280
     174A      1.876151   175A      1.890901   176A      1.898225
     177A      1.900857   178A      1.903166   179A      1.912610
     180A      1.921072   181A      1.925987   182A      1.945946
     183A      1.947783   184A      1.954548   185A      1.958301
     186A      1.965081   187A      1.978656   188A      1.985146
     189A      1.998668   190A      2.002600   191A      2.008698
     192A      2.017792   193A      2.034780   194A      2.045154
     195A      2.055401   196A      2.065412   197A      2.074722
     198A      2.086323   199A      2.095169   200A      2.123639
     201A      2.140029   202A      2.156699   203A      2.185500
     204A      2.199675   205A      2.214270   206A      2.228046
     207A      2.251222   208A      2.261697   209A      2.266644
     210A      2.305804   211A      2.309224   212A      2.330972
     213A      2.356840   214A      2.391832   215A      2.396807
     216A      2.428068   217A      2.447495   218A      2.462902
     219A      2.478270   220A      2.490833   221A      2.503812
     222A      2.525299   223A      2.560743   224A      2.566716
     225A      2.584273   226A      2.611396   227A      2.641088
     228A      2.737736   229A      2.763710   230A      2.778141
     231A      2.780665   232A      2.795097   233A      2.805230
     234A      2.808155   235A      2.827734   236A      2.839703
     237A      2.852589   238A      2.857873   239A      2.894100
     240A      2.924037   241A      2.971156   242A      2.996386
     243A      3.041017   244A      3.089382   245A      3.124940
     246A      3.249938   247A      3.281812   248A      3.337031
     249A      3.573735   250A      3.678835   251A      3.950328
     252A      4.187912

    Final Occupation by Irrep:
              A
    DOCC [    50 ]

  @RHF Final Energy:  -860.41698901394489

   => Energetics <=

    Nuclear Repulsion Energy =            783.2286943637082004
    One-Electron Energy =               -2733.5188783114817852
    Two-Electron Energy =                1089.8731949338286995
    Total Energy =                       -860.4169890139448853

Computation Completed

Properties will be evaluated at   0.000000,   0.000000,   0.000000 [a0]

Properties computed using the SCF density matrix

  Nuclear Dipole Moment: [e a0]
     X:    -1.2952      Y:    -1.5804      Z:    -2.3639

  Electronic Dipole Moment: [e a0]
     X:     1.7744      Y:     1.9737      Z:     1.4497

  Dipole Moment: [e a0]
     X:     0.4792      Y:     0.3934      Z:    -0.9142     Total:     1.1046

  Dipole Moment: [D]
     X:     1.2180      Y:     0.9999      Z:    -2.3236     Total:     2.8075

*** tstop() called on ds3 at Tue Apr 28 14:51:55 2020
Module time:
	user time   =     245.18 seconds =       4.09 minutes
	system time =      78.66 seconds =       1.31 minutes
	total time  =        382 seconds =       6.37 minutes
Total time:
	user time   =     245.18 seconds =       4.09 minutes
	system time =      78.66 seconds =       1.31 minutes
	total time  =        382 seconds =       6.37 minutes
                                     G D M A

                                 by Anthony Stone

                           version 2.2.06, 22 June 2011

               Distributed Multipoles from Gaussian wavefunctions

Starting at 14:51:55 on 28 Apr 2020

Using SCF density matrix from file ./SSI/SSI-021MET-058TYR-1-dimer.test.8808.fchk

                         Distributed Multipole Analysis

Standard DMA

Positions and radii in angstrom
Multipole moments in atomic units, ea_0^k for rank k

C          x =  0.005554  y = -1.541275  z =  2.105984 angstrom
           Maximum rank =  0   Radius =  0.650 angstrom
                   Q00  =  -0.203784

C          x =  1.365554  y = -2.198275  z =  1.864984 angstrom
           Maximum rank =  0   Radius =  0.650 angstrom
                   Q00  =  -0.241587

C          x = -1.132446  y = -2.028275  z = -0.352016 angstrom
           Maximum rank =  0   Radius =  0.650 angstrom
                   Q00  =  -0.359189

S          x = -1.347446  y = -2.472275  z =  1.370984 angstrom
           Maximum rank =  0   Radius =  0.650 angstrom
                   Q00  =   0.093739

H          x = -0.189446  y = -1.480275  z =  3.175984 angstrom
           Maximum rank =  0   Radius =  0.325 angstrom
                   Q00  =   0.081296

H          x =  0.007554  y = -0.528275  z =  1.701984 angstrom
           Maximum rank =  0   Radius =  0.325 angstrom
                   Q00  =   0.079875

H          x =  1.574554  y = -2.203275  z =  0.794984 angstrom
           Maximum rank =  0   Radius =  0.325 angstrom
                   Q00  =   0.075054

H          x =  1.323554  y = -3.232275  z =  2.214984 angstrom
           Maximum rank =  0   Radius =  0.325 angstrom
                   Q00  =   0.084598

H          x = -0.152446  y = -2.349275  z = -0.706016 angstrom
           Maximum rank =  0   Radius =  0.325 angstrom
                   Q00  =   0.080079

H          x = -1.901446  y = -2.521275  z = -0.946016 angstrom
           Maximum rank =  0   Radius =  0.325 angstrom
                   Q00  =   0.114083

H          x = -1.223446  y = -0.947275  z = -0.467016 angstrom
           Maximum rank =  0   Radius =  0.325 angstrom
                   Q00  =   0.099959

H          x =  2.178714  y = -1.667985  z =  2.382251 angstrom
           Maximum rank =  0   Radius =  0.325 angstrom
                   Q00  =   0.089369

C          x = -2.225446  y =  2.178725  z = -2.128016 angstrom
           Maximum rank =  0   Radius =  0.650 angstrom
                   Q00  =  -0.204801

C          x =  0.583554  y =  1.838725  z =  0.429984 angstrom
           Maximum rank =  0   Radius =  0.650 angstrom
                   Q00  =  -0.103679

C          x =  1.563554  y =  1.199725  z = -0.297016 angstrom
           Maximum rank =  0   Radius =  0.650 angstrom
                   Q00  =   0.310390

C          x = -0.652446  y =  2.113725  z = -0.148016 angstrom
           Maximum rank =  0   Radius =  0.650 angstrom
                   Q00  =   0.037482

C          x = -0.922446  y =  1.807725  z = -1.469016 angstrom
           Maximum rank =  0   Radius =  0.650 angstrom
                   Q00  =  -0.135184

C          x =  1.329554  y =  0.865725  z = -1.620016 angstrom
           Maximum rank =  0   Radius =  0.650 angstrom
                   Q00  =  -0.197304

C          x =  0.081554  y =  1.172725  z = -2.199016 angstrom
           Maximum rank =  0   Radius =  0.650 angstrom
                   Q00  =  -0.027833

O          x =  2.781554  y =  0.985725  z =  0.280984 angstrom
           Maximum rank =  0   Radius =  0.650 angstrom
                   Q00  =  -0.673542

H          x =  0.774554  y =  2.113725  z =  1.457984 angstrom
           Maximum rank =  0   Radius =  0.325 angstrom
                   Q00  =   0.081769

H          x = -1.411446  y =  2.598725  z =  0.447984 angstrom
           Maximum rank =  0   Radius =  0.325 angstrom
                   Q00  =   0.066145

H          x =  2.100554  y =  0.390725  z = -2.211016 angstrom
           Maximum rank =  0   Radius =  0.325 angstrom
                   Q00  =   0.075243

H          x =  3.373554  y =  0.525725  z = -0.329016 angstrom
           Maximum rank =  0   Radius =  0.325 angstrom
                   Q00  =   0.406935

H          x = -2.919446  y =  2.545725  z = -1.370016 angstrom
           Maximum rank =  0   Radius =  0.325 angstrom
                   Q00  =   0.099751

H          x = -2.653446  y =  1.271725  z = -2.537016 angstrom
           Maximum rank =  0   Radius =  0.325 angstrom
                   Q00  =   0.099122

H          x = -0.084446  y =  0.935725  z = -3.240016 angstrom
           Maximum rank =  0   Radius =  0.325 angstrom
                   Q00  =   0.069038

H          x = -2.155446  y =  2.926605  z = -2.931616 angstrom
           Maximum rank =  0   Radius =  0.325 angstrom
                   Q00  =   0.102978

Total multipoles referred to origin at
           x =   0.000000,  y =    0.000000,  z =    0.000000 angstrom
                   Q00  =  -0.000000

Finished at 14:51:55 on 28 Apr 2020

  DMA results are available in the Python driver through the
	  variable('DMA DISTRIBUTED MULTIPOLES')
  and
	  variable('DMA TOTAL MULTIPOLES')
  commands.

    Psi4 stopped on: Tuesday, 28 April 2020 02:51PM
    Psi4 wall time for execution: 0:06:21.73

*** Psi4 exiting successfully. Buy a developer a beer!
