                               Psi4 1.3.2 release

  ==> Input File <==

--------------------------------------------------------------------------
import numpy as np
set {scf_type pk
basis cc-pvdz
d_convergence 10
gdma_switch   0
gdma_limit    0
gdma_origin   [ 0.0,  0.0,  0.0 ]
}
molecule test {
    units Angstrom
    0 1
    --
    0 1
    C               -0.649198910282975     1.444154459412471    -0.523846354207173
    C                0.257801089717025     2.660154459412471    -0.364846354207173
    H               -0.215198910282975     0.748154459412471    -1.242846354207173
    H               -0.752198910282975     0.948154459412471     0.438153645792827
    H               -1.635198910282975     1.736154459412471    -0.872846354207173
    H               -0.181198910282975     3.312154459412471     0.386153645792827
    H                0.351631089717025     3.200904459412472    -1.318147354207173
    H                1.249241089717025     2.346124459412471    -0.006469354207173
    C                0.688801089717025    -1.967845540587529    -0.157846354207173
    C               -0.295198910282975    -2.135845540587529     1.044153645792827
    H                1.295801089717025    -2.866845540587529    -0.271846354207173
    H                0.118801089717025    -1.809845540587529    -1.073846354207173
    H                1.337801089717025    -1.104845540587529    -0.009846354207173
    H               -0.774198910282975    -1.177845540587529     1.235153645792827
    H                0.252721089717025    -2.459255540587528     1.941475645792827
    H               -1.074248910282975    -2.880365540587528     0.823314645792827

}
e, wfn = energy('scf', return_wfn=True)
gdma(wfn)
dmavals = variable('DMA DISTRIBUTED MULTIPOLES')
charges = np.array(dmavals)
print(charges)
np.save('SSI-043VAL-069VAL-1-dimer.npy', np.array(charges))--------------------------------------------------------------------------

*** tstart() called on ds3
*** at Tue Apr 28 21:47:29 2020

   => Loading Basis Set <=

    Name: CC-PVDZ
    Role: ORBITAL
    Keyword: BASIS
    atoms 1-2, 9-10  entry C          line   138 file /theoryfs2/ds/metcalf/miniconda2/envs/tf2gpu/share/psi4/basis/cc-pvdz.gbs
    atoms 3-8, 11-16 entry H          line    22 file /theoryfs2/ds/metcalf/miniconda2/envs/tf2gpu/share/psi4/basis/cc-pvdz.gbs

         ---------------------------------------------------------
                                   SCF
               by Justin Turney, Rob Parrish, Andy Simmonett
                          and Daniel G. A. Smith
                              RHF Reference
                        1 Threads,    500 MiB Core
         ---------------------------------------------------------

  ==> Geometry <==

    Molecular point group: c1
    Full point group: C1

    Geometry (in Angstrom), charge = 0, multiplicity = 1:

       Center              X                  Y                   Z               Mass
    ------------   -----------------  -----------------  -----------------  -----------------
         C           -0.649198910283     1.444154459412    -0.523846354207    12.000000000000
         C            0.257801089717     2.660154459412    -0.364846354207    12.000000000000
         H           -0.215198910283     0.748154459412    -1.242846354207     1.007825032230
         H           -0.752198910283     0.948154459412     0.438153645793     1.007825032230
         H           -1.635198910283     1.736154459412    -0.872846354207     1.007825032230
         H           -0.181198910283     3.312154459412     0.386153645793     1.007825032230
         H            0.351631089717     3.200904459412    -1.318147354207     1.007825032230
         H            1.249241089717     2.346124459412    -0.006469354207     1.007825032230
         C            0.688801089717    -1.967845540588    -0.157846354207    12.000000000000
         C           -0.295198910283    -2.135845540588     1.044153645793    12.000000000000
         H            1.295801089717    -2.866845540588    -0.271846354207     1.007825032230
         H            0.118801089717    -1.809845540588    -1.073846354207     1.007825032230
         H            1.337801089717    -1.104845540588    -0.009846354207     1.007825032230
         H           -0.774198910283    -1.177845540588     1.235153645793     1.007825032230
         H            0.252721089717    -2.459255540588     1.941475645793     1.007825032230
         H           -1.074248910283    -2.880365540588     0.823314645793     1.007825032230

  Running in c1 symmetry.

  Rotational constants: A =      0.41671  B =      0.05664  C =      0.05433 [cm^-1]
  Rotational constants: A =  12492.75129  B =   1697.95131  C =   1628.77313 [MHz]
  Nuclear repulsion =  124.428080796266244

  Charge       = 0
  Multiplicity = 1
  Electrons    = 36
  Nalpha       = 18
  Nbeta        = 18

  ==> Algorithm <==

  SCF Algorithm Type is PK.
  DIIS enabled.
  MOM disabled.
  Fractional occupation disabled.
  Guess Type is SAD.
  Energy threshold   = 1.00e-06
  Density threshold  = 1.00e-10
  Integral threshold = 0.00e+00

  ==> Primary Basis <==

  Basis Set: CC-PVDZ
    Blend: CC-PVDZ
    Number of shells: 60
    Number of basis function: 116
    Number of Cartesian functions: 120
    Spherical Harmonics?: true
    Max angular momentum: 2

  ==> Pre-Iterations <==

   -------------------------------------------------------
    Irrep   Nso     Nmo     Nalpha   Nbeta   Ndocc  Nsocc
   -------------------------------------------------------
     A        116     116       0       0       0       0
   -------------------------------------------------------
    Total     116     116      18      18      18       0
   -------------------------------------------------------

  ==> Integral Setup <==

  Using integral reordering PK algorithm.
  Sizing the integral batches needed.
  Building batch lookup table.
   Calculation information:
      Number of atoms:                  16
      Number of AO shells:              60
      Number of primitives:            148
      Number of atomic orbitals:       120
      Number of basis functions:       116

      Integral cutoff                 1.00e-12
      Number of threads:                 1

	Batch   1 pq = [       0,    6786] index = [             0,23028291] size =     23028291
  Task number: 3
  Buffer size: 11059200
  Buffer per thread: 2
  We computed 1529280 shell quartets total.
  Whereas there are 1675365 unique shell quartets.

  ==> DiskJK: Disk-Based J/K Matrices <==

    J tasked:                  Yes
    K tasked:                  Yes
    wK tasked:                  No
    Memory [MiB]:              375
    Schwarz Cutoff:          1E-12

    OpenMP threads:              1

  Minimum eigenvalue in the overlap matrix is 7.2186998158E-03.
  Using Symmetric Orthogonalization.

  SCF Guess: Superposition of Atomic Densities via on-the-fly atomic UHF.

  ==> Iterations <==

                        Total Energy        Delta E     RMS |[F,P]|

   @RHF iter SAD:  -157.31630032584314   -1.57316e+02   0.00000e+00
   @RHF iter   1:  -158.30943811405371   -9.93138e-01   4.16527e-03 DIIS
   @RHF iter   2:  -158.44093012811655   -1.31492e-01   1.76113e-03 DIIS
   @RHF iter   3:  -158.46353798340789   -2.26079e-02   3.47327e-04 DIIS
   @RHF iter   4:  -158.46533954893084   -1.80157e-03   3.82303e-05 DIIS
   @RHF iter   5:  -158.46536245198448   -2.29031e-05   6.41432e-06 DIIS
   @RHF iter   6:  -158.46536306163878   -6.09654e-07   1.11000e-06 DIIS
   @RHF iter   7:  -158.46536307373444   -1.20957e-08   3.26463e-07 DIIS
   @RHF iter   8:  -158.46536307469944   -9.65002e-10   3.97805e-08 DIIS
   @RHF iter   9:  -158.46536307472152   -2.20837e-11   7.71284e-09 DIIS
   @RHF iter  10:  -158.46536307472249   -9.66338e-13   1.81526e-09 DIIS
   @RHF iter  11:  -158.46536307472286   -3.69482e-13   4.61144e-10 DIIS
   @RHF iter  12:  -158.46536307472201    8.52651e-13   1.47184e-10 DIIS
   @RHF iter  13:  -158.46536307472221   -1.98952e-13   2.55305e-11 DIIS
  Energy and wave function converged.

  ==> Post-Iterations <==

    Orbital Energies [Eh]
    ---------------------

    Doubly Occupied:

       1A    -11.221181     2A    -11.219407     3A    -11.219036
       4A    -11.215540     5A     -1.020231     6A     -1.009308
       7A     -0.840132     8A     -0.836917     9A     -0.605176
      10A     -0.600301    11A     -0.591675    12A     -0.589577
      13A     -0.500757    14A     -0.497203    15A     -0.493139
      16A     -0.487292    17A     -0.483493    18A     -0.480911

    Virtual:

      19A      0.171288    20A      0.200633    21A      0.224940
      22A      0.230913    23A      0.244545    24A      0.255248
      25A      0.266958    26A      0.273345    27A      0.281804
      28A      0.306993    29A      0.324139    30A      0.362998
      31A      0.394732    32A      0.402662    33A      0.563027
      34A      0.586537    35A      0.599871    36A      0.614179
      37A      0.614865    38A      0.634856    39A      0.668193
      40A      0.691677    41A      0.696578    42A      0.813457
      43A      0.829605    44A      0.846270    45A      0.885136
      46A      0.888008    47A      0.892456    48A      0.896489
      49A      0.903627    50A      0.906676    51A      0.920949
      52A      0.937661    53A      0.945649    54A      0.965097
      55A      0.984789    56A      0.993968    57A      1.122562
      58A      1.123312    59A      1.144515    60A      1.154494
      61A      1.219278    62A      1.272698    63A      1.462392
      64A      1.468498    65A      1.480020    66A      1.486899
      67A      1.556002    68A      1.597962    69A      1.680469
      70A      1.686496    71A      1.697501    72A      1.700619
      73A      1.853179    74A      1.861873    75A      1.868748
      76A      1.880568    77A      1.895891    78A      1.914736
      79A      1.929499    80A      1.935428    81A      1.942453
      82A      1.950776    83A      1.952320    84A      1.953633
      85A      1.958531    86A      1.965038    87A      1.979455
      88A      2.028808    89A      2.094993    90A      2.105833
      91A      2.121169    92A      2.134970    93A      2.289692
      94A      2.300223    95A      2.312869    96A      2.317881
      97A      2.438854    98A      2.445966    99A      2.458498
     100A      2.485672   101A      2.555840   102A      2.562925
     103A      2.573919   104A      2.584620   105A      2.762640
     106A      2.767074   107A      2.789327   108A      2.798969
     109A      2.841778   110A      2.850446   111A      2.855356
     112A      2.863336   113A      2.937329   114A      2.943171
     115A      2.977317   116A      2.980374

    Final Occupation by Irrep:
              A
    DOCC [    18 ]

  @RHF Final Energy:  -158.46536307472221

   => Energetics <=

    Nuclear Repulsion Energy =            124.4280807962662436
    One-Electron Energy =                -457.9643381363687240
    Two-Electron Energy =                 175.0708942653802467
    Total Energy =                       -158.4653630747222053

Computation Completed

Properties will be evaluated at   0.000000,   0.000000,   0.000000 [a0]

Properties computed using the SCF density matrix

  Nuclear Dipole Moment: [e a0]
     X:    -0.0246      Y:    -0.0069      Z:     0.0266

  Electronic Dipole Moment: [e a0]
     X:     0.0123      Y:     0.0097      Z:    -0.0303

  Dipole Moment: [e a0]
     X:    -0.0123      Y:     0.0028      Z:    -0.0036     Total:     0.0131

  Dipole Moment: [D]
     X:    -0.0312      Y:     0.0071      Z:    -0.0092     Total:     0.0333

*** tstop() called on ds3 at Tue Apr 28 21:47:40 2020
Module time:
	user time   =       8.45 seconds =       0.14 minutes
	system time =       3.06 seconds =       0.05 minutes
	total time  =         11 seconds =       0.18 minutes
Total time:
	user time   =       8.45 seconds =       0.14 minutes
	system time =       3.06 seconds =       0.05 minutes
	total time  =         11 seconds =       0.18 minutes
                                     G D M A

                                 by Anthony Stone

                           version 2.2.06, 22 June 2011

               Distributed Multipoles from Gaussian wavefunctions

Starting at 21:47:40 on 28 Apr 2020

Using SCF density matrix from file ./SSI/SSI-043VAL-069VAL-1-dimer.test.32119.fchk

                         Distributed Multipole Analysis

Standard DMA

Positions and radii in angstrom
Multipole moments in atomic units, ea_0^k for rank k

C          x = -0.649199  y =  1.444154  z = -0.523846 angstrom
           Maximum rank =  0   Radius =  0.650 angstrom
                   Q00  =  -0.243351

C          x =  0.257801  y =  2.660154  z = -0.364846 angstrom
           Maximum rank =  0   Radius =  0.650 angstrom
                   Q00  =  -0.230617

H          x = -0.215199  y =  0.748154  z = -1.242846 angstrom
           Maximum rank =  0   Radius =  0.325 angstrom
                   Q00  =   0.080114

H          x = -0.752199  y =  0.948154  z =  0.438154 angstrom
           Maximum rank =  0   Radius =  0.325 angstrom
                   Q00  =   0.078569

H          x = -1.635199  y =  1.736154  z = -0.872846 angstrom
           Maximum rank =  0   Radius =  0.325 angstrom
                   Q00  =   0.080389

H          x = -0.181199  y =  3.312154  z =  0.386154 angstrom
           Maximum rank =  0   Radius =  0.325 angstrom
                   Q00  =   0.077762

H          x =  0.351631  y =  3.200904  z = -1.318147 angstrom
           Maximum rank =  0   Radius =  0.325 angstrom
                   Q00  =   0.079622

H          x =  1.249241  y =  2.346124  z = -0.006469 angstrom
           Maximum rank =  0   Radius =  0.325 angstrom
                   Q00  =   0.077500

C          x =  0.688801  y = -1.967846  z = -0.157846 angstrom
           Maximum rank =  0   Radius =  0.650 angstrom
                   Q00  =  -0.245311

C          x = -0.295199  y = -2.135846  z =  1.044154 angstrom
           Maximum rank =  0   Radius =  0.650 angstrom
                   Q00  =  -0.249139

H          x =  1.295801  y = -2.866846  z = -0.271846 angstrom
           Maximum rank =  0   Radius =  0.325 angstrom
                   Q00  =   0.081922

H          x =  0.118801  y = -1.809846  z = -1.073846 angstrom
           Maximum rank =  0   Radius =  0.325 angstrom
                   Q00  =   0.082310

H          x =  1.337801  y = -1.104846  z = -0.009846 angstrom
           Maximum rank =  0   Radius =  0.325 angstrom
                   Q00  =   0.082799

H          x = -0.774199  y = -1.177846  z =  1.235154 angstrom
           Maximum rank =  0   Radius =  0.325 angstrom
                   Q00  =   0.084629

H          x =  0.252721  y = -2.459256  z =  1.941476 angstrom
           Maximum rank =  0   Radius =  0.325 angstrom
                   Q00  =   0.080247

H          x = -1.074249  y = -2.880366  z =  0.823315 angstrom
           Maximum rank =  0   Radius =  0.325 angstrom
                   Q00  =   0.082557

Total multipoles referred to origin at
           x =   0.000000,  y =    0.000000,  z =    0.000000 angstrom
                   Q00  =  -0.000000

Finished at 21:47:40 on 28 Apr 2020

  DMA results are available in the Python driver through the
	  variable('DMA DISTRIBUTED MULTIPOLES')
  and
	  variable('DMA TOTAL MULTIPOLES')
  commands.

    Psi4 stopped on: Tuesday, 28 April 2020 09:47PM
    Psi4 wall time for execution: 0:00:11.41

*** Psi4 exiting successfully. Buy a developer a beer!
