                               Psi4 1.3.2 release

  ==> Input File <==

--------------------------------------------------------------------------
import numpy as np
set {scf_type pk
basis cc-pvdz
d_convergence 10
gdma_switch   0
gdma_limit    0
gdma_origin   [ 0.0,  0.0,  0.0 ]
}
molecule test {
    units Angstrom
    0 1
    --
    0 1
    C               -1.419101146336646     0.392577920577824     1.540226835293726
    C               -2.930101146336646     0.670577920577824     1.456226835293726
    C               -0.776101146336646    -0.128422079422176     0.277226835293726
    C               -0.746101146336646    -1.501422079422176     0.013226835293726
    C               -0.176101146336646     0.742577920577824    -0.639773164706274
    C               -0.127101146336646    -1.997422079422176    -1.135773164706274
    C                0.452898853663354     0.247577920577824    -1.796773164706274
    C                0.470898853663354    -1.125422079422176    -2.045773164706274
    O                1.062898853663354    -1.613422079422176    -3.184773164706274
    H               -0.922101146336646     1.312577920577824     1.832226835293726
    H               -1.243101146336646    -0.330422079422176     2.336226835293726
    H               -3.195101146336646     1.129577920577824     2.405226835293726
    H               -1.207101146336646    -2.191422079422176     0.708226835293726
    H               -0.179101146336646     1.805577920577824    -0.451773164706274
    H               -0.120101146336646    -3.060422079422177    -1.326773164706274
    H                0.921898853663354     0.924577920577824    -2.495773164706274
    H                1.010898853663354    -2.574422079422176    -3.240773164706274
    H               -3.516861146336646    -0.249757079422176     1.319486835293726
    H               -3.167611146336646     1.435084920577824     0.701826835293726
    C                2.050898853663354     1.331577920577824     2.911226835293726
    C                1.794898853663354     2.666577920577824     2.218226835293726
    H                2.937898853663354     1.359577920577824     3.540226835293726
    H                1.198898853663354     1.098577920577824     3.549226835293726
    H                2.150898853663354     0.541577920577824     2.167226835293726
    H                1.796898853663354     3.441577920577824     2.984226835293726
    H                0.821898853663354     2.648577920577823     1.735226835293726
    H                2.572041853663354     2.850996920577824     1.461896835293726

}
e, wfn = energy('scf', return_wfn=True)
gdma(wfn)
dmavals = variable('DMA DISTRIBUTED MULTIPOLES')
charges = np.array(dmavals)
print(charges)
np.save('SSI-040TYR-079ILE-1-dimer.npy', np.array(charges))--------------------------------------------------------------------------

*** tstart() called on ds3
*** at Sun Apr 26 20:31:32 2020

   => Loading Basis Set <=

    Name: CC-PVDZ
    Role: ORBITAL
    Keyword: BASIS
    atoms 1-8, 20-21   entry C          line   138 file /theoryfs2/ds/metcalf/miniconda2/envs/tf2gpu/share/psi4/basis/cc-pvdz.gbs
    atoms 9            entry O          line   198 file /theoryfs2/ds/metcalf/miniconda2/envs/tf2gpu/share/psi4/basis/cc-pvdz.gbs
    atoms 10-19, 22-27 entry H          line    22 file /theoryfs2/ds/metcalf/miniconda2/envs/tf2gpu/share/psi4/basis/cc-pvdz.gbs

         ---------------------------------------------------------
                                   SCF
               by Justin Turney, Rob Parrish, Andy Simmonett
                          and Daniel G. A. Smith
                              RHF Reference
                        1 Threads,    500 MiB Core
         ---------------------------------------------------------

  ==> Geometry <==

    Molecular point group: c1
    Full point group: C1

    Geometry (in Angstrom), charge = 0, multiplicity = 1:

       Center              X                  Y                   Z               Mass
    ------------   -----------------  -----------------  -----------------  -----------------
         C           -1.419101146337     0.392577920578     1.540226835294    12.000000000000
         C           -2.930101146337     0.670577920578     1.456226835294    12.000000000000
         C           -0.776101146337    -0.128422079422     0.277226835294    12.000000000000
         C           -0.746101146337    -1.501422079422     0.013226835294    12.000000000000
         C           -0.176101146337     0.742577920578    -0.639773164706    12.000000000000
         C           -0.127101146337    -1.997422079422    -1.135773164706    12.000000000000
         C            0.452898853663     0.247577920578    -1.796773164706    12.000000000000
         C            0.470898853663    -1.125422079422    -2.045773164706    12.000000000000
         O            1.062898853663    -1.613422079422    -3.184773164706    15.994914619570
         H           -0.922101146337     1.312577920578     1.832226835294     1.007825032230
         H           -1.243101146337    -0.330422079422     2.336226835294     1.007825032230
         H           -3.195101146337     1.129577920578     2.405226835294     1.007825032230
         H           -1.207101146337    -2.191422079422     0.708226835294     1.007825032230
         H           -0.179101146337     1.805577920578    -0.451773164706     1.007825032230
         H           -0.120101146337    -3.060422079422    -1.326773164706     1.007825032230
         H            0.921898853663     0.924577920578    -2.495773164706     1.007825032230
         H            1.010898853663    -2.574422079422    -3.240773164706     1.007825032230
         H           -3.516861146337    -0.249757079422     1.319486835294     1.007825032230
         H           -3.167611146337     1.435084920578     0.701826835294     1.007825032230
         C            2.050898853663     1.331577920578     2.911226835294    12.000000000000
         C            1.794898853663     2.666577920578     2.218226835294    12.000000000000
         H            2.937898853663     1.359577920578     3.540226835294     1.007825032230
         H            1.198898853663     1.098577920578     3.549226835294     1.007825032230
         H            2.150898853663     0.541577920578     2.167226835294     1.007825032230
         H            1.796898853663     3.441577920578     2.984226835294     1.007825032230
         H            0.821898853663     2.648577920578     1.735226835294     1.007825032230
         H            2.572041853663     2.850996920578     1.461896835294     1.007825032230

  Running in c1 symmetry.

  Rotational constants: A =      0.03924  B =      0.01953  C =      0.01523 [cm^-1]
  Rotational constants: A =   1176.35081  B =    585.35109  C =    456.59788 [MHz]
  Nuclear repulsion =  584.511601297654352

  Charge       = 0
  Multiplicity = 1
  Electrons    = 84
  Nalpha       = 42
  Nbeta        = 42

  ==> Algorithm <==

  SCF Algorithm Type is PK.
  DIIS enabled.
  MOM disabled.
  Fractional occupation disabled.
  Guess Type is SAD.
  Energy threshold   = 1.00e-06
  Density threshold  = 1.00e-10
  Integral threshold = 0.00e+00

  ==> Primary Basis <==

  Basis Set: CC-PVDZ
    Blend: CC-PVDZ
    Number of shells: 114
    Number of basis function: 234
    Number of Cartesian functions: 245
    Spherical Harmonics?: true
    Max angular momentum: 2

  ==> Pre-Iterations <==

   -------------------------------------------------------
    Irrep   Nso     Nmo     Nalpha   Nbeta   Ndocc  Nsocc
   -------------------------------------------------------
     A        234     234       0       0       0       0
   -------------------------------------------------------
    Total     234     234      42      42      42       0
   -------------------------------------------------------

  ==> Integral Setup <==

  Using integral reordering PK algorithm.
  Sizing the integral batches needed.
  Building batch lookup table.
   Calculation information:
      Number of atoms:                  27
      Number of AO shells:             114
      Number of primitives:            322
      Number of atomic orbitals:       245
      Number of basis functions:       234

      Integral cutoff                 1.00e-12
      Number of threads:                 1

	Batch   1 pq = [       0,    9405] index = [             0,44231715] size =     44231715
	Batch   2 pq = [    9405,   13301] index = [      44231715,88464951] size =     44233236
	Batch   3 pq = [   13301,   16290] index = [      88464951,132690195] size =     44225244
	Batch   4 pq = [   16290,   18810] index = [     132690195,176917455] size =     44227260
	Batch   5 pq = [   18810,   21030] index = [     176917455,221140965] size =     44223510
	Batch   6 pq = [   21030,   23037] index = [     221140965,265363203] size =     44222238
	Batch   7 pq = [   23037,   24883] index = [     265363203,309594286] size =     44231083
	Batch   8 pq = [   24883,   26601] index = [     309594286,353819901] size =     44225615
	Batch   9 pq = [   26601,   27495] index = [     353819901,378001260] size =     24181359
  Task number: 35
  Buffer size: 11059200
  Buffer per thread: 2
  We computed 20509901 shell quartets total.
  Whereas there are 21487290 unique shell quartets.

  ==> DiskJK: Disk-Based J/K Matrices <==

    J tasked:                  Yes
    K tasked:                  Yes
    wK tasked:                  No
    Memory [MiB]:              375
    Schwarz Cutoff:          1E-12

    OpenMP threads:              1

  Minimum eigenvalue in the overlap matrix is 3.3061145160E-04.
  Using Symmetric Orthogonalization.

  SCF Guess: Superposition of Atomic Densities via on-the-fly atomic UHF.

  ==> Iterations <==

                        Total Energy        Delta E     RMS |[F,P]|

   @RHF iter SAD:  -461.60772282554717   -4.61608e+02   0.00000e+00
   @RHF iter   1:  -462.60947848017560   -1.00176e+00   2.79813e-03 DIIS
   @RHF iter   2:  -462.84756188996073   -2.38083e-01   1.19315e-03 DIIS
   @RHF iter   3:  -462.88691816948170   -3.93563e-02   2.76560e-04 DIIS
   @RHF iter   4:  -462.89020842366313   -3.29025e-03   1.20323e-04 DIIS
   @RHF iter   5:  -462.89066962805970   -4.61204e-04   1.88998e-05 DIIS
   @RHF iter   6:  -462.89068877923910   -1.91512e-05   5.37255e-06 DIIS
   @RHF iter   7:  -462.89069019845022   -1.41921e-06   1.96736e-06 DIIS
   @RHF iter   8:  -462.89069039680419   -1.98354e-07   6.47693e-07 DIIS
   @RHF iter   9:  -462.89069042123128   -2.44271e-08   1.77202e-07 DIIS
   @RHF iter  10:  -462.89069042299514   -1.76385e-09   5.28953e-08 DIIS
   @RHF iter  11:  -462.89069042315361   -1.58479e-10   1.65538e-08 DIIS
   @RHF iter  12:  -462.89069042316271   -9.09495e-12   6.29494e-09 DIIS
   @RHF iter  13:  -462.89069042316851   -5.79803e-12   2.01164e-09 DIIS
   @RHF iter  14:  -462.89069042316868   -1.70530e-13   8.97605e-10 DIIS
   @RHF iter  15:  -462.89069042317118   -2.50111e-12   4.67856e-10 DIIS
   @RHF iter  16:  -462.89069042316964    1.53477e-12   1.72575e-10 DIIS
   @RHF iter  17:  -462.89069042316936    2.84217e-13   6.62319e-11 DIIS
  Energy and wave function converged.

  ==> Post-Iterations <==

    Orbital Energies [Eh]
    ---------------------

    Doubly Occupied:

       1A    -20.582906     2A    -11.301208     3A    -11.240704
       4A    -11.240327     5A    -11.234766     6A    -11.233003
       7A    -11.232610     8A    -11.229110     9A    -11.223393
      10A    -11.216661    11A    -11.212681    12A     -1.394536
      13A     -1.148917    14A     -1.056412    15A     -1.018242
      16A     -1.014874    17A     -0.977242    18A     -0.861923
      19A     -0.842270    20A     -0.834967    21A     -0.790747
      22A     -0.730221    23A     -0.669540    24A     -0.645252
      25A     -0.614106    26A     -0.600946    27A     -0.599208
      28A     -0.593509    29A     -0.584864    30A     -0.580970
      31A     -0.563445    32A     -0.547378    33A     -0.521815
      34A     -0.500426    35A     -0.498673    36A     -0.486172
      37A     -0.483970    38A     -0.475900    39A     -0.471813
      40A     -0.462099    41A     -0.336635    42A     -0.302139

    Virtual:

      43A      0.128195    44A      0.150112    45A      0.177746
      46A      0.180135    47A      0.196715    48A      0.205702
      49A      0.216558    50A      0.238682    51A      0.243489
      52A      0.251602    53A      0.257517    54A      0.262043
      55A      0.281143    56A      0.285570    57A      0.292137
      58A      0.298312    59A      0.307011    60A      0.347754
      61A      0.375741    62A      0.382276    63A      0.412313
      64A      0.416154    65A      0.430632    66A      0.468817
      67A      0.483499    68A      0.495920    69A      0.512050
      70A      0.566731    71A      0.593576    72A      0.596817
      73A      0.607034    74A      0.618655    75A      0.638695
      76A      0.652239    77A      0.670746    78A      0.683378
      79A      0.686715    80A      0.696715    81A      0.709726
      82A      0.719727    83A      0.733604    84A      0.741384
      85A      0.746557    86A      0.755818    87A      0.769264
      88A      0.796927    89A      0.809750    90A      0.828413
      91A      0.841823    92A      0.848642    93A      0.855270
      94A      0.865005    95A      0.880032    96A      0.881647
      97A      0.887993    98A      0.892620    99A      0.903406
     100A      0.907343   101A      0.908462   102A      0.921647
     103A      0.936863   104A      0.943251   105A      0.947973
     106A      0.953749   107A      0.955142   108A      0.973741
     109A      0.994927   110A      1.007333   111A      1.019317
     112A      1.021870   113A      1.064683   114A      1.084440
     115A      1.115400   116A      1.123544   117A      1.140025
     118A      1.142356   119A      1.150303   120A      1.168462
     121A      1.189358   122A      1.223932   123A      1.243219
     124A      1.262956   125A      1.269767   126A      1.282094
     127A      1.288388   128A      1.298173   129A      1.309448
     130A      1.346530   131A      1.356583   132A      1.375438
     133A      1.417013   134A      1.442189   135A      1.483607
     136A      1.488688   137A      1.494744   138A      1.502530
     139A      1.539190   140A      1.580521   141A      1.594636
     142A      1.619210   143A      1.624990   144A      1.675358
     145A      1.684131   146A      1.687983   147A      1.708419
     148A      1.727130   149A      1.740264   150A      1.766409
     151A      1.797777   152A      1.840688   153A      1.848693
     154A      1.865591   155A      1.872723   156A      1.877894
     157A      1.880940   158A      1.885595   159A      1.895794
     160A      1.898453   161A      1.912938   162A      1.917479
     163A      1.924845   164A      1.943365   165A      1.947687
     166A      1.950209   167A      1.956737   168A      1.957450
     169A      1.967121   170A      1.980559   171A      1.983703
     172A      2.001252   173A      2.012330   174A      2.018368
     175A      2.029993   176A      2.050327   177A      2.061289
     178A      2.073159   179A      2.082259   180A      2.095362
     181A      2.112269   182A      2.123675   183A      2.142745
     184A      2.150592   185A      2.165796   186A      2.192538
     187A      2.220538   188A      2.259940   189A      2.269491
     190A      2.293602   191A      2.312408   192A      2.321751
     193A      2.336306   194A      2.351668   195A      2.370137
     196A      2.445998   197A      2.454258   198A      2.457667
     199A      2.467930   200A      2.473757   201A      2.474347
     202A      2.493472   203A      2.526493   204A      2.535769
     205A      2.554555   206A      2.576165   207A      2.599760
     208A      2.634327   209A      2.636886   210A      2.749845
     211A      2.769628   212A      2.779881   213A      2.789432
     214A      2.803946   215A      2.810049   216A      2.848847
     217A      2.861171   218A      2.871805   219A      2.878854
     220A      2.929327   221A      2.953960   222A      2.961617
     223A      2.973169   224A      2.997017   225A      3.004060
     226A      3.079879   227A      3.167260   228A      3.243232
     229A      3.277615   230A      3.342228   231A      3.560290
     232A      3.656381   233A      3.961038   234A      4.183301

    Final Occupation by Irrep:
              A
    DOCC [    42 ]

  @RHF Final Energy:  -462.89069042316936

   => Energetics <=

    Nuclear Repulsion Energy =            584.5116012976543516
    One-Electron Energy =               -1786.4914274861489503
    Two-Electron Energy =                 739.0891357653252953
    Total Energy =                       -462.8906904231693034

Computation Completed

Properties will be evaluated at   0.000000,   0.000000,   0.000000 [a0]

Properties computed using the SCF density matrix

  Nuclear Dipole Moment: [e a0]
     X:    -0.1259      Y:     9.4999      Z:    16.1337

  Electronic Dipole Moment: [e a0]
     X:    -0.0846      Y:    -9.9503      Z:   -15.8134

  Dipole Moment: [e a0]
     X:    -0.2105      Y:    -0.4504      Z:     0.3203     Total:     0.5914

  Dipole Moment: [D]
     X:    -0.5351      Y:    -1.1447      Z:     0.8141     Total:     1.5032

*** tstop() called on ds3 at Sun Apr 26 20:35:26 2020
Module time:
	user time   =     146.43 seconds =       2.44 minutes
	system time =      55.24 seconds =       0.92 minutes
	total time  =        234 seconds =       3.90 minutes
Total time:
	user time   =     146.43 seconds =       2.44 minutes
	system time =      55.24 seconds =       0.92 minutes
	total time  =        234 seconds =       3.90 minutes
                                     G D M A

                                 by Anthony Stone

                           version 2.2.06, 22 June 2011

               Distributed Multipoles from Gaussian wavefunctions

Starting at 20:35:26 on 26 Apr 2020

Using SCF density matrix from file ./SSI/SSI-040TYR-079ILE-1-dimer.test.19704.fchk

                         Distributed Multipole Analysis

Standard DMA

Positions and radii in angstrom
Multipole moments in atomic units, ea_0^k for rank k

C          x = -1.419101  y =  0.392578  z =  1.540227 angstrom
           Maximum rank =  0   Radius =  0.650 angstrom
                   Q00  =  -0.010868

C          x = -2.930101  y =  0.670578  z =  1.456227 angstrom
           Maximum rank =  0   Radius =  0.650 angstrom
                   Q00  =  -0.256595

C          x = -0.776101  y = -0.128422  z =  0.277227 angstrom
           Maximum rank =  0   Radius =  0.650 angstrom
                   Q00  =  -0.150564

C          x = -0.746101  y = -1.501422  z =  0.013227 angstrom
           Maximum rank =  0   Radius =  0.650 angstrom
                   Q00  =   0.027485

C          x = -0.176101  y =  0.742578  z = -0.639773 angstrom
           Maximum rank =  0   Radius =  0.650 angstrom
                   Q00  =  -0.057252

C          x = -0.127101  y = -1.997422  z = -1.135773 angstrom
           Maximum rank =  0   Radius =  0.650 angstrom
                   Q00  =  -0.157525

C          x =  0.452899  y =  0.247578  z = -1.796773 angstrom
           Maximum rank =  0   Radius =  0.650 angstrom
                   Q00  =  -0.123133

C          x =  0.470899  y = -1.125422  z = -2.045773 angstrom
           Maximum rank =  0   Radius =  0.650 angstrom
                   Q00  =   0.334704

O          x =  1.062899  y = -1.613422  z = -3.184773 angstrom
           Maximum rank =  0   Radius =  0.650 angstrom
                   Q00  =  -0.682035

H          x = -0.922101  y =  1.312578  z =  1.832227 angstrom
           Maximum rank =  0   Radius =  0.325 angstrom
                   Q00  =   0.063973

H          x = -1.243101  y = -0.330422  z =  2.336227 angstrom
           Maximum rank =  0   Radius =  0.325 angstrom
                   Q00  =   0.066910

H          x = -3.195101  y =  1.129578  z =  2.405227 angstrom
           Maximum rank =  0   Radius =  0.325 angstrom
                   Q00  =   0.077725

H          x = -1.207101  y = -2.191422  z =  0.708227 angstrom
           Maximum rank =  0   Radius =  0.325 angstrom
                   Q00  =   0.067850

H          x = -0.179101  y =  1.805578  z = -0.451773 angstrom
           Maximum rank =  0   Radius =  0.325 angstrom
                   Q00  =   0.065175

H          x = -0.120101  y = -3.060422  z = -1.326773 angstrom
           Maximum rank =  0   Radius =  0.325 angstrom
                   Q00  =   0.071507

H          x =  0.921899  y =  0.924578  z = -2.495773 angstrom
           Maximum rank =  0   Radius =  0.325 angstrom
                   Q00  =   0.082427

H          x =  1.010899  y = -2.574422  z = -3.240773 angstrom
           Maximum rank =  0   Radius =  0.325 angstrom
                   Q00  =   0.407383

H          x = -3.516861  y = -0.249757  z =  1.319487 angstrom
           Maximum rank =  0   Radius =  0.325 angstrom
                   Q00  =   0.085915

H          x = -3.167611  y =  1.435085  z =  0.701827 angstrom
           Maximum rank =  0   Radius =  0.325 angstrom
                   Q00  =   0.085394

C          x =  2.050899  y =  1.331578  z =  2.911227 angstrom
           Maximum rank =  0   Radius =  0.650 angstrom
                   Q00  =  -0.243896

C          x =  1.794899  y =  2.666578  z =  2.218227 angstrom
           Maximum rank =  0   Radius =  0.650 angstrom
                   Q00  =  -0.224447

H          x =  2.937899  y =  1.359578  z =  3.540227 angstrom
           Maximum rank =  0   Radius =  0.325 angstrom
                   Q00  =   0.080496

H          x =  1.198899  y =  1.098578  z =  3.549227 angstrom
           Maximum rank =  0   Radius =  0.325 angstrom
                   Q00  =   0.072290

H          x =  2.150899  y =  0.541578  z =  2.167227 angstrom
           Maximum rank =  0   Radius =  0.325 angstrom
                   Q00  =   0.086827

H          x =  1.796899  y =  3.441578  z =  2.984227 angstrom
           Maximum rank =  0   Radius =  0.325 angstrom
                   Q00  =   0.075876

H          x =  0.821899  y =  2.648578  z =  1.735227 angstrom
           Maximum rank =  0   Radius =  0.325 angstrom
                   Q00  =   0.073755

H          x =  2.572042  y =  2.850997  z =  1.461897 angstrom
           Maximum rank =  0   Radius =  0.325 angstrom
                   Q00  =   0.080621

Total multipoles referred to origin at
           x =   0.000000,  y =    0.000000,  z =    0.000000 angstrom
                   Q00  =  -0.000000

Finished at 20:35:26 on 26 Apr 2020

  DMA results are available in the Python driver through the
	  variable('DMA DISTRIBUTED MULTIPOLES')
  and
	  variable('DMA TOTAL MULTIPOLES')
  commands.

    Psi4 stopped on: Sunday, 26 April 2020 08:35PM
    Psi4 wall time for execution: 0:03:54.21

*** Psi4 exiting successfully. Buy a developer a beer!
