                               Psi4 1.3.2 release

  ==> Input File <==

--------------------------------------------------------------------------
import numpy as np
set {scf_type pk
basis cc-pvdz
d_convergence 10
gdma_switch   0
gdma_limit    0
gdma_origin   [ 0.0,  0.0,  0.0 ]
}
molecule test {
    units Angstrom
    0 1
    --
    0 1
    C                1.691630417145128     1.573447182285237    -0.739467017011328
    C                2.927630417145128     1.996447182285237     0.064532982988672
    C                1.801630417145128     0.240447182285237    -1.445467017011328
    C                2.698630417145127     0.073447182285237    -2.499467017011327
    C                1.007630417145128    -0.844552817714763    -1.057467017011327
    C                2.812630417145128    -1.150552817714763    -3.152467017011327
    C                1.106630417145128    -2.073552817714763    -1.713467017011328
    C                2.007630417145128    -2.222552817714763    -2.766467017011327
    O                2.116630417145128    -3.417552817714764    -3.416467017011327
    H                0.825630417145128     1.538447182285237    -0.086467017011328
    H                1.484630417145128     2.344447182285237    -1.483467017011327
    H                3.644630417145128     2.465447182285237    -0.610467017011328
    H                3.321630417145128     0.903447182285237    -2.809467017011327
    H                0.299630417145128    -0.730552817714763    -0.247467017011328
    H                3.516630417145128    -1.264552817714763    -3.964467017011327
    H                0.490630417145128    -2.908552817714764    -1.412467017011328
    H                2.771630417145128    -3.382552817714763    -4.124467017011328
    H                3.384447417145128     1.132647182285237     0.569674582988672
    H                2.621074417145128     2.726965182285237     0.827662902988672
    C               -0.303369582854872    -0.749552817714763     3.622532982988672
    C               -0.950369582854872     1.049447182285237     1.993532982988673
    C               -1.334369582854872     0.027447182285237     2.852532982988672
    C               -1.901369582854872     1.753447182285237     1.264532982988673
    C               -3.249369582854872     1.433447182285237     1.400532982988673
    C               -2.683369582854872    -0.280552817714763     2.971532982988673
    C               -3.642369582854872     0.414447182285237     2.253532982988673
    O               -4.194369582854872     2.120447182285237     0.701532982988673
    H                0.091630417145128     1.309447182285237     1.916532982988673
    H               -1.597369582854872     2.548447182285236     0.600532982988672
    H               -0.658369582854872    -0.928552817714763     4.636532982988672
    H                0.586630417145128    -0.123552817714763     3.706532982988673
    H               -2.965369582854872    -1.078552817714763     3.631532982988673
    H               -3.800369582854872     2.796447182285237     0.137532982988672
    H               -4.690369582854871     0.169447182285237     2.350532982988673
    H               -0.039864582854872    -1.705206817714763     3.145782982988672

}
e, wfn = energy('scf', return_wfn=True)
gdma(wfn)
dmavals = variable('DMA DISTRIBUTED MULTIPOLES')
charges = np.array(dmavals)
print(charges)
np.save('SSI-008TYR-052TYR-1-dimer.npy', np.array(charges))--------------------------------------------------------------------------

*** tstart() called on ds3
*** at Tue Apr 28 17:05:31 2020

   => Loading Basis Set <=

    Name: CC-PVDZ
    Role: ORBITAL
    Keyword: BASIS
    atoms 1-8, 20-26   entry C          line   138 file /theoryfs2/ds/metcalf/miniconda2/envs/tf2gpu/share/psi4/basis/cc-pvdz.gbs
    atoms 9, 27        entry O          line   198 file /theoryfs2/ds/metcalf/miniconda2/envs/tf2gpu/share/psi4/basis/cc-pvdz.gbs
    atoms 10-19, 28-35 entry H          line    22 file /theoryfs2/ds/metcalf/miniconda2/envs/tf2gpu/share/psi4/basis/cc-pvdz.gbs

         ---------------------------------------------------------
                                   SCF
               by Justin Turney, Rob Parrish, Andy Simmonett
                          and Daniel G. A. Smith
                              RHF Reference
                        1 Threads,    500 MiB Core
         ---------------------------------------------------------

  ==> Geometry <==

    Molecular point group: c1
    Full point group: C1

    Geometry (in Angstrom), charge = 0, multiplicity = 1:

       Center              X                  Y                   Z               Mass
    ------------   -----------------  -----------------  -----------------  -----------------
         C            1.691630417145     1.573447182285    -0.739467017011    12.000000000000
         C            2.927630417145     1.996447182285     0.064532982989    12.000000000000
         C            1.801630417145     0.240447182285    -1.445467017011    12.000000000000
         C            2.698630417145     0.073447182285    -2.499467017011    12.000000000000
         C            1.007630417145    -0.844552817715    -1.057467017011    12.000000000000
         C            2.812630417145    -1.150552817715    -3.152467017011    12.000000000000
         C            1.106630417145    -2.073552817715    -1.713467017011    12.000000000000
         C            2.007630417145    -2.222552817715    -2.766467017011    12.000000000000
         O            2.116630417145    -3.417552817715    -3.416467017011    15.994914619570
         H            0.825630417145     1.538447182285    -0.086467017011     1.007825032230
         H            1.484630417145     2.344447182285    -1.483467017011     1.007825032230
         H            3.644630417145     2.465447182285    -0.610467017011     1.007825032230
         H            3.321630417145     0.903447182285    -2.809467017011     1.007825032230
         H            0.299630417145    -0.730552817715    -0.247467017011     1.007825032230
         H            3.516630417145    -1.264552817715    -3.964467017011     1.007825032230
         H            0.490630417145    -2.908552817715    -1.412467017011     1.007825032230
         H            2.771630417145    -3.382552817715    -4.124467017011     1.007825032230
         H            3.384447417145     1.132647182285     0.569674582989     1.007825032230
         H            2.621074417145     2.726965182285     0.827662902989     1.007825032230
         C           -0.303369582855    -0.749552817715     3.622532982989    12.000000000000
         C           -0.950369582855     1.049447182285     1.993532982989    12.000000000000
         C           -1.334369582855     0.027447182285     2.852532982989    12.000000000000
         C           -1.901369582855     1.753447182285     1.264532982989    12.000000000000
         C           -3.249369582855     1.433447182285     1.400532982989    12.000000000000
         C           -2.683369582855    -0.280552817715     2.971532982989    12.000000000000
         C           -3.642369582855     0.414447182285     2.253532982989    12.000000000000
         O           -4.194369582855     2.120447182285     0.701532982989    15.994914619570
         H            0.091630417145     1.309447182285     1.916532982989     1.007825032230
         H           -1.597369582855     2.548447182285     0.600532982989     1.007825032230
         H           -0.658369582855    -0.928552817715     4.636532982989     1.007825032230
         H            0.586630417145    -0.123552817715     3.706532982989     1.007825032230
         H           -2.965369582855    -1.078552817715     3.631532982989     1.007825032230
         H           -3.800369582855     2.796447182285     0.137532982989     1.007825032230
         H           -4.690369582855     0.169447182285     2.350532982989     1.007825032230
         H           -0.039864582855    -1.705206817715     3.145782982989     1.007825032230

  Running in c1 symmetry.

  Rotational constants: A =      0.02140  B =      0.00622  C =      0.00596 [cm^-1]
  Rotational constants: A =    641.44535  B =    186.50058  C =    178.62019 [MHz]
  Nuclear repulsion = 1085.294777159736668

  Charge       = 0
  Multiplicity = 1
  Electrons    = 124
  Nalpha       = 62
  Nbeta        = 62

  ==> Algorithm <==

  SCF Algorithm Type is PK.
  DIIS enabled.
  MOM disabled.
  Fractional occupation disabled.
  Guess Type is SAD.
  Energy threshold   = 1.00e-06
  Density threshold  = 1.00e-10
  Integral threshold = 0.00e+00

  ==> Primary Basis <==

  Basis Set: CC-PVDZ
    Blend: CC-PVDZ
    Number of shells: 156
    Number of basis function: 328
    Number of Cartesian functions: 345
    Spherical Harmonics?: true
    Max angular momentum: 2

  ==> Pre-Iterations <==

   -------------------------------------------------------
    Irrep   Nso     Nmo     Nalpha   Nbeta   Ndocc  Nsocc
   -------------------------------------------------------
     A        328     328       0       0       0       0
   -------------------------------------------------------
    Total     328     328      62      62      62       0
   -------------------------------------------------------

  ==> Integral Setup <==

  Using integral reordering PK algorithm.
  Sizing the integral batches needed.
  Building batch lookup table.
   Calculation information:
      Number of atoms:                  35
      Number of AO shells:             156
      Number of primitives:            464
      Number of atomic orbitals:       345
      Number of basis functions:       328

      Integral cutoff                 1.00e-12
      Number of threads:                 1

	Batch   1 pq = [       0,    9405] index = [             0,44231715] size =     44231715
	Batch   2 pq = [    9405,   13301] index = [      44231715,88464951] size =     44233236
	Batch   3 pq = [   13301,   16290] index = [      88464951,132690195] size =     44225244
	Batch   4 pq = [   16290,   18810] index = [     132690195,176917455] size =     44227260
	Batch   5 pq = [   18810,   21030] index = [     176917455,221140965] size =     44223510
	Batch   6 pq = [   21030,   23037] index = [     221140965,265363203] size =     44222238
	Batch   7 pq = [   23037,   24883] index = [     265363203,309594286] size =     44231083
	Batch   8 pq = [   24883,   26601] index = [     309594286,353819901] size =     44225615
	Batch   9 pq = [   26601,   28214] index = [     353819901,398029005] size =     44209104
	Batch  10 pq = [   28214,   29740] index = [     398029005,442248670] size =     44219665
	Batch  11 pq = [   29740,   31191] index = [     442248670,486454836] size =     44206166
	Batch  12 pq = [   31191,   32578] index = [     486454836,530679331] size =     44224495
	Batch  13 pq = [   32578,   33908] index = [     530679331,574893186] size =     44213855
	Batch  14 pq = [   33908,   35188] index = [     574893186,619115266] size =     44222080
	Batch  15 pq = [   35188,   36423] index = [     619115266,663335676] size =     44220410
	Batch  16 pq = [   36423,   37617] index = [     663335676,707538153] size =     44202477
	Batch  17 pq = [   37617,   38775] index = [     707538153,751769700] size =     44231547
	Batch  18 pq = [   38775,   39899] index = [     751769700,795985050] size =     44215350
	Batch  19 pq = [   39899,   40992] index = [     795985050,840192528] size =     44207478
	Batch  20 pq = [   40992,   42057] index = [     840192528,884416653] size =     44224125
	Batch  21 pq = [   42057,   43095] index = [     884416653,928611060] size =     44194407
	Batch  22 pq = [   43095,   44109] index = [     928611060,972823995] size =     44212935
	Batch  23 pq = [   44109,   45100] index = [     972823995,1017027550] size =     44203555
	Batch  24 pq = [   45100,   46070] index = [    1017027550,1061245485] size =     44217935
	Batch  25 pq = [   46070,   47020] index = [    1061245485,1105463710] size =     44218225
	Batch  26 pq = [   47020,   47951] index = [    1105463710,1149673176] size =     44209466
	Batch  27 pq = [   47951,   48864] index = [    1149673176,1193869680] size =     44196504
	Batch  28 pq = [   48864,   49761] index = [    1193869680,1238103441] size =     44233761
	Batch  29 pq = [   49761,   50642] index = [    1238103441,1282331403] size =     44227962
	Batch  30 pq = [   50642,   51508] index = [    1282331403,1326562786] size =     44231383
	Batch  31 pq = [   51508,   52359] index = [    1326562786,1370758620] size =     44195834
	Batch  32 pq = [   52359,   53197] index = [    1370758620,1414987003] size =     44228383
	Batch  33 pq = [   53197,   53956] index = [    1414987003,1455651946] size =     40664943
  Task number: 132
  Buffer size: 11059200
  Buffer per thread: 2
  We computed 71335015 shell quartets total.
  Whereas there are 74988381 unique shell quartets.

  ==> DiskJK: Disk-Based J/K Matrices <==

    J tasked:                  Yes
    K tasked:                  Yes
    wK tasked:                  No
    Memory [MiB]:              375
    Schwarz Cutoff:          1E-12

    OpenMP threads:              1

  Minimum eigenvalue in the overlap matrix is 3.0271658936E-04.
  Using Symmetric Orthogonalization.

  SCF Guess: Superposition of Atomic Densities via on-the-fly atomic UHF.

  ==> Iterations <==

                        Total Energy        Delta E     RMS |[F,P]|

   @RHF iter SAD:  -727.06207678417638   -7.27062e+02   0.00000e+00
   @RHF iter   1:  -727.90134710959489   -8.39270e-01   2.33253e-03 DIIS
   @RHF iter   2:  -728.22483700936118   -3.23490e-01   9.86155e-04 DIIS
   @RHF iter   3:  -728.27590818397789   -5.10712e-02   2.38464e-04 DIIS
   @RHF iter   4:  -728.28037470045672   -4.46652e-03   1.02749e-04 DIIS
   @RHF iter   5:  -728.28104142714437   -6.66727e-04   1.62882e-05 DIIS
   @RHF iter   6:  -728.28106977461982   -2.83475e-05   5.76568e-06 DIIS
   @RHF iter   7:  -728.28107296824317   -3.19362e-06   2.02996e-06 DIIS
   @RHF iter   8:  -728.28107346762977   -4.99387e-07   6.98516e-07 DIIS
   @RHF iter   9:  -728.28107354329779   -7.56680e-08   2.74826e-07 DIIS
   @RHF iter  10:  -728.28107355693840   -1.36406e-08   1.22103e-07 DIIS
   @RHF iter  11:  -728.28107356129476   -4.35637e-09   5.73690e-08 DIIS
   @RHF iter  12:  -728.28107356227065   -9.75888e-10   2.58028e-08 DIIS
   @RHF iter  13:  -728.28107356242765   -1.57002e-10   7.53751e-09 DIIS
   @RHF iter  14:  -728.28107356243731   -9.66338e-12   2.39162e-09 DIIS
   @RHF iter  15:  -728.28107356243902   -1.70530e-12   8.13952e-10 DIIS
   @RHF iter  16:  -728.28107356244107   -2.04636e-12   3.76341e-10 DIIS
   @RHF iter  17:  -728.28107356243777    3.29692e-12   1.67430e-10 DIIS
   @RHF iter  18:  -728.28107356243822   -4.54747e-13   8.08637e-11 DIIS
  Energy and wave function converged.

  ==> Post-Iterations <==

    Orbital Energies [Eh]
    ---------------------

    Doubly Occupied:

       1A    -20.583818     2A    -20.582148     3A    -11.299978
       4A    -11.299192     5A    -11.239157     6A    -11.238298
       7A    -11.236918     8A    -11.236545     9A    -11.234654
      10A    -11.232854    11A    -11.232103    12A    -11.230495
      13A    -11.230282    14A    -11.229180    15A    -11.228315
      16A    -11.228194    17A    -11.225518    18A     -1.400902
      19A     -1.397429    20A     -1.155693    21A     -1.149396
      22A     -1.056922    23A     -1.040416    24A     -1.022095
      25A     -1.015782    26A     -0.976372    27A     -0.927687
      28A     -0.861247    29A     -0.848466    30A     -0.842616
      31A     -0.804327    32A     -0.789863    33A     -0.734593
      34A     -0.729528    35A     -0.672101    36A     -0.670523
      37A     -0.643689    38A     -0.642703    39A     -0.615526
      40A     -0.608051    41A     -0.598445    42A     -0.589744
      43A     -0.588255    44A     -0.583901    45A     -0.582499
      46A     -0.573293    47A     -0.572149    48A     -0.569375
      49A     -0.543918    50A     -0.526279    51A     -0.520345
      52A     -0.500063    53A     -0.498258    54A     -0.487247
      55A     -0.478602    56A     -0.472897    57A     -0.468190
      58A     -0.462605    59A     -0.341766    60A     -0.337046
      61A     -0.303420    62A     -0.300081

    Virtual:

      63A      0.126951    64A      0.131482    65A      0.152464
      66A      0.152867    67A      0.169547    68A      0.178864
      69A      0.180534    70A      0.195335    71A      0.203501
      72A      0.212973    73A      0.222549    74A      0.234639
      75A      0.243677    76A      0.258132    77A      0.264011
      78A      0.265961    79A      0.277068    80A      0.280120
      81A      0.283607    82A      0.302526    83A      0.321469
      84A      0.337130    85A      0.355511    86A      0.369248
      87A      0.384724    88A      0.396047    89A      0.413522
      90A      0.426675    91A      0.431543    92A      0.455179
      93A      0.465699    94A      0.482037    95A      0.492559
      96A      0.498821    97A      0.506537    98A      0.510726
      99A      0.536805   100A      0.610575   101A      0.612549
     102A      0.622032   103A      0.628069   104A      0.636828
     105A      0.645821   106A      0.655522   107A      0.670495
     108A      0.672811   109A      0.680781   110A      0.684268
     111A      0.695146   112A      0.697678   113A      0.703709
     114A      0.711407   115A      0.723563   116A      0.733153
     117A      0.736369   118A      0.737836   119A      0.744526
     120A      0.749328   121A      0.760143   122A      0.768832
     123A      0.775913   124A      0.778403   125A      0.785266
     126A      0.794764   127A      0.806223   128A      0.810128
     129A      0.818777   130A      0.837945   131A      0.840349
     132A      0.847546   133A      0.855313   134A      0.862900
     135A      0.868921   136A      0.870972   137A      0.876025
     138A      0.882708   139A      0.889261   140A      0.893747
     141A      0.897526   142A      0.902275   143A      0.906564
     144A      0.908067   145A      0.924010   146A      0.932386
     147A      0.937374   148A      0.940876   149A      0.950847
     150A      0.952986   151A      0.973808   152A      0.979782
     153A      0.990078   154A      1.007059   155A      1.022600
     156A      1.036539   157A      1.041382   158A      1.053844
     159A      1.077163   160A      1.117302   161A      1.135040
     162A      1.138385   163A      1.142982   164A      1.147822
     165A      1.162336   166A      1.168591   167A      1.186925
     168A      1.192827   169A      1.203244   170A      1.216824
     171A      1.236981   172A      1.244836   173A      1.247547
     174A      1.260205   175A      1.264614   176A      1.281914
     177A      1.285923   178A      1.287632   179A      1.294534
     180A      1.308045   181A      1.309696   182A      1.314001
     183A      1.324328   184A      1.336339   185A      1.352535
     186A      1.356902   187A      1.361831   188A      1.365169
     189A      1.387228   190A      1.401175   191A      1.435822
     192A      1.446868   193A      1.483341   194A      1.497204
     195A      1.506008   196A      1.512488   197A      1.529337
     198A      1.544567   199A      1.563246   200A      1.576614
     201A      1.612545   202A      1.618694   203A      1.619976
     204A      1.636642   205A      1.662949   206A      1.683423
     207A      1.696960   208A      1.708541   209A      1.722341
     210A      1.734011   211A      1.736765   212A      1.753413
     213A      1.769826   214A      1.785388   215A      1.796472
     216A      1.803893   217A      1.809837   218A      1.821005
     219A      1.846342   220A      1.868332   221A      1.874341
     222A      1.887599   223A      1.890730   224A      1.897469
     225A      1.901252   226A      1.903738   227A      1.911041
     228A      1.917252   229A      1.918606   230A      1.926496
     231A      1.929842   232A      1.939597   233A      1.946534
     234A      1.949176   235A      1.956970   236A      1.969268
     237A      1.971846   238A      1.973857   239A      1.985987
     240A      1.993616   241A      2.002258   242A      2.017898
     243A      2.036381   244A      2.042155   245A      2.047737
     246A      2.051829   247A      2.060220   248A      2.066926
     249A      2.070516   250A      2.072425   251A      2.080890
     252A      2.085701   253A      2.097053   254A      2.131486
     255A      2.141660   256A      2.147820   257A      2.163918
     258A      2.180884   259A      2.183220   260A      2.196549
     261A      2.212245   262A      2.231924   263A      2.252739
     264A      2.264162   265A      2.270632   266A      2.270875
     267A      2.283953   268A      2.301195   269A      2.304595
     270A      2.320732   271A      2.336189   272A      2.342396
     273A      2.365548   274A      2.370362   275A      2.418176
     276A      2.430276   277A      2.451618   278A      2.452864
     279A      2.465370   280A      2.471037   281A      2.494061
     282A      2.499078   283A      2.516503   284A      2.532593
     285A      2.537962   286A      2.543529   287A      2.555593
     288A      2.581483   289A      2.615635   290A      2.640901
     291A      2.643397   292A      2.649526   293A      2.747802
     294A      2.764472   295A      2.766953   296A      2.779351
     297A      2.793856   298A      2.803618   299A      2.818139
     300A      2.832419   301A      2.843218   302A      2.862004
     303A      2.879459   304A      2.906889   305A      2.930536
     306A      2.962697   307A      2.966343   308A      2.986938
     309A      3.005881   310A      3.036255   311A      3.092658
     312A      3.099622   313A      3.116079   314A      3.168509
     315A      3.249851   316A      3.250647   317A      3.284789
     318A      3.302872   319A      3.344746   320A      3.346167
     321A      3.574138   322A      3.578777   323A      3.669365
     324A      3.686265   325A      3.971686   326A      3.978297
     327A      4.187286   328A      4.196780

    Final Occupation by Irrep:
              A
    DOCC [    62 ]

  @RHF Final Energy:  -728.28107356243822

   => Energetics <=

    Nuclear Repulsion Energy =           1085.2947771597366682
    One-Electron Energy =               -3144.5677934102204745
    Two-Electron Energy =                1330.9919426880458104
    Total Energy =                       -728.2810735624382232

Computation Completed

Properties will be evaluated at   0.000000,   0.000000,   0.000000 [a0]

Properties computed using the SCF density matrix

  Nuclear Dipole Moment: [e a0]
     X:     8.6964      Y:     5.4434      Z:     6.3469

  Electronic Dipole Moment: [e a0]
     X:    -7.9207      Y:    -4.8983      Z:    -6.6645

  Dipole Moment: [e a0]
     X:     0.7757      Y:     0.5451      Z:    -0.3176     Total:     0.9999

  Dipole Moment: [D]
     X:     1.9717      Y:     1.3855      Z:    -0.8074     Total:     2.5415

*** tstop() called on ds3 at Tue Apr 28 19:51:33 2020
Module time:
	user time   =     635.53 seconds =      10.59 minutes
	system time =     275.20 seconds =       4.59 minutes
	total time  =       9962 seconds =     166.03 minutes
Total time:
	user time   =     635.53 seconds =      10.59 minutes
	system time =     275.20 seconds =       4.59 minutes
	total time  =       9962 seconds =     166.03 minutes
                                     G D M A

                                 by Anthony Stone

                           version 2.2.06, 22 June 2011

               Distributed Multipoles from Gaussian wavefunctions

Starting at 19:51:33 on 28 Apr 2020

Using SCF density matrix from file ./SSI/SSI-008TYR-052TYR-1-dimer.test.25662.fchk

                         Distributed Multipole Analysis

Standard DMA

Positions and radii in angstrom
Multipole moments in atomic units, ea_0^k for rank k

C          x =  1.691630  y =  1.573447  z = -0.739467 angstrom
           Maximum rank =  0   Radius =  0.650 angstrom
                   Q00  =  -0.034036

C          x =  2.927630  y =  1.996447  z =  0.064533 angstrom
           Maximum rank =  0   Radius =  0.650 angstrom
                   Q00  =  -0.254752

C          x =  1.801630  y =  0.240447  z = -1.445467 angstrom
           Maximum rank =  0   Radius =  0.650 angstrom
                   Q00  =  -0.142487

C          x =  2.698630  y =  0.073447  z = -2.499467 angstrom
           Maximum rank =  0   Radius =  0.650 angstrom
                   Q00  =   0.018837

C          x =  1.007630  y = -0.844553  z = -1.057467 angstrom
           Maximum rank =  0   Radius =  0.650 angstrom
                   Q00  =  -0.015218

C          x =  2.812630  y = -1.150553  z = -3.152467 angstrom
           Maximum rank =  0   Radius =  0.650 angstrom
                   Q00  =  -0.180181

C          x =  1.106630  y = -2.073553  z = -1.713467 angstrom
           Maximum rank =  0   Radius =  0.650 angstrom
                   Q00  =  -0.120216

C          x =  2.007630  y = -2.222553  z = -2.766467 angstrom
           Maximum rank =  0   Radius =  0.650 angstrom
                   Q00  =   0.315205

O          x =  2.116630  y = -3.417553  z = -3.416467 angstrom
           Maximum rank =  0   Radius =  0.650 angstrom
                   Q00  =  -0.675692

H          x =  0.825630  y =  1.538447  z = -0.086467 angstrom
           Maximum rank =  0   Radius =  0.325 angstrom
                   Q00  =   0.062911

H          x =  1.484630  y =  2.344447  z = -1.483467 angstrom
           Maximum rank =  0   Radius =  0.325 angstrom
                   Q00  =   0.068671

H          x =  3.644630  y =  2.465447  z = -0.610467 angstrom
           Maximum rank =  0   Radius =  0.325 angstrom
                   Q00  =   0.083599

H          x =  3.321630  y =  0.903447  z = -2.809467 angstrom
           Maximum rank =  0   Radius =  0.325 angstrom
                   Q00  =   0.066112

H          x =  0.299630  y = -0.730553  z = -0.247467 angstrom
           Maximum rank =  0   Radius =  0.325 angstrom
                   Q00  =   0.076174

H          x =  3.516630  y = -1.264553  z = -3.964467 angstrom
           Maximum rank =  0   Radius =  0.325 angstrom
                   Q00  =   0.070421

H          x =  0.490630  y = -2.908553  z = -1.412467 angstrom
           Maximum rank =  0   Radius =  0.325 angstrom
                   Q00  =   0.081059

H          x =  2.771630  y = -3.382553  z = -4.124467 angstrom
           Maximum rank =  0   Radius =  0.325 angstrom
                   Q00  =   0.406898

H          x =  3.384447  y =  1.132647  z =  0.569675 angstrom
           Maximum rank =  0   Radius =  0.325 angstrom
                   Q00  =   0.086727

H          x =  2.621074  y =  2.726965  z =  0.827663 angstrom
           Maximum rank =  0   Radius =  0.325 angstrom
                   Q00  =   0.084607

C          x = -0.303370  y = -0.749553  z =  3.622533 angstrom
           Maximum rank =  0   Radius =  0.650 angstrom
                   Q00  =  -0.191145

C          x = -0.950370  y =  1.049447  z =  1.993533 angstrom
           Maximum rank =  0   Radius =  0.650 angstrom
                   Q00  =  -0.031413

C          x = -1.334370  y =  0.027447  z =  2.852533 angstrom
           Maximum rank =  0   Radius =  0.650 angstrom
                   Q00  =  -0.136574

C          x = -1.901370  y =  1.753447  z =  1.264533 angstrom
           Maximum rank =  0   Radius =  0.650 angstrom
                   Q00  =  -0.205197

C          x = -3.249370  y =  1.433447  z =  1.400533 angstrom
           Maximum rank =  0   Radius =  0.650 angstrom
                   Q00  =   0.336551

C          x = -2.683370  y = -0.280553  z =  2.971533 angstrom
           Maximum rank =  0   Radius =  0.650 angstrom
                   Q00  =   0.033956

C          x = -3.642370  y =  0.414447  z =  2.253533 angstrom
           Maximum rank =  0   Radius =  0.650 angstrom
                   Q00  =  -0.109038

O          x = -4.194370  y =  2.120447  z =  0.701533 angstrom
           Maximum rank =  0   Radius =  0.650 angstrom
                   Q00  =  -0.678329

H          x =  0.091630  y =  1.309447  z =  1.916533 angstrom
           Maximum rank =  0   Radius =  0.325 angstrom
                   Q00  =   0.068182

H          x = -1.597370  y =  2.548447  z =  0.600533 angstrom
           Maximum rank =  0   Radius =  0.325 angstrom
                   Q00  =   0.073198

H          x = -0.658370  y = -0.928553  z =  4.636533 angstrom
           Maximum rank =  0   Radius =  0.325 angstrom
                   Q00  =   0.097560

H          x =  0.586630  y = -0.123553  z =  3.706533 angstrom
           Maximum rank =  0   Radius =  0.325 angstrom
                   Q00  =   0.093422

H          x = -2.965370  y = -1.078553  z =  3.631533 angstrom
           Maximum rank =  0   Radius =  0.325 angstrom
                   Q00  =   0.060668

H          x = -3.800370  y =  2.796447  z =  0.137533 angstrom
           Maximum rank =  0   Radius =  0.325 angstrom
                   Q00  =   0.406688

H          x = -4.690370  y =  0.169447  z =  2.350533 angstrom
           Maximum rank =  0   Radius =  0.325 angstrom
                   Q00  =   0.081723

H          x = -0.039865  y = -1.705207  z =  3.145783 angstrom
           Maximum rank =  0   Radius =  0.325 angstrom
                   Q00  =   0.101108

Total multipoles referred to origin at
           x =   0.000000,  y =    0.000000,  z =    0.000000 angstrom
                   Q00  =  -0.000000

Finished at 19:51:33 on 28 Apr 2020

  DMA results are available in the Python driver through the
	  variable('DMA DISTRIBUTED MULTIPOLES')
  and
	  variable('DMA TOTAL MULTIPOLES')
  commands.

    Psi4 stopped on: Tuesday, 28 April 2020 07:51PM
    Psi4 wall time for execution: 2:46:01.90

*** Psi4 exiting successfully. Buy a developer a beer!
