                               Psi4 1.3.2 release

  ==> Input File <==

--------------------------------------------------------------------------
import numpy as np
set {scf_type pk
basis cc-pvdz
d_convergence 10
gdma_switch   0
gdma_limit    0
gdma_origin   [ 0.0,  0.0,  0.0 ]
}
molecule test {
    units Angstrom
    0 1
    --
    0 1
    C                0.452951719328324     1.812867097069470     2.610978859347922
    C                0.589951719328324     0.247867097069470    -0.799021140652078
    C                0.960951719328324     0.251867097069470     0.572978859347922
    C                0.346951719328324     1.398867097069471     1.179978859347922
    C               -0.346048280671676     2.028867097069470     0.190978859347922
    C                1.017951719328324    -0.733132902930530    -1.686021140652078
    C                1.835951719328324    -1.736132902930529    -1.190021140652078
    C                1.788951719328324    -0.774132902930530     1.047978859347922
    C                2.214951719328324    -1.763132902930529     0.160978859347922
    N               -0.206048280671676     1.343867097069471    -0.994021140652078
    H               -0.520048280671676     1.684867097069471    -1.907021140652078
    H                0.744951719328324    -0.690132902930530    -2.730021140652078
    H               -0.909048280671676     2.945867097069470     0.320978859347922
    H                2.251951719328324    -2.470132902930530    -1.856021140652078
    H                2.117951719328324    -0.773132902930530     2.072978859347922
    H                0.474951719328324     0.924867097069470     3.233978859347922
    H               -0.444048280671676     2.380867097069471     2.851978859347922
    H                2.858951719328324    -2.545132902930530     0.523978859347922
    H                1.323801719328324     2.445495097069470     2.837688859347922
    C               -3.169048280671676    -0.513132902930530    -0.581021140652078
    C               -4.245048280671677    -1.590132902930530    -0.521021140652078
    H               -2.922048280671676    -0.281132902930530    -1.615021140652078
    H               -3.540048280671676     0.397867097069470    -0.113021140652078
    H               -2.272048280671676    -0.841132902930530    -0.055021140652078
    H               -5.107048280671676    -1.267132902930530    -1.103021140652078
    H               -3.854628280671677    -2.540341902930530    -0.914310140652078
    H               -4.587358280671676    -1.737769902930530     0.513881859347922

}
e, wfn = energy('scf', return_wfn=True)
gdma(wfn)
dmavals = variable('DMA DISTRIBUTED MULTIPOLES')
charges = np.array(dmavals)
print(charges)
np.save('SSI-104TRP-168LEU-1-dimer.npy', np.array(charges))--------------------------------------------------------------------------

*** tstart() called on ds3
*** at Mon Apr 27 18:11:25 2020

   => Loading Basis Set <=

    Name: CC-PVDZ
    Role: ORBITAL
    Keyword: BASIS
    atoms 1-9, 20-21   entry C          line   138 file /theoryfs2/ds/metcalf/miniconda2/envs/tf2gpu/share/psi4/basis/cc-pvdz.gbs
    atoms 10           entry N          line   168 file /theoryfs2/ds/metcalf/miniconda2/envs/tf2gpu/share/psi4/basis/cc-pvdz.gbs
    atoms 11-19, 22-27 entry H          line    22 file /theoryfs2/ds/metcalf/miniconda2/envs/tf2gpu/share/psi4/basis/cc-pvdz.gbs

         ---------------------------------------------------------
                                   SCF
               by Justin Turney, Rob Parrish, Andy Simmonett
                          and Daniel G. A. Smith
                              RHF Reference
                        1 Threads,    500 MiB Core
         ---------------------------------------------------------

  ==> Geometry <==

    Molecular point group: c1
    Full point group: C1

    Geometry (in Angstrom), charge = 0, multiplicity = 1:

       Center              X                  Y                   Z               Mass
    ------------   -----------------  -----------------  -----------------  -----------------
         C            0.452951719328     1.812867097069     2.610978859348    12.000000000000
         C            0.589951719328     0.247867097069    -0.799021140652    12.000000000000
         C            0.960951719328     0.251867097069     0.572978859348    12.000000000000
         C            0.346951719328     1.398867097069     1.179978859348    12.000000000000
         C           -0.346048280672     2.028867097069     0.190978859348    12.000000000000
         C            1.017951719328    -0.733132902931    -1.686021140652    12.000000000000
         C            1.835951719328    -1.736132902931    -1.190021140652    12.000000000000
         C            1.788951719328    -0.774132902931     1.047978859348    12.000000000000
         C            2.214951719328    -1.763132902931     0.160978859348    12.000000000000
         N           -0.206048280672     1.343867097069    -0.994021140652    14.003074004430
         H           -0.520048280672     1.684867097069    -1.907021140652     1.007825032230
         H            0.744951719328    -0.690132902931    -2.730021140652     1.007825032230
         H           -0.909048280672     2.945867097069     0.320978859348     1.007825032230
         H            2.251951719328    -2.470132902931    -1.856021140652     1.007825032230
         H            2.117951719328    -0.773132902931     2.072978859348     1.007825032230
         H            0.474951719328     0.924867097069     3.233978859348     1.007825032230
         H           -0.444048280672     2.380867097069     2.851978859348     1.007825032230
         H            2.858951719328    -2.545132902931     0.523978859348     1.007825032230
         H            1.323801719328     2.445495097069     2.837688859348     1.007825032230
         C           -3.169048280672    -0.513132902931    -0.581021140652    12.000000000000
         C           -4.245048280672    -1.590132902931    -0.521021140652    12.000000000000
         H           -2.922048280672    -0.281132902931    -1.615021140652     1.007825032230
         H           -3.540048280672     0.397867097069    -0.113021140652     1.007825032230
         H           -2.272048280672    -0.841132902931    -0.055021140652     1.007825032230
         H           -5.107048280672    -1.267132902931    -1.103021140652     1.007825032230
         H           -3.854628280672    -2.540341902931    -0.914310140652     1.007825032230
         H           -4.587358280672    -1.737769902931     0.513881859348     1.007825032230

  Running in c1 symmetry.

  Rotational constants: A =      0.03107  B =      0.02162  C =      0.01637 [cm^-1]
  Rotational constants: A =    931.43370  B =    648.06767  C =    490.81348 [MHz]
  Nuclear repulsion =  658.655707246446354

  Charge       = 0
  Multiplicity = 1
  Electrons    = 88
  Nalpha       = 44
  Nbeta        = 44

  ==> Algorithm <==

  SCF Algorithm Type is PK.
  DIIS enabled.
  MOM disabled.
  Fractional occupation disabled.
  Guess Type is SAD.
  Energy threshold   = 1.00e-06
  Density threshold  = 1.00e-10
  Integral threshold = 0.00e+00

  ==> Primary Basis <==

  Basis Set: CC-PVDZ
    Blend: CC-PVDZ
    Number of shells: 117
    Number of basis function: 243
    Number of Cartesian functions: 255
    Spherical Harmonics?: true
    Max angular momentum: 2

  ==> Pre-Iterations <==

   -------------------------------------------------------
    Irrep   Nso     Nmo     Nalpha   Nbeta   Ndocc  Nsocc
   -------------------------------------------------------
     A        243     243       0       0       0       0
   -------------------------------------------------------
    Total     243     243      44      44      44       0
   -------------------------------------------------------

  ==> Integral Setup <==

  Using integral reordering PK algorithm.
  Sizing the integral batches needed.
  Building batch lookup table.
   Calculation information:
      Number of atoms:                  27
      Number of AO shells:             117
      Number of primitives:            339
      Number of atomic orbitals:       255
      Number of basis functions:       243

      Integral cutoff                 1.00e-12
      Number of threads:                 1

	Batch   1 pq = [       0,    9405] index = [             0,44231715] size =     44231715
	Batch   2 pq = [    9405,   13301] index = [      44231715,88464951] size =     44233236
	Batch   3 pq = [   13301,   16290] index = [      88464951,132690195] size =     44225244
	Batch   4 pq = [   16290,   18810] index = [     132690195,176917455] size =     44227260
	Batch   5 pq = [   18810,   21030] index = [     176917455,221140965] size =     44223510
	Batch   6 pq = [   21030,   23037] index = [     221140965,265363203] size =     44222238
	Batch   7 pq = [   23037,   24883] index = [     265363203,309594286] size =     44231083
	Batch   8 pq = [   24883,   26601] index = [     309594286,353819901] size =     44225615
	Batch   9 pq = [   26601,   28214] index = [     353819901,398029005] size =     44209104
	Batch  10 pq = [   28214,   29646] index = [     398029005,439457481] size =     41428476
  Task number: 40
  Buffer size: 11059200
  Buffer per thread: 2
  We computed 22499982 shell quartets total.
  Whereas there are 23829156 unique shell quartets.

  ==> DiskJK: Disk-Based J/K Matrices <==

    J tasked:                  Yes
    K tasked:                  Yes
    wK tasked:                  No
    Memory [MiB]:              375
    Schwarz Cutoff:          1E-12

    OpenMP threads:              1

  Minimum eigenvalue in the overlap matrix is 2.4244701304E-04.
  Using Symmetric Orthogonalization.

  SCF Guess: Superposition of Atomic Densities via on-the-fly atomic UHF.

  ==> Iterations <==

                        Total Energy        Delta E     RMS |[F,P]|

   @RHF iter SAD:  -479.03002968491046   -4.79030e+02   0.00000e+00
   @RHF iter   1:  -479.48794189335132   -4.57912e-01   2.61432e-03 DIIS
   @RHF iter   2:  -479.72114573952308   -2.33204e-01   1.17043e-03 DIIS
   @RHF iter   3:  -479.76375192729535   -4.26062e-02   3.06206e-04 DIIS
   @RHF iter   4:  -479.76760767779513   -3.85575e-03   1.42539e-04 DIIS
   @RHF iter   5:  -479.76828618547904   -6.78508e-04   2.00708e-05 DIIS
   @RHF iter   6:  -479.76831590511836   -2.97196e-05   9.30743e-06 DIIS
   @RHF iter   7:  -479.76832198898126   -6.08386e-06   3.85890e-06 DIIS
   @RHF iter   8:  -479.76832371070975   -1.72173e-06   1.52423e-06 DIIS
   @RHF iter   9:  -479.76832405151839   -3.40809e-07   6.73107e-07 DIIS
   @RHF iter  10:  -479.76832411922464   -6.77063e-08   3.06754e-07 DIIS
   @RHF iter  11:  -479.76832413594332   -1.67187e-08   1.16899e-07 DIIS
   @RHF iter  12:  -479.76832413829038   -2.34706e-09   3.75244e-08 DIIS
   @RHF iter  13:  -479.76832413845568   -1.65301e-10   9.61920e-09 DIIS
   @RHF iter  14:  -479.76832413846489   -9.20863e-12   3.79049e-09 DIIS
   @RHF iter  15:  -479.76832413846529   -3.97904e-13   1.91303e-09 DIIS
   @RHF iter  16:  -479.76832413846944   -4.14957e-12   9.34980e-10 DIIS
   @RHF iter  17:  -479.76832413846432    5.11591e-12   3.30414e-10 DIIS
   @RHF iter  18:  -479.76832413846688   -2.55795e-12   1.53810e-10 DIIS
   @RHF iter  19:  -479.76832413847234   -5.45697e-12   4.88916e-11 DIIS
  Energy and wave function converged.

  ==> Post-Iterations <==

    Orbital Energies [Eh]
    ---------------------

    Doubly Occupied:

       1A    -15.601710     2A    -11.263835     3A    -11.263036
       4A    -11.230420     5A    -11.230148     6A    -11.228555
       7A    -11.225610     8A    -11.220648     9A    -11.219958
      10A    -11.217025    11A    -11.212997    12A    -11.208457
      13A     -1.294334    14A     -1.126823    15A     -1.073678
      16A     -1.012663    17A     -0.996540    18A     -0.987021
      19A     -0.931519    20A     -0.839269    21A     -0.829983
      22A     -0.803033    23A     -0.752510    24A     -0.717832
      25A     -0.663707    26A     -0.642085    27A     -0.603677
      28A     -0.595458    29A     -0.591819    30A     -0.590065
      31A     -0.586616    32A     -0.567856    33A     -0.551810
      34A     -0.539525    35A     -0.527575    36A     -0.495563
      37A     -0.494452    38A     -0.479590    39A     -0.477330
      40A     -0.470598    41A     -0.459986    42A     -0.372521
      43A     -0.294384    44A     -0.274727

    Virtual:

      45A      0.124874    46A      0.168463    47A      0.171613
      48A      0.187981    49A      0.197842    50A      0.202930
      51A      0.217996    52A      0.229315    53A      0.234382
      54A      0.254118    55A      0.263298    56A      0.264034
      57A      0.266941    58A      0.268791    59A      0.287436
      60A      0.294907    61A      0.300530    62A      0.305266
      63A      0.372071    64A      0.383243    65A      0.397561
      66A      0.410575    67A      0.421530    68A      0.445249
      69A      0.471629    70A      0.480387    71A      0.502170
      72A      0.512977    73A      0.578817    74A      0.595527
      75A      0.606007    76A      0.606565    77A      0.622192
      78A      0.640715    79A      0.650811    80A      0.660095
      81A      0.675480    82A      0.690885    83A      0.704061
      84A      0.709827    85A      0.720871    86A      0.730273
      87A      0.739339    88A      0.744429    89A      0.749898
      90A      0.762168    91A      0.770459    92A      0.778400
      93A      0.785128    94A      0.795032    95A      0.812299
      96A      0.839758    97A      0.855686    98A      0.866465
      99A      0.873858   100A      0.888705   101A      0.891783
     102A      0.893814   103A      0.899471   104A      0.900418
     105A      0.907718   106A      0.914258   107A      0.918499
     108A      0.923497   109A      0.948269   110A      0.953328
     111A      0.956222   112A      0.965724   113A      0.980923
     114A      0.988627   115A      1.003498   116A      1.015198
     117A      1.059845   118A      1.089029   119A      1.101243
     120A      1.126655   121A      1.130581   122A      1.135960
     123A      1.146236   124A      1.151907   125A      1.158907
     126A      1.168574   127A      1.208364   128A      1.219674
     129A      1.228283   130A      1.235485   131A      1.251334
     132A      1.262772   133A      1.279093   134A      1.292281
     135A      1.298742   136A      1.321557   137A      1.345867
     138A      1.363993   139A      1.372184   140A      1.419532
     141A      1.447153   142A      1.482045   143A      1.483880
     144A      1.522992   145A      1.547687   146A      1.574937
     147A      1.586724   148A      1.601282   149A      1.633166
     150A      1.643382   151A      1.651547   152A      1.686969
     153A      1.690450   154A      1.701064   155A      1.706183
     156A      1.740553   157A      1.756634   158A      1.771730
     159A      1.790578   160A      1.806622   161A      1.828614
     162A      1.833027   163A      1.874662   164A      1.875590
     165A      1.880290   166A      1.893072   167A      1.905387
     168A      1.911222   169A      1.917431   170A      1.920411
     171A      1.933308   172A      1.943999   173A      1.947562
     174A      1.951632   175A      1.956937   176A      1.959743
     177A      1.974990   178A      1.980052   179A      1.995725
     180A      2.001708   181A      2.014239   182A      2.044068
     183A      2.063123   184A      2.070014   185A      2.083791
     186A      2.098043   187A      2.099618   188A      2.109869
     189A      2.113593   190A      2.125825   191A      2.140561
     192A      2.149006   193A      2.160125   194A      2.169620
     195A      2.179939   196A      2.229447   197A      2.265107
     198A      2.284138   199A      2.294948   200A      2.312754
     201A      2.317567   202A      2.339267   203A      2.347182
     204A      2.370144   205A      2.399699   206A      2.414093
     207A      2.448783   208A      2.459051   209A      2.462495
     210A      2.475096   211A      2.549206   212A      2.567406
     213A      2.575552   214A      2.591877   215A      2.602164
     216A      2.641247   217A      2.660089   218A      2.681661
     219A      2.715801   220A      2.763040   221A      2.769749
     222A      2.776479   223A      2.783888   224A      2.798454
     225A      2.806910   226A      2.848079   227A      2.859142
     228A      2.867037   229A      2.870783   230A      2.882012
     231A      2.917601   232A      2.956475   233A      2.969730
     234A      2.975405   235A      3.026071   236A      3.062870
     237A      3.079443   238A      3.121013   239A      3.207773
     240A      3.305864   241A      3.376020   242A      3.727910
     243A      3.950530

    Final Occupation by Irrep:
              A
    DOCC [    44 ]

  @RHF Final Energy:  -479.76832413847234

   => Energetics <=

    Nuclear Repulsion Energy =            658.6557072464463545
    One-Electron Energy =               -1955.3141643847714022
    Two-Electron Energy =                 816.8901329998526535
    Total Energy =                       -479.7683241384723942

Computation Completed

Properties will be evaluated at   0.000000,   0.000000,   0.000000 [a0]

Properties computed using the SCF density matrix

  Nuclear Dipole Moment: [e a0]
     X:   -13.4837      Y:    -2.2222      Z:     1.9360

  Electronic Dipole Moment: [e a0]
     X:    13.1887      Y:     2.8378      Z:    -2.3106

  Dipole Moment: [e a0]
     X:    -0.2951      Y:     0.6157      Z:    -0.3746     Total:     0.7788

  Dipole Moment: [D]
     X:    -0.7499      Y:     1.5649      Z:    -0.9522     Total:     1.9794

*** tstop() called on ds3 at Mon Apr 27 18:18:10 2020
Module time:
	user time   =     176.17 seconds =       2.94 minutes
	system time =      67.94 seconds =       1.13 minutes
	total time  =        405 seconds =       6.75 minutes
Total time:
	user time   =     176.17 seconds =       2.94 minutes
	system time =      67.94 seconds =       1.13 minutes
	total time  =        405 seconds =       6.75 minutes
                                     G D M A

                                 by Anthony Stone

                           version 2.2.06, 22 June 2011

               Distributed Multipoles from Gaussian wavefunctions

Starting at 18:18:10 on 27 Apr 2020

Using SCF density matrix from file ./SSI/SSI-104TRP-168LEU-1-dimer.test.18987.fchk

                         Distributed Multipole Analysis

Standard DMA

Positions and radii in angstrom
Multipole moments in atomic units, ea_0^k for rank k

C          x =  0.452952  y =  1.812867  z =  2.610979 angstrom
           Maximum rank =  0   Radius =  0.650 angstrom
                   Q00  =  -0.211053

C          x =  0.589952  y =  0.247867  z = -0.799021 angstrom
           Maximum rank =  0   Radius =  0.650 angstrom
                   Q00  =   0.288943

C          x =  0.960952  y =  0.251867  z =  0.572979 angstrom
           Maximum rank =  0   Radius =  0.650 angstrom
                   Q00  =  -0.049100

C          x =  0.346952  y =  1.398867  z =  1.179979 angstrom
           Maximum rank =  0   Radius =  0.650 angstrom
                   Q00  =  -0.124858

C          x = -0.346048  y =  2.028867  z =  0.190979 angstrom
           Maximum rank =  0   Radius =  0.650 angstrom
                   Q00  =   0.073156

C          x =  1.017952  y = -0.733133  z = -1.686021 angstrom
           Maximum rank =  0   Radius =  0.650 angstrom
                   Q00  =  -0.119000

C          x =  1.835952  y = -1.736133  z = -1.190021 angstrom
           Maximum rank =  0   Radius =  0.650 angstrom
                   Q00  =  -0.077169

C          x =  1.788952  y = -0.774133  z =  1.047979 angstrom
           Maximum rank =  0   Radius =  0.650 angstrom
                   Q00  =  -0.100185

C          x =  2.214952  y = -1.763133  z =  0.160979 angstrom
           Maximum rank =  0   Radius =  0.650 angstrom
                   Q00  =  -0.080153

N          x = -0.206048  y =  1.343867  z = -0.994021 angstrom
           Maximum rank =  0   Radius =  0.650 angstrom
                   Q00  =  -0.489323

H          x = -0.520048  y =  1.684867  z = -1.907021 angstrom
           Maximum rank =  0   Radius =  0.325 angstrom
                   Q00  =   0.218650

H          x =  0.744952  y = -0.690133  z = -2.730021 angstrom
           Maximum rank =  0   Radius =  0.325 angstrom
                   Q00  =   0.072516

H          x = -0.909048  y =  2.945867  z =  0.320979 angstrom
           Maximum rank =  0   Radius =  0.325 angstrom
                   Q00  =   0.099130

H          x =  2.251952  y = -2.470133  z = -1.856021 angstrom
           Maximum rank =  0   Radius =  0.325 angstrom
                   Q00  =   0.065113

H          x =  2.117952  y = -0.773133  z =  2.072979 angstrom
           Maximum rank =  0   Radius =  0.325 angstrom
                   Q00  =   0.071180

H          x =  0.474952  y =  0.924867  z =  3.233979 angstrom
           Maximum rank =  0   Radius =  0.325 angstrom
                   Q00  =   0.104293

H          x = -0.444048  y =  2.380867  z =  2.851979 angstrom
           Maximum rank =  0   Radius =  0.325 angstrom
                   Q00  =   0.102199

H          x =  2.858952  y = -2.545133  z =  0.523979 angstrom
           Maximum rank =  0   Radius =  0.325 angstrom
                   Q00  =   0.060659

H          x =  1.323802  y =  2.445495  z =  2.837689 angstrom
           Maximum rank =  0   Radius =  0.325 angstrom
                   Q00  =   0.098907

C          x = -3.169048  y = -0.513133  z = -0.581021 angstrom
           Maximum rank =  0   Radius =  0.650 angstrom
                   Q00  =  -0.224051

C          x = -4.245048  y = -1.590133  z = -0.521021 angstrom
           Maximum rank =  0   Radius =  0.650 angstrom
                   Q00  =  -0.242895

H          x = -2.922048  y = -0.281133  z = -1.615021 angstrom
           Maximum rank =  0   Radius =  0.325 angstrom
                   Q00  =   0.066938

H          x = -3.540048  y =  0.397867  z = -0.113021 angstrom
           Maximum rank =  0   Radius =  0.325 angstrom
                   Q00  =   0.071282

H          x = -2.272048  y = -0.841133  z = -0.055021 angstrom
           Maximum rank =  0   Radius =  0.325 angstrom
                   Q00  =   0.094137

H          x = -5.107048  y = -1.267133  z = -1.103021 angstrom
           Maximum rank =  0   Radius =  0.325 angstrom
                   Q00  =   0.073609

H          x = -3.854628  y = -2.540342  z = -0.914310 angstrom
           Maximum rank =  0   Radius =  0.325 angstrom
                   Q00  =   0.079505

H          x = -4.587358  y = -1.737770  z =  0.513882 angstrom
           Maximum rank =  0   Radius =  0.325 angstrom
                   Q00  =   0.077571

Total multipoles referred to origin at
           x =   0.000000,  y =    0.000000,  z =    0.000000 angstrom
                   Q00  =  -0.000000

Finished at 18:18:10 on 27 Apr 2020

  DMA results are available in the Python driver through the
	  variable('DMA DISTRIBUTED MULTIPOLES')
  and
	  variable('DMA TOTAL MULTIPOLES')
  commands.

    Psi4 stopped on: Monday, 27 April 2020 06:18PM
    Psi4 wall time for execution: 0:06:44.69

*** Psi4 exiting successfully. Buy a developer a beer!
