                               Psi4 1.3.2 release

  ==> Input File <==

--------------------------------------------------------------------------
import numpy as np
set {scf_type pk
basis cc-pvdz
d_convergence 10
gdma_switch   0
gdma_limit    0
gdma_origin   [ 0.0,  0.0,  0.0 ]
}
molecule test {
    units Angstrom
    0 1
    --
    0 1
    C                0.689296279359840    -0.654047067589198     1.566677814246607
    C                0.275296279359840    -1.692047067589198     2.593677814246607
    H                1.590296279359841    -0.147047067589198     1.872677814246607
    H                0.840296279359840    -1.127047067589198     0.595677814246607
    H               -0.105703720640160     0.086952932410802     1.473677814246607
    H               -0.697703720640160    -2.065047067589198     2.300677814246607
    H                0.201156279359840    -1.245054067589198     3.596024814246607
    H                0.976236279359840    -2.539791067589198     2.597995714246607
    C               -0.429703720640160     0.543952932410802    -1.640322185753393
    C               -0.531703720640160     1.798952932410802    -2.522322185753393
    H               -0.355703720640160    -0.361047067589198    -2.244322185753393
    H                0.468296279359840     0.613952932410802    -1.028322185753393
    H               -1.278703720640160     0.469952932410802    -0.964322185753393
    H               -0.428703720640160     2.673952932410801    -1.880322185753393
    H               -1.514393720640160     1.852759932410802    -3.013668185753393
    H                0.266706279359840     1.825423932410802    -3.278523185753393

}
e, wfn = energy('scf', return_wfn=True)
gdma(wfn)
dmavals = variable('DMA DISTRIBUTED MULTIPOLES')
charges = np.array(dmavals)
print(charges)
np.save('SSI-058VAL-085ILE-1-dimer.npy', np.array(charges))--------------------------------------------------------------------------

*** tstart() called on ds3
*** at Tue Apr 28 17:09:38 2020

   => Loading Basis Set <=

    Name: CC-PVDZ
    Role: ORBITAL
    Keyword: BASIS
    atoms 1-2, 9-10  entry C          line   138 file /theoryfs2/ds/metcalf/miniconda2/envs/tf2gpu/share/psi4/basis/cc-pvdz.gbs
    atoms 3-8, 11-16 entry H          line    22 file /theoryfs2/ds/metcalf/miniconda2/envs/tf2gpu/share/psi4/basis/cc-pvdz.gbs

         ---------------------------------------------------------
                                   SCF
               by Justin Turney, Rob Parrish, Andy Simmonett
                          and Daniel G. A. Smith
                              RHF Reference
                        1 Threads,    500 MiB Core
         ---------------------------------------------------------

  ==> Geometry <==

    Molecular point group: c1
    Full point group: C1

    Geometry (in Angstrom), charge = 0, multiplicity = 1:

       Center              X                  Y                   Z               Mass
    ------------   -----------------  -----------------  -----------------  -----------------
         C            0.689296279360    -0.654047067589     1.566677814247    12.000000000000
         C            0.275296279360    -1.692047067589     2.593677814247    12.000000000000
         H            1.590296279360    -0.147047067589     1.872677814247     1.007825032230
         H            0.840296279360    -1.127047067589     0.595677814247     1.007825032230
         H           -0.105703720640     0.086952932411     1.473677814247     1.007825032230
         H           -0.697703720640    -2.065047067589     2.300677814247     1.007825032230
         H            0.201156279360    -1.245054067589     3.596024814247     1.007825032230
         H            0.976236279360    -2.539791067589     2.597995714247     1.007825032230
         C           -0.429703720640     0.543952932411    -1.640322185753    12.000000000000
         C           -0.531703720640     1.798952932411    -2.522322185753    12.000000000000
         H           -0.355703720640    -0.361047067589    -2.244322185753     1.007825032230
         H            0.468296279360     0.613952932411    -1.028322185753     1.007825032230
         H           -1.278703720640     0.469952932411    -0.964322185753     1.007825032230
         H           -0.428703720640     2.673952932411    -1.880322185753     1.007825032230
         H           -1.514393720640     1.852759932411    -3.013668185753     1.007825032230
         H            0.266706279360     1.825423932411    -3.278523185753     1.007825032230

  Running in c1 symmetry.

  Rotational constants: A =      0.80886  B =      0.04221  C =      0.04163 [cm^-1]
  Rotational constants: A =  24249.13402  B =   1265.50576  C =   1248.17377 [MHz]
  Nuclear repulsion =  121.113128447865677

  Charge       = 0
  Multiplicity = 1
  Electrons    = 36
  Nalpha       = 18
  Nbeta        = 18

  ==> Algorithm <==

  SCF Algorithm Type is PK.
  DIIS enabled.
  MOM disabled.
  Fractional occupation disabled.
  Guess Type is SAD.
  Energy threshold   = 1.00e-06
  Density threshold  = 1.00e-10
  Integral threshold = 0.00e+00

  ==> Primary Basis <==

  Basis Set: CC-PVDZ
    Blend: CC-PVDZ
    Number of shells: 60
    Number of basis function: 116
    Number of Cartesian functions: 120
    Spherical Harmonics?: true
    Max angular momentum: 2

  ==> Pre-Iterations <==

   -------------------------------------------------------
    Irrep   Nso     Nmo     Nalpha   Nbeta   Ndocc  Nsocc
   -------------------------------------------------------
     A        116     116       0       0       0       0
   -------------------------------------------------------
    Total     116     116      18      18      18       0
   -------------------------------------------------------

  ==> Integral Setup <==

  Using integral reordering PK algorithm.
  Sizing the integral batches needed.
  Building batch lookup table.
   Calculation information:
      Number of atoms:                  16
      Number of AO shells:              60
      Number of primitives:            148
      Number of atomic orbitals:       120
      Number of basis functions:       116

      Integral cutoff                 1.00e-12
      Number of threads:                 1

	Batch   1 pq = [       0,    6786] index = [             0,23028291] size =     23028291
  Task number: 3
  Buffer size: 11059200
  Buffer per thread: 2
  We computed 1382382 shell quartets total.
  Whereas there are 1675365 unique shell quartets.

  ==> DiskJK: Disk-Based J/K Matrices <==

    J tasked:                  Yes
    K tasked:                  Yes
    wK tasked:                  No
    Memory [MiB]:              375
    Schwarz Cutoff:          1E-12

    OpenMP threads:              1

  Minimum eigenvalue in the overlap matrix is 6.4763476785E-03.
  Using Symmetric Orthogonalization.

  SCF Guess: Superposition of Atomic Densities via on-the-fly atomic UHF.

  ==> Iterations <==

                        Total Energy        Delta E     RMS |[F,P]|

   @RHF iter SAD:  -157.36824442720567   -1.57368e+02   0.00000e+00
   @RHF iter   1:  -158.30612128056950   -9.37877e-01   4.21999e-03 DIIS
   @RHF iter   2:  -158.44003350764183   -1.33912e-01   1.79313e-03 DIIS
   @RHF iter   3:  -158.46337392988895   -2.33404e-02   3.50858e-04 DIIS
   @RHF iter   4:  -158.46522094269457   -1.84701e-03   3.93931e-05 DIIS
   @RHF iter   5:  -158.46524535807166   -2.44154e-05   6.94521e-06 DIIS
   @RHF iter   6:  -158.46524604784301   -6.89771e-07   1.33654e-06 DIIS
   @RHF iter   7:  -158.46524606489086   -1.70479e-08   3.32138e-07 DIIS
   @RHF iter   8:  -158.46524606597941   -1.08855e-09   4.54066e-08 DIIS
   @RHF iter   9:  -158.46524606601420   -3.47882e-11   9.93335e-09 DIIS
   @RHF iter  10:  -158.46524606601585   -1.64846e-12   2.58903e-09 DIIS
   @RHF iter  11:  -158.46524606601554    3.12639e-13   7.72207e-10 DIIS
   @RHF iter  12:  -158.46524606601594   -3.97904e-13   1.83455e-10 DIIS
   @RHF iter  13:  -158.46524606601596   -2.84217e-14   2.68015e-11 DIIS
  Energy and wave function converged.

  ==> Post-Iterations <==

    Orbital Energies [Eh]
    ---------------------

    Doubly Occupied:

       1A    -11.219482     2A    -11.216813     3A    -11.216063
       4A    -11.213593     5A     -1.021582     6A     -1.014736
       7A     -0.841239     8A     -0.833151     9A     -0.602046
      10A     -0.599463    11A     -0.595104    12A     -0.593567
      13A     -0.507850    14A     -0.496655    15A     -0.489544
      16A     -0.486812    17A     -0.481787    18A     -0.478383

    Virtual:

      19A      0.177488    20A      0.193537    21A      0.226800
      22A      0.235635    23A      0.240499    24A      0.261330
      25A      0.264217    26A      0.279512    27A      0.283985
      28A      0.298288    29A      0.298864    30A      0.308777
      31A      0.399455    32A      0.414629    33A      0.575050
      34A      0.593568    35A      0.599635    36A      0.601208
      37A      0.610185    38A      0.637133    39A      0.671665
      40A      0.690811    41A      0.709803    42A      0.767693
      43A      0.858578    44A      0.880796    45A      0.890494
      46A      0.891843    47A      0.894513    48A      0.895376
      49A      0.899878    50A      0.910297    51A      0.916016
      52A      0.920401    53A      0.927287    54A      0.950639
      55A      0.967993    56A      0.990302    57A      1.122386
      58A      1.127682    59A      1.130612    60A      1.165062
      61A      1.234232    62A      1.238578    63A      1.464181
      64A      1.473383    65A      1.476478    66A      1.491856
      67A      1.578861    68A      1.588816    69A      1.682337
      70A      1.684644    71A      1.697621    72A      1.699155
      73A      1.854646    74A      1.859233    75A      1.869707
      76A      1.883729    77A      1.894230    78A      1.920004
      79A      1.932511    80A      1.940915    81A      1.943155
      82A      1.947049    83A      1.950627    84A      1.955420
      85A      1.964668    86A      1.979027    87A      2.018747
      88A      2.030995    89A      2.091511    90A      2.102370
      91A      2.125269    92A      2.131380    93A      2.301837
      94A      2.307606    95A      2.312977    96A      2.338207
      97A      2.447798    98A      2.454435    99A      2.470722
     100A      2.477260   101A      2.558483   102A      2.569055
     103A      2.578254   104A      2.588855   105A      2.759242
     106A      2.767123   107A      2.782496   108A      2.801805
     109A      2.846105   110A      2.854072   111A      2.864508
     112A      2.872210   113A      2.946882   114A      2.951929
     115A      2.964257   116A      2.971749

    Final Occupation by Irrep:
              A
    DOCC [    18 ]

  @RHF Final Energy:  -158.46524606601596

   => Energetics <=

    Nuclear Repulsion Energy =            121.1131284478656767
    One-Electron Energy =                -451.3410058160839071
    Two-Electron Energy =                 171.7626313022022657
    Total Energy =                       -158.4652460660159647

Computation Completed

Properties will be evaluated at   0.000000,   0.000000,   0.000000 [a0]

Properties computed using the SCF density matrix

  Nuclear Dipole Moment: [e a0]
     X:    -0.0356      Y:     0.0356      Z:     0.0255

  Electronic Dipole Moment: [e a0]
     X:     0.0392      Y:    -0.0313      Z:    -0.0191

  Dipole Moment: [e a0]
     X:     0.0036      Y:     0.0043      Z:     0.0064     Total:     0.0085

  Dipole Moment: [D]
     X:     0.0092      Y:     0.0110      Z:     0.0163     Total:     0.0217

*** tstop() called on ds3 at Tue Apr 28 17:10:03 2020
Module time:
	user time   =       7.02 seconds =       0.12 minutes
	system time =       2.57 seconds =       0.04 minutes
	total time  =         25 seconds =       0.42 minutes
Total time:
	user time   =       7.02 seconds =       0.12 minutes
	system time =       2.57 seconds =       0.04 minutes
	total time  =         25 seconds =       0.42 minutes
                                     G D M A

                                 by Anthony Stone

                           version 2.2.06, 22 June 2011

               Distributed Multipoles from Gaussian wavefunctions

Starting at 17:10:3 on 28 Apr 2020

Using SCF density matrix from file ./SSI/SSI-058VAL-085ILE-1-dimer.test.26837.fchk

                         Distributed Multipole Analysis

Standard DMA

Positions and radii in angstrom
Multipole moments in atomic units, ea_0^k for rank k

C          x =  0.689296  y = -0.654047  z =  1.566678 angstrom
           Maximum rank =  0   Radius =  0.650 angstrom
                   Q00  =  -0.234653

C          x =  0.275296  y = -1.692047  z =  2.593678 angstrom
           Maximum rank =  0   Radius =  0.650 angstrom
                   Q00  =  -0.230253

H          x =  1.590296  y = -0.147047  z =  1.872678 angstrom
           Maximum rank =  0   Radius =  0.325 angstrom
                   Q00  =   0.079259

H          x =  0.840296  y = -1.127047  z =  0.595678 angstrom
           Maximum rank =  0   Radius =  0.325 angstrom
                   Q00  =   0.079000

H          x = -0.105704  y =  0.086953  z =  1.473678 angstrom
           Maximum rank =  0   Radius =  0.325 angstrom
                   Q00  =   0.075064

H          x = -0.697704  y = -2.065047  z =  2.300678 angstrom
           Maximum rank =  0   Radius =  0.325 angstrom
                   Q00  =   0.077036

H          x =  0.201156  y = -1.245054  z =  3.596025 angstrom
           Maximum rank =  0   Radius =  0.325 angstrom
                   Q00  =   0.078760

H          x =  0.976236  y = -2.539791  z =  2.597996 angstrom
           Maximum rank =  0   Radius =  0.325 angstrom
                   Q00  =   0.077559

C          x = -0.429704  y =  0.543953  z = -1.640322 angstrom
           Maximum rank =  0   Radius =  0.650 angstrom
                   Q00  =  -0.233067

C          x = -0.531704  y =  1.798953  z = -2.522322 angstrom
           Maximum rank =  0   Radius =  0.650 angstrom
                   Q00  =  -0.248035

H          x = -0.355704  y = -0.361047  z = -2.244322 angstrom
           Maximum rank =  0   Radius =  0.325 angstrom
                   Q00  =   0.079441

H          x =  0.468296  y =  0.613953  z = -1.028322 angstrom
           Maximum rank =  0   Radius =  0.325 angstrom
                   Q00  =   0.080198

H          x = -1.278704  y =  0.469953  z = -0.964322 angstrom
           Maximum rank =  0   Radius =  0.325 angstrom
                   Q00  =   0.080982

H          x = -0.428704  y =  2.673953  z = -1.880322 angstrom
           Maximum rank =  0   Radius =  0.325 angstrom
                   Q00  =   0.078196

H          x = -1.514394  y =  1.852760  z = -3.013668 angstrom
           Maximum rank =  0   Radius =  0.325 angstrom
                   Q00  =   0.078834

H          x =  0.266706  y =  1.825424  z = -3.278523 angstrom
           Maximum rank =  0   Radius =  0.325 angstrom
                   Q00  =   0.081678

Total multipoles referred to origin at
           x =   0.000000,  y =    0.000000,  z =    0.000000 angstrom
                   Q00  =  -0.000000

Finished at 17:10:3 on 28 Apr 2020

  DMA results are available in the Python driver through the
	  variable('DMA DISTRIBUTED MULTIPOLES')
  and
	  variable('DMA TOTAL MULTIPOLES')
  commands.

    Psi4 stopped on: Tuesday, 28 April 2020 05:10PM
    Psi4 wall time for execution: 0:00:25.63

*** Psi4 exiting successfully. Buy a developer a beer!
