                               Psi4 1.3.2 release

  ==> Input File <==

--------------------------------------------------------------------------
import numpy as np
set {scf_type pk
basis cc-pvdz
d_convergence 10
gdma_switch   0
gdma_limit    0
gdma_origin   [ 0.0,  0.0,  0.0 ]
}
molecule test {
    units Angstrom
    -1 1
    --
    -1 1
    C               -3.733143734625110     1.262507294940374    -2.461573764518160
    C               -0.511143734625110     0.548507294940374    -0.599573764518160
    C               -0.988143734625110     0.101507294940374     0.632426235481840
    C               -1.404143734625110     0.964507294940374    -1.577573764518160
    C               -2.780143734625110     0.939507294940374    -1.346573764518160
    C               -2.363143734625110     0.082507294940374     0.885426235481840
    C               -3.253143734625110     0.499507294940374    -0.106573764518160
    O               -0.105143734625110    -0.326492705059626     1.578426235481840
    H                0.540856265374890     0.580507294940374    -0.803573764518160
    H               -1.020143734625110     1.305507294940374    -2.516573764518160
    H               -2.737143734625110    -0.267492705059626     1.833426235481840
    H               -0.550143734625110    -0.541492705059626     2.401426235481841
    H               -4.554143734625111     0.544507294940374    -2.422573764518160
    H               -3.211143734625110     1.072507294940374    -3.399573764518160
    H               -4.318143734625109     0.447507294940374     0.073426235481840
    H               -4.160053734625111     2.275427294940374    -2.503333764518160
    C                4.638856265374891    -0.868492705059626    -0.144573764518160
    C                3.351856265374890    -0.894492705059626     0.668426235481840
    O                2.415856265374890    -0.142492705059626     0.342426235481840
    O                3.294856265374890    -1.682492705059626     1.642426235481840
    H                4.740856265374890    -1.831492705059626    -0.652573764518160
    H                5.472856265374890    -0.762492705059626     0.550426235481840
    H                4.683286265374890    -0.058702705059626    -0.887713764518160

}
e, wfn = energy('scf', return_wfn=True)
gdma(wfn)
dmavals = variable('DMA DISTRIBUTED MULTIPOLES')
charges = np.array(dmavals)
print(charges)
np.save('SSI-080TYR-172GLU-1-dimer.npy', np.array(charges))--------------------------------------------------------------------------

*** tstart() called on ds3
*** at Tue Apr 28 14:41:58 2020

   => Loading Basis Set <=

    Name: CC-PVDZ
    Role: ORBITAL
    Keyword: BASIS
    atoms 1-7, 17-18  entry C          line   138 file /theoryfs2/ds/metcalf/miniconda2/envs/tf2gpu/share/psi4/basis/cc-pvdz.gbs
    atoms 8, 19-20    entry O          line   198 file /theoryfs2/ds/metcalf/miniconda2/envs/tf2gpu/share/psi4/basis/cc-pvdz.gbs
    atoms 9-16, 21-23 entry H          line    22 file /theoryfs2/ds/metcalf/miniconda2/envs/tf2gpu/share/psi4/basis/cc-pvdz.gbs

         ---------------------------------------------------------
                                   SCF
               by Justin Turney, Rob Parrish, Andy Simmonett
                          and Daniel G. A. Smith
                              RHF Reference
                        1 Threads,    500 MiB Core
         ---------------------------------------------------------

  ==> Geometry <==

    Molecular point group: c1
    Full point group: C1

    Geometry (in Angstrom), charge = -1, multiplicity = 1:

       Center              X                  Y                   Z               Mass
    ------------   -----------------  -----------------  -----------------  -----------------
         C           -3.733143734625     1.262507294940    -2.461573764518    12.000000000000
         C           -0.511143734625     0.548507294940    -0.599573764518    12.000000000000
         C           -0.988143734625     0.101507294940     0.632426235482    12.000000000000
         C           -1.404143734625     0.964507294940    -1.577573764518    12.000000000000
         C           -2.780143734625     0.939507294940    -1.346573764518    12.000000000000
         C           -2.363143734625     0.082507294940     0.885426235482    12.000000000000
         C           -3.253143734625     0.499507294940    -0.106573764518    12.000000000000
         O           -0.105143734625    -0.326492705060     1.578426235482    15.994914619570
         H            0.540856265375     0.580507294940    -0.803573764518     1.007825032230
         H           -1.020143734625     1.305507294940    -2.516573764518     1.007825032230
         H           -2.737143734625    -0.267492705060     1.833426235482     1.007825032230
         H           -0.550143734625    -0.541492705060     2.401426235482     1.007825032230
         H           -4.554143734625     0.544507294940    -2.422573764518     1.007825032230
         H           -3.211143734625     1.072507294940    -3.399573764518     1.007825032230
         H           -4.318143734625     0.447507294940     0.073426235482     1.007825032230
         H           -4.160053734625     2.275427294940    -2.503333764518     1.007825032230
         C            4.638856265375    -0.868492705060    -0.144573764518    12.000000000000
         C            3.351856265375    -0.894492705060     0.668426235482    12.000000000000
         O            2.415856265375    -0.142492705060     0.342426235482    15.994914619570
         O            3.294856265375    -1.682492705060     1.642426235482    15.994914619570
         H            4.740856265375    -1.831492705060    -0.652573764518     1.007825032230
         H            5.472856265375    -0.762492705060     0.550426235482     1.007825032230
         H            4.683286265375    -0.058702705060    -0.887713764518     1.007825032230

  Running in c1 symmetry.

  Rotational constants: A =      0.07536  B =      0.01127  C =      0.00995 [cm^-1]
  Rotational constants: A =   2259.37821  B =    337.96804  C =    298.35830 [MHz]
  Nuclear repulsion =  633.232737712655648

  Charge       = -1
  Multiplicity = 1
  Electrons    = 90
  Nalpha       = 45
  Nbeta        = 45

  ==> Algorithm <==

  SCF Algorithm Type is PK.
  DIIS enabled.
  MOM disabled.
  Fractional occupation disabled.
  Guess Type is SAD.
  Energy threshold   = 1.00e-06
  Density threshold  = 1.00e-10
  Integral threshold = 0.00e+00

  ==> Primary Basis <==

  Basis Set: CC-PVDZ
    Blend: CC-PVDZ
    Number of shells: 105
    Number of basis function: 223
    Number of Cartesian functions: 235
    Spherical Harmonics?: true
    Max angular momentum: 2

  ==> Pre-Iterations <==

   -------------------------------------------------------
    Irrep   Nso     Nmo     Nalpha   Nbeta   Ndocc  Nsocc
   -------------------------------------------------------
     A        223     223       0       0       0       0
   -------------------------------------------------------
    Total     223     223      45      45      45       0
   -------------------------------------------------------

  ==> Integral Setup <==

  Using integral reordering PK algorithm.
  Sizing the integral batches needed.
  Building batch lookup table.
   Calculation information:
      Number of atoms:                  23
      Number of AO shells:             105
      Number of primitives:            319
      Number of atomic orbitals:       235
      Number of basis functions:       223

      Integral cutoff                 1.00e-12
      Number of threads:                 1

	Batch   1 pq = [       0,    9405] index = [             0,44231715] size =     44231715
	Batch   2 pq = [    9405,   13301] index = [      44231715,88464951] size =     44233236
	Batch   3 pq = [   13301,   16290] index = [      88464951,132690195] size =     44225244
	Batch   4 pq = [   16290,   18810] index = [     132690195,176917455] size =     44227260
	Batch   5 pq = [   18810,   21030] index = [     176917455,221140965] size =     44223510
	Batch   6 pq = [   21030,   23037] index = [     221140965,265363203] size =     44222238
	Batch   7 pq = [   23037,   24976] index = [     265363203,311912776] size =     46549573
  Task number: 29
  Buffer size: 11059200
  Buffer per thread: 2
  We computed 11362659 shell quartets total.
  Whereas there are 15487395 unique shell quartets.

  ==> DiskJK: Disk-Based J/K Matrices <==

    J tasked:                  Yes
    K tasked:                  Yes
    wK tasked:                  No
    Memory [MiB]:              375
    Schwarz Cutoff:          1E-12

    OpenMP threads:              1

  Minimum eigenvalue in the overlap matrix is 3.2790830741E-04.
  Using Symmetric Orthogonalization.

  SCF Guess: Superposition of Atomic Densities via on-the-fly atomic UHF.

  ==> Iterations <==

                        Total Energy        Delta E     RMS |[F,P]|

   @RHF iter SAD:  -570.18974993612483   -5.70190e+02   0.00000e+00
   @RHF iter   1:  -571.48615803828238   -1.29641e+00   3.74996e-03 DIIS
   @RHF iter   2:  -571.77746002528636   -2.91302e-01   2.00428e-03 DIIS
   @RHF iter   3:  -571.85200895893331   -7.45489e-02   3.48039e-04 DIIS
   @RHF iter   4:  -571.85592654286506   -3.91758e-03   1.25463e-04 DIIS
   @RHF iter   5:  -571.85646194761921   -5.35405e-04   2.08297e-05 DIIS
   @RHF iter   6:  -571.85648376042570   -2.18128e-05   7.58063e-06 DIIS
   @RHF iter   7:  -571.85648640501233   -2.64459e-06   3.34059e-06 DIIS
   @RHF iter   8:  -571.85648698951809   -5.84506e-07   1.12826e-06 DIIS
   @RHF iter   9:  -571.85648711928343   -1.29765e-07   4.85319e-07 DIIS
   @RHF iter  10:  -571.85648714714102   -2.78576e-08   2.11803e-07 DIIS
   @RHF iter  11:  -571.85648715489162   -7.75060e-09   9.63195e-08 DIIS
   @RHF iter  12:  -571.85648715606601   -1.17439e-09   3.98616e-08 DIIS
   @RHF iter  13:  -571.85648715623495   -1.68939e-10   1.05819e-08 DIIS
   @RHF iter  14:  -571.85648715625484   -1.98952e-11   3.67204e-09 DIIS
   @RHF iter  15:  -571.85648715624984    5.00222e-12   1.45367e-09 DIIS
   @RHF iter  16:  -571.85648715625507   -5.22959e-12   6.80729e-10 DIIS
   @RHF iter  17:  -571.85648715624825    6.82121e-12   3.08243e-10 DIIS
   @RHF iter  18:  -571.85648715625723   -8.98126e-12   1.24279e-10 DIIS
   @RHF iter  19:  -571.85648715625712    1.13687e-13   5.38318e-11 DIIS
  Energy and wave function converged.

  ==> Post-Iterations <==

    Orbital Energies [Eh]
    ---------------------

    Doubly Occupied:

       1A    -20.445228     2A    -20.256758     3A    -20.249438
       4A    -11.182238     5A    -11.141450     6A    -11.135983
       7A    -11.129146     8A    -11.125519     9A    -11.125352
      10A    -11.111473    11A    -11.103613    12A    -11.048062
      13A     -1.264006    14A     -1.144820    15A     -1.041069
      16A     -1.031151    17A     -0.932529    18A     -0.907075
      19A     -0.823854    20A     -0.793164    21A     -0.731382
      22A     -0.689655    23A     -0.611060    24A     -0.554651
      25A     -0.531809    26A     -0.500574    27A     -0.496545
      28A     -0.485761    29A     -0.475069    30A     -0.453382
      31A     -0.447984    32A     -0.414823    33A     -0.408767
      34A     -0.406164    35A     -0.397194    36A     -0.394972
      37A     -0.367914    38A     -0.354124    39A     -0.335733
      40A     -0.299651    41A     -0.229477    42A     -0.186164
      43A     -0.176144    44A     -0.166500    45A     -0.156209

    Virtual:

      46A      0.240145    47A      0.259903    48A      0.273136
      49A      0.289722    50A      0.317383    51A      0.320906
      52A      0.352054    53A      0.355255    54A      0.368831
      55A      0.374166    56A      0.399889    57A      0.414330
      58A      0.453070    59A      0.465771    60A      0.482474
      61A      0.493093    62A      0.547142    63A      0.569745
      64A      0.575162    65A      0.591017    66A      0.601221
      67A      0.621180    68A      0.701471    69A      0.711876
      70A      0.725087    71A      0.730652    72A      0.767699
      73A      0.776325    74A      0.794906    75A      0.803847
      76A      0.815765    77A      0.821223    78A      0.837529
      79A      0.845597    80A      0.850242    81A      0.865868
      82A      0.879896    83A      0.889419    84A      0.897654
      85A      0.905593    86A      0.937797    87A      0.951159
      88A      0.958227    89A      0.960016    90A      0.965251
      91A      0.977846    92A      0.985431    93A      0.998172
      94A      1.013392    95A      1.019805    96A      1.030960
      97A      1.037156    98A      1.038590    99A      1.042885
     100A      1.050170   101A      1.061677   102A      1.078214
     103A      1.120189   104A      1.137337   105A      1.149503
     106A      1.162389   107A      1.223193   108A      1.239889
     109A      1.252055   110A      1.270966   111A      1.277531
     112A      1.292713   113A      1.349434   114A      1.352375
     115A      1.354536   116A      1.361948   117A      1.387693
     118A      1.400017   119A      1.409984   120A      1.419220
     121A      1.427263   122A      1.467565   123A      1.474297
     124A      1.491789   125A      1.512452   126A      1.543979
     127A      1.561452   128A      1.594713   129A      1.604025
     130A      1.613105   131A      1.623189   132A      1.644061
     133A      1.665231   134A      1.684712   135A      1.735272
     136A      1.748951   137A      1.763775   138A      1.789516
     139A      1.797760   140A      1.832322   141A      1.843448
     142A      1.850264   143A      1.860284   144A      1.867544
     145A      1.883395   146A      1.915025   147A      1.919686
     148A      1.986210   149A      1.994363   150A      1.994885
     151A      2.015534   152A      2.021941   153A      2.034006
     154A      2.047945   155A      2.057894   156A      2.066739
     157A      2.081515   158A      2.083049   159A      2.099636
     160A      2.102943   161A      2.145297   162A      2.149462
     163A      2.158553   164A      2.169472   165A      2.175859
     166A      2.187302   167A      2.224148   168A      2.250459
     169A      2.266720   170A      2.271091   171A      2.293245
     172A      2.313720   173A      2.328486   174A      2.346042
     175A      2.359066   176A      2.388306   177A      2.404149
     178A      2.430037   179A      2.431123   180A      2.440609
     181A      2.505538   182A      2.523935   183A      2.583809
     184A      2.593447   185A      2.595090   186A      2.601407
     187A      2.643101   188A      2.655618   189A      2.679748
     190A      2.689937   191A      2.733205   192A      2.760610
     193A      2.790501   194A      2.842636   195A      2.864656
     196A      2.898154   197A      2.915196   198A      2.930126
     199A      2.958432   200A      2.964270   201A      2.994354
     202A      3.002350   203A      3.079127   204A      3.109577
     205A      3.210022   206A      3.218994   207A      3.247428
     208A      3.285380   209A      3.300120   210A      3.367898
     211A      3.394035   212A      3.397470   213A      3.485895
     214A      3.638671   215A      3.722132   216A      3.805252
     217A      3.822395   218A      3.836308   219A      4.069516
     220A      4.089185   221A      4.121831   222A      4.214935
     223A      4.350623

    Final Occupation by Irrep:
              A
    DOCC [    45 ]

  @RHF Final Energy:  -571.85648715625712

   => Energetics <=

    Nuclear Repulsion Energy =            633.2327377126556485
    One-Electron Energy =               -2051.6511775613025748
    Two-Electron Energy =                 846.5619526923896956
    Total Energy =                       -571.8564871562571170

Computation Completed

Properties will be evaluated at   0.000000,   0.000000,   0.000000 [a0]

Properties computed using the SCF density matrix

  Nuclear Dipole Moment: [e a0]
     X:    -4.7664      Y:     2.5811      Z:    -7.7894

  Electronic Dipole Moment: [e a0]
     X:     0.1160      Y:    -1.1495      Z:     6.3385

  Dipole Moment: [e a0]
     X:    -4.6504      Y:     1.4316      Z:    -1.4509     Total:     5.0774

  Dipole Moment: [D]
     X:   -11.8200      Y:     3.6387      Z:    -3.6877     Total:    12.9055

*** tstop() called on ds3 at Tue Apr 28 14:45:31 2020
Module time:
	user time   =     102.44 seconds =       1.71 minutes
	system time =      49.86 seconds =       0.83 minutes
	total time  =        213 seconds =       3.55 minutes
Total time:
	user time   =     102.44 seconds =       1.71 minutes
	system time =      49.86 seconds =       0.83 minutes
	total time  =        213 seconds =       3.55 minutes
                                     G D M A

                                 by Anthony Stone

                           version 2.2.06, 22 June 2011

               Distributed Multipoles from Gaussian wavefunctions

Starting at 14:45:31 on 28 Apr 2020

Using SCF density matrix from file ./SSI/SSI-080TYR-172GLU-1-dimer.test.7725.fchk

                         Distributed Multipole Analysis

Standard DMA

Positions and radii in angstrom
Multipole moments in atomic units, ea_0^k for rank k

C          x = -3.733144  y =  1.262507  z = -2.461574 angstrom
           Maximum rank =  0   Radius =  0.650 angstrom
                   Q00  =  -0.196605

C          x = -0.511144  y =  0.548507  z = -0.599574 angstrom
           Maximum rank =  0   Radius =  0.650 angstrom
                   Q00  =  -0.067695

C          x = -0.988144  y =  0.101507  z =  0.632426 angstrom
           Maximum rank =  0   Radius =  0.650 angstrom
                   Q00  =   0.381989

C          x = -1.404144  y =  0.964507  z = -1.577574 angstrom
           Maximum rank =  0   Radius =  0.650 angstrom
                   Q00  =   0.010806

C          x = -2.780144  y =  0.939507  z = -1.346574 angstrom
           Maximum rank =  0   Radius =  0.650 angstrom
                   Q00  =  -0.136871

C          x = -2.363144  y =  0.082507  z =  0.885426 angstrom
           Maximum rank =  0   Radius =  0.650 angstrom
                   Q00  =  -0.200582

C          x = -3.253144  y =  0.499507  z = -0.106574 angstrom
           Maximum rank =  0   Radius =  0.650 angstrom
                   Q00  =  -0.039764

O          x = -0.105144  y = -0.326493  z =  1.578426 angstrom
           Maximum rank =  0   Radius =  0.650 angstrom
                   Q00  =  -0.621584

H          x =  0.540856  y =  0.580507  z = -0.803574 angstrom
           Maximum rank =  0   Radius =  0.325 angstrom
                   Q00  =   0.104851

H          x = -1.020144  y =  1.305507  z = -2.516574 angstrom
           Maximum rank =  0   Radius =  0.325 angstrom
                   Q00  =   0.040631

H          x = -2.737144  y = -0.267493  z =  1.833426 angstrom
           Maximum rank =  0   Radius =  0.325 angstrom
                   Q00  =   0.053646

H          x = -0.550144  y = -0.541493  z =  2.401426 angstrom
           Maximum rank =  0   Radius =  0.325 angstrom
                   Q00  =   0.369600

H          x = -4.554144  y =  0.544507  z = -2.422574 angstrom
           Maximum rank =  0   Radius =  0.325 angstrom
                   Q00  =   0.079709

H          x = -3.211144  y =  1.072507  z = -3.399574 angstrom
           Maximum rank =  0   Radius =  0.325 angstrom
                   Q00  =   0.085444

H          x = -4.318144  y =  0.447507  z =  0.073426 angstrom
           Maximum rank =  0   Radius =  0.325 angstrom
                   Q00  =   0.040650

H          x = -4.160054  y =  2.275427  z = -2.503334 angstrom
           Maximum rank =  0   Radius =  0.325 angstrom
                   Q00  =   0.077912

C          x =  4.638856  y = -0.868493  z = -0.144574 angstrom
           Maximum rank =  0   Radius =  0.650 angstrom
                   Q00  =  -0.274309

C          x =  3.351856  y = -0.894493  z =  0.668426 angstrom
           Maximum rank =  0   Radius =  0.650 angstrom
                   Q00  =   0.959833

O          x =  2.415856  y = -0.142493  z =  0.342426 angstrom
           Maximum rank =  0   Radius =  0.650 angstrom
                   Q00  =  -0.913715

O          x =  3.294856  y = -1.682493  z =  1.642426 angstrom
           Maximum rank =  0   Radius =  0.650 angstrom
                   Q00  =  -0.930704

H          x =  4.740856  y = -1.831493  z = -0.652574 angstrom
           Maximum rank =  0   Radius =  0.325 angstrom
                   Q00  =   0.070748

H          x =  5.472856  y = -0.762493  z =  0.550426 angstrom
           Maximum rank =  0   Radius =  0.325 angstrom
                   Q00  =   0.061488

H          x =  4.683286  y = -0.058703  z = -0.887714 angstrom
           Maximum rank =  0   Radius =  0.325 angstrom
                   Q00  =   0.044524

Total multipoles referred to origin at
           x =   0.000000,  y =    0.000000,  z =    0.000000 angstrom
                   Q00  =  -1.000000

Finished at 14:45:31 on 28 Apr 2020

  DMA results are available in the Python driver through the
	  variable('DMA DISTRIBUTED MULTIPOLES')
  and
	  variable('DMA TOTAL MULTIPOLES')
  commands.

    Psi4 stopped on: Tuesday, 28 April 2020 02:45PM
    Psi4 wall time for execution: 0:03:33.11

*** Psi4 exiting successfully. Buy a developer a beer!
