                               Psi4 1.3.2 release

  ==> Input File <==

--------------------------------------------------------------------------
import numpy as np
set {scf_type pk
basis cc-pvdz
d_convergence 10
gdma_switch   0
gdma_limit    0
gdma_origin   [ 0.0,  0.0,  0.0 ]
}
molecule test {
    units Angstrom
    -1 1
    --
    -1 1
    C                0.542140768773611    -1.377490310225220    -1.267389284974356
    C                0.478140768773611    -2.907490310225220    -1.107389284974357
    O                1.775140768773611    -0.966490310225220    -1.875389284974356
    H               -0.292859231226389    -1.050490310225220    -1.889389284974357
    H                0.452140768773611    -0.903490310225220    -0.291389284974356
    H                0.539140768773611    -3.369490310225220    -2.092389284974356
    H                1.696140768773611    -0.030490310225220    -2.116389284974356
    H               -0.470099231226389    -3.170639310225221    -0.615875284974356
    H                1.329200768773611    -3.227649310225220    -0.488366984974356
    C               -0.498859231226389     0.425509689774780     2.212610715025644
    C               -0.781859231226389     1.377509689774780     1.056610715025644
    O               -1.926859231226389     1.662509689774780     0.680610715025644
    O                0.219140768773611     1.869509689774780     0.522610715025643
    H                0.130140768773611     0.944509689774780     2.938610715025644
    H                0.054140768773611    -0.438490310225220     1.843610715025644
    H               -1.407009231226389     0.081709689774780     2.729391715025644

}
e, wfn = energy('scf', return_wfn=True)
gdma(wfn)
dmavals = variable('DMA DISTRIBUTED MULTIPOLES')
charges = np.array(dmavals)
print(charges)
np.save('SSI-037SER-043ASP-1-dimer.npy', np.array(charges))--------------------------------------------------------------------------

*** tstart() called on ds3
*** at Tue Apr 28 09:29:39 2020

   => Loading Basis Set <=

    Name: CC-PVDZ
    Role: ORBITAL
    Keyword: BASIS
    atoms 1-2, 10-11 entry C          line   138 file /theoryfs2/ds/metcalf/miniconda2/envs/tf2gpu/share/psi4/basis/cc-pvdz.gbs
    atoms 3, 12-13   entry O          line   198 file /theoryfs2/ds/metcalf/miniconda2/envs/tf2gpu/share/psi4/basis/cc-pvdz.gbs
    atoms 4-9, 14-16 entry H          line    22 file /theoryfs2/ds/metcalf/miniconda2/envs/tf2gpu/share/psi4/basis/cc-pvdz.gbs

         ---------------------------------------------------------
                                   SCF
               by Justin Turney, Rob Parrish, Andy Simmonett
                          and Daniel G. A. Smith
                              RHF Reference
                        1 Threads,    500 MiB Core
         ---------------------------------------------------------

  ==> Geometry <==

    Molecular point group: c1
    Full point group: C1

    Geometry (in Angstrom), charge = -1, multiplicity = 1:

       Center              X                  Y                   Z               Mass
    ------------   -----------------  -----------------  -----------------  -----------------
         C            0.542140768774    -1.377490310225    -1.267389284974    12.000000000000
         C            0.478140768774    -2.907490310225    -1.107389284974    12.000000000000
         O            1.775140768774    -0.966490310225    -1.875389284974    15.994914619570
         H           -0.292859231226    -1.050490310225    -1.889389284974     1.007825032230
         H            0.452140768774    -0.903490310225    -0.291389284974     1.007825032230
         H            0.539140768774    -3.369490310225    -2.092389284974     1.007825032230
         H            1.696140768774    -0.030490310225    -2.116389284974     1.007825032230
         H           -0.470099231226    -3.170639310225    -0.615875284974     1.007825032230
         H            1.329200768774    -3.227649310225    -0.488366984974     1.007825032230
         C           -0.498859231226     0.425509689775     2.212610715026    12.000000000000
         C           -0.781859231226     1.377509689775     1.056610715026    12.000000000000
         O           -1.926859231226     1.662509689775     0.680610715026    15.994914619570
         O            0.219140768774     1.869509689775     0.522610715026    15.994914619570
         H            0.130140768774     0.944509689775     2.938610715026     1.007825032230
         H            0.054140768774    -0.438490310225     1.843610715026     1.007825032230
         H           -1.407009231226     0.081709689775     2.729391715026     1.007825032230

  Running in c1 symmetry.

  Rotational constants: A =      0.12025  B =      0.03077  C =      0.02838 [cm^-1]
  Rotational constants: A =   3605.00294  B =    922.50410  C =    850.82045 [MHz]
  Nuclear repulsion =  288.931377525653261

  Charge       = -1
  Multiplicity = 1
  Electrons    = 58
  Nalpha       = 29
  Nbeta        = 29

  ==> Algorithm <==

  SCF Algorithm Type is PK.
  DIIS enabled.
  MOM disabled.
  Fractional occupation disabled.
  Guess Type is SAD.
  Energy threshold   = 1.00e-06
  Density threshold  = 1.00e-10
  Integral threshold = 0.00e+00

  ==> Primary Basis <==

  Basis Set: CC-PVDZ
    Blend: CC-PVDZ
    Number of shells: 69
    Number of basis function: 143
    Number of Cartesian functions: 150
    Spherical Harmonics?: true
    Max angular momentum: 2

  ==> Pre-Iterations <==

   -------------------------------------------------------
    Irrep   Nso     Nmo     Nalpha   Nbeta   Ndocc  Nsocc
   -------------------------------------------------------
     A        143     143       0       0       0       0
   -------------------------------------------------------
    Total     143     143      29      29      29       0
   -------------------------------------------------------

  ==> Integral Setup <==

  Using integral reordering PK algorithm.
  Sizing the integral batches needed.
  Building batch lookup table.
   Calculation information:
      Number of atoms:                  16
      Number of AO shells:              69
      Number of primitives:            199
      Number of atomic orbitals:       150
      Number of basis functions:       143

      Integral cutoff                 1.00e-12
      Number of threads:                 1

	Batch   1 pq = [       0,    9405] index = [             0,44231715] size =     44231715
	Batch   2 pq = [    9405,   10296] index = [      44231715,53008956] size =      8777241
  Task number: 5
  Buffer size: 11059200
  Buffer per thread: 2
  We computed 2393284 shell quartets total.
  Whereas there are 2917320 unique shell quartets.

  ==> DiskJK: Disk-Based J/K Matrices <==

    J tasked:                  Yes
    K tasked:                  Yes
    wK tasked:                  No
    Memory [MiB]:              375
    Schwarz Cutoff:          1E-12

    OpenMP threads:              1

  Minimum eigenvalue in the overlap matrix is 5.1531264917E-03.
  Using Symmetric Orthogonalization.

  SCF Guess: Superposition of Atomic Densities via on-the-fly atomic UHF.

  ==> Iterations <==

                        Total Energy        Delta E     RMS |[F,P]|

   @RHF iter SAD:  -379.57872373898834   -3.79579e+02   0.00000e+00
   @RHF iter   1:  -381.05371636216506   -1.47499e+00   5.35244e-03 DIIS
   @RHF iter   2:  -381.26661075705886   -2.12894e-01   2.99751e-03 DIIS
   @RHF iter   3:  -381.33157961602143   -6.49689e-02   4.30360e-04 DIIS
   @RHF iter   4:  -381.33418568512809   -2.60607e-03   1.54941e-04 DIIS
   @RHF iter   5:  -381.33452901240520   -3.43327e-04   2.53929e-05 DIIS
   @RHF iter   6:  -381.33454056979161   -1.15574e-05   7.55892e-06 DIIS
   @RHF iter   7:  -381.33454135421272   -7.84421e-07   2.54167e-06 DIIS
   @RHF iter   8:  -381.33454144914623   -9.49335e-08   6.62829e-07 DIIS
   @RHF iter   9:  -381.33454145733111   -8.18488e-09   2.50274e-07 DIIS
   @RHF iter  10:  -381.33454145860532   -1.27420e-09   1.08363e-07 DIIS
   @RHF iter  11:  -381.33454145883798   -2.32660e-10   3.56597e-08 DIIS
   @RHF iter  12:  -381.33454145887487   -3.68914e-11   1.43963e-08 DIIS
   @RHF iter  13:  -381.33454145888038   -5.51381e-12   3.69539e-09 DIIS
   @RHF iter  14:  -381.33454145887760    2.78533e-12   1.09470e-09 DIIS
   @RHF iter  15:  -381.33454145887822   -6.25278e-13   3.57233e-10 DIIS
   @RHF iter  16:  -381.33454145887811    1.13687e-13   9.91030e-11 DIIS
  Energy and wave function converged.

  ==> Post-Iterations <==

    Orbital Energies [Eh]
    ---------------------

    Doubly Occupied:

       1A    -20.426887     2A    -20.255845     3A    -20.251005
       4A    -11.152254     5A    -11.120321     6A    -11.110999
       7A    -11.051773     8A     -1.222310     9A     -1.156372
      10A     -1.036723    11A     -0.895127    12A     -0.797167
      13A     -0.715101    14A     -0.564969    15A     -0.522542
      16A     -0.499136    17A     -0.450635    18A     -0.425765
      19A     -0.420870    20A     -0.411947    21A     -0.408309
      22A     -0.403673    23A     -0.357544    24A     -0.343108
      25A     -0.313177    26A     -0.307387    27A     -0.182905
      28A     -0.167081    29A     -0.158308

    Virtual:

      30A      0.290207    31A      0.328164    32A      0.348879
      33A      0.360095    34A      0.366032    35A      0.383107
      36A      0.401202    37A      0.414334    38A      0.465718
      39A      0.496042    40A      0.502059    41A      0.534802
      42A      0.603094    43A      0.675340    44A      0.708605
      45A      0.720442    46A      0.754410    47A      0.777279
      48A      0.827323    49A      0.858685    50A      0.864769
      51A      0.871328    52A      0.910405    53A      0.961319
      54A      0.979314    55A      0.986548    56A      0.994422
      57A      0.999402    58A      1.023405    59A      1.028145
      60A      1.040011    61A      1.048874    62A      1.060184
      63A      1.101873    64A      1.129739    65A      1.159464
      66A      1.232149    67A      1.256435    68A      1.263053
      69A      1.310489    70A      1.325352    71A      1.373893
      72A      1.400101    73A      1.402877    74A      1.450778
      75A      1.516764    76A      1.561501    77A      1.575141
      78A      1.583914    79A      1.598315    80A      1.613181
      81A      1.635483    82A      1.659169    83A      1.679561
      84A      1.693155    85A      1.735291    86A      1.757155
      87A      1.775822    88A      1.842286    89A      1.861837
      90A      1.911634    91A      1.978989    92A      1.993738
      93A      2.010131    94A      2.016358    95A      2.060924
      96A      2.064456    97A      2.076868    98A      2.087313
      99A      2.101477   100A      2.106188   101A      2.107211
     102A      2.131076   103A      2.215475   104A      2.218600
     105A      2.291618   106A      2.316481   107A      2.341559
     108A      2.357670   109A      2.387985   110A      2.409802
     111A      2.445657   112A      2.461239   113A      2.592308
     114A      2.606993   115A      2.627488   116A      2.645928
     117A      2.670142   118A      2.688280   119A      2.727436
     120A      2.813287   121A      2.862402   122A      2.881496
     123A      2.907072   124A      2.924118   125A      2.963708
     126A      2.991315   127A      3.007969   128A      3.095974
     129A      3.245793   130A      3.286581   131A      3.299640
     132A      3.372801   133A      3.440759   134A      3.517639
     135A      3.570713   136A      3.662221   137A      3.722681
     138A      3.794266   139A      3.837523   140A      4.082412
     141A      4.095638   142A      4.223471   143A      4.226560

    Final Occupation by Irrep:
              A
    DOCC [    29 ]

  @RHF Final Energy:  -381.33454145887811

   => Energetics <=

    Nuclear Repulsion Energy =            288.9313775256532608
    One-Electron Energy =               -1106.2733507332898171
    Two-Electron Energy =                 436.0074317487584494
    Total Energy =                       -381.3345414588781068

Computation Completed

Properties will be evaluated at   0.000000,   0.000000,   0.000000 [a0]

Properties computed using the SCF density matrix

  Nuclear Dipole Moment: [e a0]
     X:     1.9043      Y:   -10.4541      Z:     0.0135

  Electronic Dipole Moment: [e a0]
     X:    -0.9352      Y:     7.7014      Z:    -0.7307

  Dipole Moment: [e a0]
     X:     0.9691      Y:    -2.7526      Z:    -0.7172     Total:     3.0051

  Dipole Moment: [D]
     X:     2.4631      Y:    -6.9965      Z:    -1.8229     Total:     7.6381

*** tstop() called on ds3 at Tue Apr 28 09:30:07 2020
Module time:
	user time   =      17.97 seconds =       0.30 minutes
	system time =       7.73 seconds =       0.13 minutes
	total time  =         28 seconds =       0.47 minutes
Total time:
	user time   =      17.97 seconds =       0.30 minutes
	system time =       7.73 seconds =       0.13 minutes
	total time  =         28 seconds =       0.47 minutes
                                     G D M A

                                 by Anthony Stone

                           version 2.2.06, 22 June 2011

               Distributed Multipoles from Gaussian wavefunctions

Starting at 9:30:7 on 28 Apr 2020

Using SCF density matrix from file ./SSI/SSI-037SER-043ASP-1-dimer.test.10600.fchk

                         Distributed Multipole Analysis

Standard DMA

Positions and radii in angstrom
Multipole moments in atomic units, ea_0^k for rank k

C          x =  0.542141  y = -1.377490  z = -1.267389 angstrom
           Maximum rank =  0   Radius =  0.650 angstrom
                   Q00  =   0.117557

C          x =  0.478141  y = -2.907490  z = -1.107389 angstrom
           Maximum rank =  0   Radius =  0.650 angstrom
                   Q00  =  -0.251345

O          x =  1.775141  y = -0.966490  z = -1.875389 angstrom
           Maximum rank =  0   Radius =  0.650 angstrom
                   Q00  =  -0.624315

H          x = -0.292859  y = -1.050490  z = -1.889389 angstrom
           Maximum rank =  0   Radius =  0.325 angstrom
                   Q00  =   0.038942

H          x =  0.452141  y = -0.903490  z = -0.291389 angstrom
           Maximum rank =  0   Radius =  0.325 angstrom
                   Q00  =   0.078502

H          x =  0.539141  y = -3.369490  z = -2.092389 angstrom
           Maximum rank =  0   Radius =  0.325 angstrom
                   Q00  =   0.067506

H          x =  1.696141  y = -0.030490  z = -2.116389 angstrom
           Maximum rank =  0   Radius =  0.325 angstrom
                   Q00  =   0.407584

H          x = -0.470099  y = -3.170639  z = -0.615875 angstrom
           Maximum rank =  0   Radius =  0.325 angstrom
                   Q00  =   0.082065

H          x =  1.329201  y = -3.227649  z = -0.488367 angstrom
           Maximum rank =  0   Radius =  0.325 angstrom
                   Q00  =   0.077342

C          x = -0.498859  y =  0.425510  z =  2.212611 angstrom
           Maximum rank =  0   Radius =  0.650 angstrom
                   Q00  =  -0.279826

C          x = -0.781859  y =  1.377510  z =  1.056611 angstrom
           Maximum rank =  0   Radius =  0.650 angstrom
                   Q00  =   0.971457

O          x = -1.926859  y =  1.662510  z =  0.680611 angstrom
           Maximum rank =  0   Radius =  0.650 angstrom
                   Q00  =  -0.930360

O          x =  0.219141  y =  1.869510  z =  0.522611 angstrom
           Maximum rank =  0   Radius =  0.650 angstrom
                   Q00  =  -0.933089

H          x =  0.130141  y =  0.944510  z =  2.938611 angstrom
           Maximum rank =  0   Radius =  0.325 angstrom
                   Q00  =   0.072401

H          x =  0.054141  y = -0.438490  z =  1.843611 angstrom
           Maximum rank =  0   Radius =  0.325 angstrom
                   Q00  =   0.066535

H          x = -1.407009  y =  0.081710  z =  2.729392 angstrom
           Maximum rank =  0   Radius =  0.325 angstrom
                   Q00  =   0.039044

Total multipoles referred to origin at
           x =   0.000000,  y =    0.000000,  z =    0.000000 angstrom
                   Q00  =  -1.000000

Finished at 9:30:7 on 28 Apr 2020

  DMA results are available in the Python driver through the
	  variable('DMA DISTRIBUTED MULTIPOLES')
  and
	  variable('DMA TOTAL MULTIPOLES')
  commands.

    Psi4 stopped on: Tuesday, 28 April 2020 09:30AM
    Psi4 wall time for execution: 0:00:28.20

*** Psi4 exiting successfully. Buy a developer a beer!
