                               Psi4 1.3.2 release

  ==> Input File <==

--------------------------------------------------------------------------
import numpy as np
set {scf_type pk
basis cc-pvdz
d_convergence 10
gdma_switch   0
gdma_limit    0
gdma_origin   [ 0.0,  0.0,  0.0 ]
}
molecule test {
    units Angstrom
    0 1
    --
    0 1
    C                2.796420356779739    -3.101760959353387     3.204112978176329
    C               -0.280579643220261    -1.246760959353387     2.002112978176329
    C                1.002420356779739    -1.237760959353387     2.612112978176329
    C                1.482420356779739    -2.601760959353387     2.645112978176329
    C                0.502420356779739    -3.351760959353387     2.068112978176329
    C               -1.026579643220261    -0.087760959353387     1.804112978176329
    C               -0.482579643220261     1.109239040646613     2.235112978176329
    C                0.780420356779739     1.152239040646613     2.841112978176329
    C                1.524420356779739    -0.009760959353387     3.040112978176329
    N               -0.551579643220261    -2.550760959353387     1.685112978176329
    H               -2.003579643220261    -0.130760959353387     1.346112978176329
    H               -1.040579643220261     2.027239040646613     2.101112978176329
    H               -1.390579643220261    -2.892760959353387     1.232112978176329
    H                1.179420356779739     2.102239040646613     3.169112978176329
    H                0.550420356779739    -4.426760959353388     1.933112978176329
    H                2.489420356779739     0.024239040646613     3.516112978176329
    H                3.608420356779739    -2.618760959353387     2.660112978176330
    H                2.866420356779739    -4.167760959353387     3.015112978176329
    H                2.929430356779739    -2.912980959353388     4.279602978176330
    C                0.031420356779739     4.321239040646613    -2.976887021823670
    C               -1.195579643220261     0.948239040646613    -1.753887021823671
    C               -1.067579643220262     0.178239040646613    -2.897887021823671
    C               -0.844579643220261     2.282239040646612    -1.779887021823671
    C               -0.346579643220261     2.861239040646613    -2.947887021823671
    C               -0.582579643220261     0.737239040646613    -4.072887021823671
    C               -0.224579643220261     2.074239040646613    -4.092887021823671
    O               -1.427579643220261    -1.131760959353387    -2.858887021823671
    H               -1.560579643220261     0.496239040646613    -0.845887021823671
    H               -0.943579643220261     2.878239040646613    -0.882887021823671
    H               -0.461579643220261     0.136239040646613    -4.962887021823670
    H               -1.138579643220261    -1.611760959353387    -3.642887021823671
    H                0.910420356779739     4.449239040646612    -3.610887021823671
    H                0.303420356779739     4.641239040646612    -1.971887021823671
    H                0.174420356779739     2.507239040646613    -4.999887021823670
    H               -0.784132643220261     4.955718040646612    -3.354125021823671

}
e, wfn = energy('scf', return_wfn=True)
gdma(wfn)
dmavals = variable('DMA DISTRIBUTED MULTIPOLES')
charges = np.array(dmavals)
print(charges)
np.save('SSI-044TRP-147TYR-1-dimer.npy', np.array(charges))--------------------------------------------------------------------------

*** tstart() called on ds3
*** at Mon Apr 27 19:18:06 2020

   => Loading Basis Set <=

    Name: CC-PVDZ
    Role: ORBITAL
    Keyword: BASIS
    atoms 1-9, 20-26   entry C          line   138 file /theoryfs2/ds/metcalf/miniconda2/envs/tf2gpu/share/psi4/basis/cc-pvdz.gbs
    atoms 10           entry N          line   168 file /theoryfs2/ds/metcalf/miniconda2/envs/tf2gpu/share/psi4/basis/cc-pvdz.gbs
    atoms 11-19, 28-35 entry H          line    22 file /theoryfs2/ds/metcalf/miniconda2/envs/tf2gpu/share/psi4/basis/cc-pvdz.gbs
    atoms 27           entry O          line   198 file /theoryfs2/ds/metcalf/miniconda2/envs/tf2gpu/share/psi4/basis/cc-pvdz.gbs

         ---------------------------------------------------------
                                   SCF
               by Justin Turney, Rob Parrish, Andy Simmonett
                          and Daniel G. A. Smith
                              RHF Reference
                        1 Threads,    500 MiB Core
         ---------------------------------------------------------

  ==> Geometry <==

    Molecular point group: c1
    Full point group: C1

    Geometry (in Angstrom), charge = 0, multiplicity = 1:

       Center              X                  Y                   Z               Mass
    ------------   -----------------  -----------------  -----------------  -----------------
         C            2.796420356780    -3.101760959353     3.204112978176    12.000000000000
         C           -0.280579643220    -1.246760959353     2.002112978176    12.000000000000
         C            1.002420356780    -1.237760959353     2.612112978176    12.000000000000
         C            1.482420356780    -2.601760959353     2.645112978176    12.000000000000
         C            0.502420356780    -3.351760959353     2.068112978176    12.000000000000
         C           -1.026579643220    -0.087760959353     1.804112978176    12.000000000000
         C           -0.482579643220     1.109239040647     2.235112978176    12.000000000000
         C            0.780420356780     1.152239040647     2.841112978176    12.000000000000
         C            1.524420356780    -0.009760959353     3.040112978176    12.000000000000
         N           -0.551579643220    -2.550760959353     1.685112978176    14.003074004430
         H           -2.003579643220    -0.130760959353     1.346112978176     1.007825032230
         H           -1.040579643220     2.027239040647     2.101112978176     1.007825032230
         H           -1.390579643220    -2.892760959353     1.232112978176     1.007825032230
         H            1.179420356780     2.102239040647     3.169112978176     1.007825032230
         H            0.550420356780    -4.426760959353     1.933112978176     1.007825032230
         H            2.489420356780     0.024239040647     3.516112978176     1.007825032230
         H            3.608420356780    -2.618760959353     2.660112978176     1.007825032230
         H            2.866420356780    -4.167760959353     3.015112978176     1.007825032230
         H            2.929430356780    -2.912980959353     4.279602978176     1.007825032230
         C            0.031420356780     4.321239040647    -2.976887021824    12.000000000000
         C           -1.195579643220     0.948239040647    -1.753887021824    12.000000000000
         C           -1.067579643220     0.178239040647    -2.897887021824    12.000000000000
         C           -0.844579643220     2.282239040647    -1.779887021824    12.000000000000
         C           -0.346579643220     2.861239040647    -2.947887021824    12.000000000000
         C           -0.582579643220     0.737239040647    -4.072887021824    12.000000000000
         C           -0.224579643220     2.074239040647    -4.092887021824    12.000000000000
         O           -1.427579643220    -1.131760959353    -2.858887021824    15.994914619570
         H           -1.560579643220     0.496239040647    -0.845887021824     1.007825032230
         H           -0.943579643220     2.878239040647    -0.882887021824     1.007825032230
         H           -0.461579643220     0.136239040647    -4.962887021824     1.007825032230
         H           -1.138579643220    -1.611760959353    -3.642887021824     1.007825032230
         H            0.910420356780     4.449239040647    -3.610887021824     1.007825032230
         H            0.303420356780     4.641239040647    -1.971887021824     1.007825032230
         H            0.174420356780     2.507239040647    -4.999887021824     1.007825032230
         H           -0.784132643220     4.955718040647    -3.354125021824     1.007825032230

  Running in c1 symmetry.

  Rotational constants: A =      0.02247  B =      0.00627  C =      0.00549 [cm^-1]
  Rotational constants: A =    673.62605  B =    187.90647  C =    164.71883 [MHz]
  Nuclear repulsion = 1164.491516348542973

  Charge       = 0
  Multiplicity = 1
  Electrons    = 128
  Nalpha       = 64
  Nbeta        = 64

  ==> Algorithm <==

  SCF Algorithm Type is PK.
  DIIS enabled.
  MOM disabled.
  Fractional occupation disabled.
  Guess Type is SAD.
  Energy threshold   = 1.00e-06
  Density threshold  = 1.00e-10
  Integral threshold = 0.00e+00

  ==> Primary Basis <==

  Basis Set: CC-PVDZ
    Blend: CC-PVDZ
    Number of shells: 159
    Number of basis function: 337
    Number of Cartesian functions: 355
    Spherical Harmonics?: true
    Max angular momentum: 2

  ==> Pre-Iterations <==

   -------------------------------------------------------
    Irrep   Nso     Nmo     Nalpha   Nbeta   Ndocc  Nsocc
   -------------------------------------------------------
     A        337     337       0       0       0       0
   -------------------------------------------------------
    Total     337     337      64      64      64       0
   -------------------------------------------------------

  ==> Integral Setup <==

  Using integral reordering PK algorithm.
  Sizing the integral batches needed.
  Building batch lookup table.
   Calculation information:
      Number of atoms:                  35
      Number of AO shells:             159
      Number of primitives:            481
      Number of atomic orbitals:       355
      Number of basis functions:       337

      Integral cutoff                 1.00e-12
      Number of threads:                 1

	Batch   1 pq = [       0,    9405] index = [             0,44231715] size =     44231715
	Batch   2 pq = [    9405,   13301] index = [      44231715,88464951] size =     44233236
	Batch   3 pq = [   13301,   16290] index = [      88464951,132690195] size =     44225244
	Batch   4 pq = [   16290,   18810] index = [     132690195,176917455] size =     44227260
	Batch   5 pq = [   18810,   21030] index = [     176917455,221140965] size =     44223510
	Batch   6 pq = [   21030,   23037] index = [     221140965,265363203] size =     44222238
	Batch   7 pq = [   23037,   24883] index = [     265363203,309594286] size =     44231083
	Batch   8 pq = [   24883,   26601] index = [     309594286,353819901] size =     44225615
	Batch   9 pq = [   26601,   28214] index = [     353819901,398029005] size =     44209104
	Batch  10 pq = [   28214,   29740] index = [     398029005,442248670] size =     44219665
	Batch  11 pq = [   29740,   31191] index = [     442248670,486454836] size =     44206166
	Batch  12 pq = [   31191,   32578] index = [     486454836,530679331] size =     44224495
	Batch  13 pq = [   32578,   33908] index = [     530679331,574893186] size =     44213855
	Batch  14 pq = [   33908,   35188] index = [     574893186,619115266] size =     44222080
	Batch  15 pq = [   35188,   36423] index = [     619115266,663335676] size =     44220410
	Batch  16 pq = [   36423,   37617] index = [     663335676,707538153] size =     44202477
	Batch  17 pq = [   37617,   38775] index = [     707538153,751769700] size =     44231547
	Batch  18 pq = [   38775,   39899] index = [     751769700,795985050] size =     44215350
	Batch  19 pq = [   39899,   40992] index = [     795985050,840192528] size =     44207478
	Batch  20 pq = [   40992,   42057] index = [     840192528,884416653] size =     44224125
	Batch  21 pq = [   42057,   43095] index = [     884416653,928611060] size =     44194407
	Batch  22 pq = [   43095,   44109] index = [     928611060,972823995] size =     44212935
	Batch  23 pq = [   44109,   45100] index = [     972823995,1017027550] size =     44203555
	Batch  24 pq = [   45100,   46070] index = [    1017027550,1061245485] size =     44217935
	Batch  25 pq = [   46070,   47020] index = [    1061245485,1105463710] size =     44218225
	Batch  26 pq = [   47020,   47951] index = [    1105463710,1149673176] size =     44209466
	Batch  27 pq = [   47951,   48864] index = [    1149673176,1193869680] size =     44196504
	Batch  28 pq = [   48864,   49761] index = [    1193869680,1238103441] size =     44233761
	Batch  29 pq = [   49761,   50642] index = [    1238103441,1282331403] size =     44227962
	Batch  30 pq = [   50642,   51508] index = [    1282331403,1326562786] size =     44231383
	Batch  31 pq = [   51508,   52359] index = [    1326562786,1370758620] size =     44195834
	Batch  32 pq = [   52359,   53197] index = [    1370758620,1414987003] size =     44228383
	Batch  33 pq = [   53197,   54022] index = [    1414987003,1459215253] size =     44228250
	Batch  34 pq = [   54022,   54834] index = [    1459215253,1503411195] size =     44195942
	Batch  35 pq = [   54834,   55634] index = [    1503411195,1547598795] size =     44187600
	Batch  36 pq = [   55634,   56423] index = [    1547598795,1591805676] size =     44206881
	Batch  37 pq = [   56423,   56953] index = [    1591805676,1621850581] size =     30044905
  Task number: 147
  Buffer size: 11059200
  Buffer per thread: 2
  We computed 74283662 shell quartets total.
  Whereas there are 80905560 unique shell quartets.

  ==> DiskJK: Disk-Based J/K Matrices <==

    J tasked:                  Yes
    K tasked:                  Yes
    wK tasked:                  No
    Memory [MiB]:              375
    Schwarz Cutoff:          1E-12

    OpenMP threads:              1

  Minimum eigenvalue in the overlap matrix is 2.4280573377E-04.
  Using Symmetric Orthogonalization.

  SCF Guess: Superposition of Atomic Densities via on-the-fly atomic UHF.

  ==> Iterations <==

                        Total Energy        Delta E     RMS |[F,P]|

   @RHF iter SAD:  -744.37059728287318   -7.44371e+02   0.00000e+00
   @RHF iter   1:  -744.78458079620100   -4.13984e-01   2.21050e-03 DIIS
   @RHF iter   2:  -745.10076915374725   -3.16188e-01   9.63381e-04 DIIS
   @RHF iter   3:  -745.15418527414374   -5.34161e-02   2.54463e-04 DIIS
   @RHF iter   4:  -745.15917317794344   -4.98790e-03   1.14658e-04 DIIS
   @RHF iter   5:  -745.16002754531087   -8.54367e-04   1.70675e-05 DIIS
   @RHF iter   6:  -745.16006439337025   -3.68481e-05   7.96452e-06 DIIS
   @RHF iter   7:  -745.16007190425785   -7.51089e-06   2.94673e-06 DIIS
   @RHF iter   8:  -745.16007366907706   -1.76482e-06   1.20793e-06 DIIS
   @RHF iter   9:  -745.16007401173556   -3.42658e-07   5.33022e-07 DIIS
   @RHF iter  10:  -745.16007408961389   -7.78783e-08   2.50875e-07 DIIS
   @RHF iter  11:  -745.16007411116129   -2.15474e-08   9.96119e-08 DIIS
   @RHF iter  12:  -745.16007411428200   -3.12070e-09   3.97650e-08 DIIS
   @RHF iter  13:  -745.16007411462942   -3.47427e-10   1.36104e-08 DIIS
   @RHF iter  14:  -745.16007411467206   -4.26326e-11   5.35969e-09 DIIS
   @RHF iter  15:  -745.16007411467535   -3.29692e-12   2.11496e-09 DIIS
   @RHF iter  16:  -745.16007411466933    6.02540e-12   9.63884e-10 DIIS
   @RHF iter  17:  -745.16007411467979   -1.04592e-11   5.33664e-10 DIIS
   @RHF iter  18:  -745.16007411467638    3.41061e-12   2.02303e-10 DIIS
   @RHF iter  19:  -745.16007411468263   -6.25278e-12   8.73887e-11 DIIS
  Energy and wave function converged.

  ==> Post-Iterations <==

    Orbital Energies [Eh]
    ---------------------

    Doubly Occupied:

       1A    -20.580007     2A    -15.597967     3A    -11.292954
       4A    -11.262904     5A    -11.262571     6A    -11.233258
       7A    -11.231232     8A    -11.229375     9A    -11.228944
      10A    -11.228235    11A    -11.228132    12A    -11.228084
      13A    -11.227021    14A    -11.224145    15A    -11.221528
      16A    -11.219593    17A    -11.219426    18A    -11.218113
      19A     -1.398307    20A     -1.291314    21A     -1.148861
      22A     -1.125795    23A     -1.068826    24A     -1.033162
      25A     -1.016999    26A     -0.994660    27A     -0.985724
      28A     -0.929133    29A     -0.922082    30A     -0.840699
      31A     -0.837879    32A     -0.801081    33A     -0.799292
      34A     -0.751014    35A     -0.729860    36A     -0.717244
      37A     -0.665281    38A     -0.661369    39A     -0.640885
      40A     -0.636738    41A     -0.604423    42A     -0.600915
      43A     -0.589145    44A     -0.587604    45A     -0.583989
      46A     -0.582815    47A     -0.569186    48A     -0.565164
      49A     -0.561327    50A     -0.550159    51A     -0.534767
      52A     -0.528174    53A     -0.522341    54A     -0.493874
      55A     -0.493093    56A     -0.480944    57A     -0.468818
      58A     -0.464471    59A     -0.458973    60A     -0.370282
      61A     -0.336474    62A     -0.296902    63A     -0.292063
      64A     -0.274691

    Virtual:

      65A      0.126412    66A      0.137724    67A      0.159785
      68A      0.168408    69A      0.177795    70A      0.181012
      71A      0.188365    72A      0.191342    73A      0.201818
      74A      0.221606    75A      0.224307    76A      0.229862
      77A      0.233645    78A      0.247810    79A      0.263621
      80A      0.269217    81A      0.278346    82A      0.282928
      83A      0.286021    84A      0.288593    85A      0.308667
      86A      0.344432    87A      0.373655    88A      0.378075
      89A      0.378924    90A      0.398452    91A      0.406165
      92A      0.410492    93A      0.436599    94A      0.444961
      95A      0.459287    96A      0.475169    97A      0.478038
      98A      0.487636    99A      0.504139   100A      0.507168
     101A      0.514020   102A      0.521859   103A      0.597639
     104A      0.612540   105A      0.617568   106A      0.631946
     107A      0.636888   108A      0.640182   109A      0.649597
     110A      0.664857   111A      0.666955   112A      0.684668
     113A      0.687493   114A      0.702027   115A      0.710233
     116A      0.711793   117A      0.718216   118A      0.727798
     119A      0.730169   120A      0.732902   121A      0.738705
     122A      0.741026   123A      0.743197   124A      0.747136
     125A      0.761756   126A      0.770110   127A      0.774972
     128A      0.778335   129A      0.785288   130A      0.788878
     131A      0.794329   132A      0.796706   133A      0.804436
     134A      0.815029   135A      0.832181   136A      0.844928
     137A      0.853339   138A      0.862269   139A      0.868770
     140A      0.880481   141A      0.881541   142A      0.884801
     143A      0.892859   144A      0.894119   145A      0.898229
     146A      0.906250   147A      0.911849   148A      0.918234
     149A      0.932454   150A      0.939712   151A      0.943960
     152A      0.948084   153A      0.950646   154A      0.958332
     155A      0.964369   156A      0.973014   157A      0.981238
     158A      1.005727   159A      1.012288   160A      1.032723
     161A      1.044450   162A      1.055438   163A      1.070740
     164A      1.084302   165A      1.100357   166A      1.120209
     167A      1.126569   168A      1.144063   169A      1.145920
     170A      1.149650   171A      1.151207   172A      1.174061
     173A      1.175961   174A      1.179822   175A      1.208531
     176A      1.218397   177A      1.226851   178A      1.229552
     179A      1.243303   180A      1.249017   181A      1.253292
     182A      1.260627   183A      1.278437   184A      1.280686
     185A      1.286623   186A      1.296509   187A      1.300957
     188A      1.306046   189A      1.320493   190A      1.329484
     191A      1.331275   192A      1.333424   193A      1.363934
     194A      1.366374   195A      1.371939   196A      1.380930
     197A      1.396760   198A      1.407202   199A      1.446762
     200A      1.482974   201A      1.511400   202A      1.524264
     203A      1.533254   204A      1.558242   205A      1.563501
     206A      1.577562   207A      1.591124   208A      1.618803
     209A      1.627790   210A      1.632794   211A      1.642523
     212A      1.661773   213A      1.682993   214A      1.685163
     215A      1.693485   216A      1.706985   217A      1.735075
     218A      1.743670   219A      1.753918   220A      1.770837
     221A      1.780265   222A      1.787986   223A      1.790792
     224A      1.804911   225A      1.810926   226A      1.816306
     227A      1.827660   228A      1.832642   229A      1.875915
     230A      1.890424   231A      1.891160   232A      1.894137
     233A      1.904295   234A      1.909495   235A      1.912163
     236A      1.915699   237A      1.916819   238A      1.927783
     239A      1.933267   240A      1.936924   241A      1.946884
     242A      1.947695   243A      1.970976   244A      1.972294
     245A      1.977057   246A      1.983825   247A      1.991430
     248A      2.002774   249A      2.013953   250A      2.016503
     251A      2.038671   252A      2.050158   253A      2.056438
     254A      2.067507   255A      2.073807   256A      2.080046
     257A      2.083920   258A      2.087672   259A      2.092396
     260A      2.102985   261A      2.106628   262A      2.121648
     263A      2.138773   264A      2.144270   265A      2.153787
     266A      2.159711   267A      2.167959   268A      2.177411
     269A      2.185978   270A      2.221090   271A      2.224860
     272A      2.237014   273A      2.238751   274A      2.274347
     275A      2.285219   276A      2.291766   277A      2.298173
     278A      2.310017   279A      2.320845   280A      2.329743
     281A      2.337861   282A      2.365004   283A      2.377041
     284A      2.392615   285A      2.423571   286A      2.430609
     287A      2.454945   288A      2.459936   289A      2.470453
     290A      2.486305   291A      2.510151   292A      2.534461
     293A      2.542857   294A      2.554388   295A      2.583986
     296A      2.602007   297A      2.611991   298A      2.642621
     299A      2.649783   300A      2.652548   301A      2.676870
     302A      2.695537   303A      2.764426   304A      2.770933
     305A      2.778968   306A      2.781371   307A      2.794323
     308A      2.797197   309A      2.801706   310A      2.821698
     311A      2.833149   312A      2.847440   313A      2.870213
     314A      2.882515   315A      2.906797   316A      2.916189
     317A      2.967697   318A      2.978772   319A      3.008282
     320A      3.032937   321A      3.055853   322A      3.074463
     323A      3.105490   324A      3.118028   325A      3.124448
     326A      3.202730   327A      3.259700   328A      3.298712
     329A      3.300055   330A      3.357386   331A      3.378438
     332A      3.584634   333A      3.687107   334A      3.739915
     335A      3.950126   336A      3.987645   337A      4.195114

    Final Occupation by Irrep:
              A
    DOCC [    64 ]

  @RHF Final Energy:  -745.16007411468263

   => Energetics <=

    Nuclear Repulsion Energy =           1164.4915163485429730
    One-Electron Energy =               -3323.8226112629313320
    Two-Electron Energy =                1414.1710207997057296
    Total Energy =                       -745.1600741146826294

Computation Completed

Properties will be evaluated at   0.000000,   0.000000,   0.000000 [a0]

Properties computed using the SCF density matrix

  Nuclear Dipole Moment: [e a0]
     X:     5.3276      Y:     5.1171      Z:    -0.9738

  Electronic Dipole Moment: [e a0]
     X:    -5.3877      Y:    -5.7182      Z:     0.2800

  Dipole Moment: [e a0]
     X:    -0.0601      Y:    -0.6011      Z:    -0.6938     Total:     0.9199

  Dipole Moment: [D]
     X:    -0.1527      Y:    -1.5279      Z:    -1.7634     Total:     2.3382

*** tstop() called on ds3 at Mon Apr 27 20:47:39 2020
Module time:
	user time   =     716.56 seconds =      11.94 minutes
	system time =     300.03 seconds =       5.00 minutes
	total time  =       5373 seconds =      89.55 minutes
Total time:
	user time   =     716.56 seconds =      11.94 minutes
	system time =     300.03 seconds =       5.00 minutes
	total time  =       5373 seconds =      89.55 minutes
                                     G D M A

                                 by Anthony Stone

                           version 2.2.06, 22 June 2011

               Distributed Multipoles from Gaussian wavefunctions

Starting at 20:47:39 on 27 Apr 2020

Using SCF density matrix from file ./SSI/SSI-044TRP-147TYR-1-dimer.test.4804.fchk

                         Distributed Multipole Analysis

Standard DMA

Positions and radii in angstrom
Multipole moments in atomic units, ea_0^k for rank k

C          x =  2.796420  y = -3.101761  z =  3.204113 angstrom
           Maximum rank =  0   Radius =  0.650 angstrom
                   Q00  =  -0.204830

C          x = -0.280580  y = -1.246761  z =  2.002113 angstrom
           Maximum rank =  0   Radius =  0.650 angstrom
                   Q00  =   0.300392

C          x =  1.002420  y = -1.237761  z =  2.612113 angstrom
           Maximum rank =  0   Radius =  0.650 angstrom
                   Q00  =  -0.060327

C          x =  1.482420  y = -2.601761  z =  2.645113 angstrom
           Maximum rank =  0   Radius =  0.650 angstrom
                   Q00  =  -0.127866

C          x =  0.502420  y = -3.351761  z =  2.068113 angstrom
           Maximum rank =  0   Radius =  0.650 angstrom
                   Q00  =   0.076601

C          x = -1.026580  y = -0.087761  z =  1.804113 angstrom
           Maximum rank =  0   Radius =  0.650 angstrom
                   Q00  =  -0.130013

C          x = -0.482580  y =  1.109239  z =  2.235113 angstrom
           Maximum rank =  0   Radius =  0.650 angstrom
                   Q00  =  -0.070520

C          x =  0.780420  y =  1.152239  z =  2.841113 angstrom
           Maximum rank =  0   Radius =  0.650 angstrom
                   Q00  =  -0.089113

C          x =  1.524420  y = -0.009761  z =  3.040113 angstrom
           Maximum rank =  0   Radius =  0.650 angstrom
                   Q00  =  -0.085287

N          x = -0.551580  y = -2.550761  z =  1.685113 angstrom
           Maximum rank =  0   Radius =  0.650 angstrom
                   Q00  =  -0.499790

H          x = -2.003580  y = -0.130761  z =  1.346113 angstrom
           Maximum rank =  0   Radius =  0.325 angstrom
                   Q00  =   0.076786

H          x = -1.040580  y =  2.027239  z =  2.101113 angstrom
           Maximum rank =  0   Radius =  0.325 angstrom
                   Q00  =   0.063622

H          x = -1.390580  y = -2.892761  z =  1.232113 angstrom
           Maximum rank =  0   Radius =  0.325 angstrom
                   Q00  =   0.218875

H          x =  1.179420  y =  2.102239  z =  3.169113 angstrom
           Maximum rank =  0   Radius =  0.325 angstrom
                   Q00  =   0.059113

H          x =  0.550420  y = -4.426761  z =  1.933113 angstrom
           Maximum rank =  0   Radius =  0.325 angstrom
                   Q00  =   0.100885

H          x =  2.489420  y =  0.024239  z =  3.516113 angstrom
           Maximum rank =  0   Radius =  0.325 angstrom
                   Q00  =   0.069854

H          x =  3.608420  y = -2.618761  z =  2.660113 angstrom
           Maximum rank =  0   Radius =  0.325 angstrom
                   Q00  =   0.098775

H          x =  2.866420  y = -4.167761  z =  3.015113 angstrom
           Maximum rank =  0   Radius =  0.325 angstrom
                   Q00  =   0.104988

H          x =  2.929430  y = -2.912981  z =  4.279603 angstrom
           Maximum rank =  0   Radius =  0.325 angstrom
                   Q00  =   0.098929

C          x =  0.031420  y =  4.321239  z = -2.976887 angstrom
           Maximum rank =  0   Radius =  0.650 angstrom
                   Q00  =  -0.190695

C          x = -1.195580  y =  0.948239  z = -1.753887 angstrom
           Maximum rank =  0   Radius =  0.650 angstrom
                   Q00  =  -0.089773

C          x = -1.067580  y =  0.178239  z = -2.897887 angstrom
           Maximum rank =  0   Radius =  0.650 angstrom
                   Q00  =   0.396743

C          x = -0.844580  y =  2.282239  z = -1.779887 angstrom
           Maximum rank =  0   Radius =  0.650 angstrom
                   Q00  =   0.008291

C          x = -0.346580  y =  2.861239  z = -2.947887 angstrom
           Maximum rank =  0   Radius =  0.650 angstrom
                   Q00  =  -0.144301

C          x = -0.582580  y =  0.737239  z = -4.072887 angstrom
           Maximum rank =  0   Radius =  0.650 angstrom
                   Q00  =  -0.195418

C          x = -0.224580  y =  2.074239  z = -4.092887 angstrom
           Maximum rank =  0   Radius =  0.650 angstrom
                   Q00  =  -0.062994

O          x = -1.427580  y = -1.131761  z = -2.858887 angstrom
           Maximum rank =  0   Radius =  0.650 angstrom
                   Q00  =  -0.679390

H          x = -1.560580  y =  0.496239  z = -0.845887 angstrom
           Maximum rank =  0   Radius =  0.325 angstrom
                   Q00  =   0.069283

H          x = -0.943580  y =  2.878239  z = -0.882887 angstrom
           Maximum rank =  0   Radius =  0.325 angstrom
                   Q00  =   0.057830

H          x = -0.461580  y =  0.136239  z = -4.962887 angstrom
           Maximum rank =  0   Radius =  0.325 angstrom
                   Q00  =   0.069936

H          x = -1.138580  y = -1.611761  z = -3.642887 angstrom
           Maximum rank =  0   Radius =  0.325 angstrom
                   Q00  =   0.404253

H          x =  0.910420  y =  4.449239  z = -3.610887 angstrom
           Maximum rank =  0   Radius =  0.325 angstrom
                   Q00  =   0.094627

H          x =  0.303420  y =  4.641239  z = -1.971887 angstrom
           Maximum rank =  0   Radius =  0.325 angstrom
                   Q00  =   0.096712

H          x =  0.174420  y =  2.507239  z = -4.999887 angstrom
           Maximum rank =  0   Radius =  0.325 angstrom
                   Q00  =   0.065618

H          x = -0.784133  y =  4.955718  z = -3.354125 angstrom
           Maximum rank =  0   Radius =  0.325 angstrom
                   Q00  =   0.098205

Total multipoles referred to origin at
           x =   0.000000,  y =    0.000000,  z =    0.000000 angstrom
                   Q00  =  -0.000000

Finished at 20:47:39 on 27 Apr 2020

  DMA results are available in the Python driver through the
	  variable('DMA DISTRIBUTED MULTIPOLES')
  and
	  variable('DMA TOTAL MULTIPOLES')
  commands.

    Psi4 stopped on: Monday, 27 April 2020 08:47PM
    Psi4 wall time for execution: 1:29:33.31

*** Psi4 exiting successfully. Buy a developer a beer!
