                               Psi4 1.3.2 release

  ==> Input File <==

--------------------------------------------------------------------------
import numpy as np
set {scf_type pk
basis cc-pvdz
d_convergence 10
gdma_switch   0
gdma_limit    0
gdma_origin   [ 0.0,  0.0,  0.0 ]
}
molecule test {
    units Angstrom
    0 1
    --
    0 1
    C               -1.670413701396521     3.870476298716593    -1.115935950579212
    C                0.483586298603479     1.250476298716593     0.591064049420788
    C               -0.434413701396521     1.857476298716593    -0.265935950579212
    C                1.219586298603479     2.031476298716593     1.480064049420788
    C               -0.631413701396521     3.236476298716593    -0.234935950579212
    C                1.035586298603479     3.412476298716593     1.503064049420788
    C                0.111586298603479     4.008476298716593     0.653064049420788
    H                0.613586298603479     0.179476298716593     0.576064049420788
    H               -0.994413701396521     1.247476298716593    -0.958935950579212
    H                1.920586298603479     1.565476298716593     2.157064049420788
    H                1.597586298603479     4.008476298716593     2.202064049420788
    H               -1.838413701396521     4.906476298716593    -0.816935950579212
    H               -2.605413701396522     3.331476298716593    -0.953935950579212
    H               -0.035413701396521     5.078476298716592     0.693064049420788
    H               -1.423425701396521     3.832426298716593    -2.187172950579212
    C               -0.030413701396521    -2.269523701283407    -2.743935950579212
    C                1.078586298603479    -2.239523701283407    -0.475935950579212
    C               -0.005413701396521    -2.622523701283407    -1.269935950579212
    C                1.121586298603479    -2.572523701283407     0.880064049420788
    C                0.062586298603479    -3.264523701283407     1.458064049420788
    C               -1.068413701396521    -3.306523701283406    -0.674935950579212
    C               -1.047413701396521    -3.597523701283407     0.693064049420788
    H                1.903586298603479    -1.697523701283407    -0.916935950579212
    H                1.976586298603479    -2.291523701283407     1.480064049420788
    H                0.589586298603479    -1.383523701283407    -2.888935950579212
    H               -1.041413701396521    -1.995523701283407    -3.027935950579212
    H                0.094586298603479    -3.526523701283407     2.507064049420788
    H               -1.913413701396521    -3.618523701283407    -1.270935950579212
    H               -1.869413701396521    -4.132523701283407     1.140064049420788
    H                0.343702298603479    -3.059243701283407    -3.412050950579212

}
e, wfn = energy('scf', return_wfn=True)
gdma(wfn)
dmavals = variable('DMA DISTRIBUTED MULTIPOLES')
charges = np.array(dmavals)
print(charges)
np.save('SSI-049PHE-056PHE-1-dimer.npy', np.array(charges))--------------------------------------------------------------------------

*** tstart() called on ds3
*** at Mon Apr 27 06:41:30 2020

   => Loading Basis Set <=

    Name: CC-PVDZ
    Role: ORBITAL
    Keyword: BASIS
    atoms 1-7, 16-22  entry C          line   138 file /theoryfs2/ds/metcalf/miniconda2/envs/tf2gpu/share/psi4/basis/cc-pvdz.gbs
    atoms 8-15, 23-30 entry H          line    22 file /theoryfs2/ds/metcalf/miniconda2/envs/tf2gpu/share/psi4/basis/cc-pvdz.gbs

         ---------------------------------------------------------
                                   SCF
               by Justin Turney, Rob Parrish, Andy Simmonett
                          and Daniel G. A. Smith
                              RHF Reference
                        1 Threads,    500 MiB Core
         ---------------------------------------------------------

  ==> Geometry <==

    Molecular point group: c1
    Full point group: C1

    Geometry (in Angstrom), charge = 0, multiplicity = 1:

       Center              X                  Y                   Z               Mass
    ------------   -----------------  -----------------  -----------------  -----------------
         C           -1.670413701397     3.870476298717    -1.115935950579    12.000000000000
         C            0.483586298603     1.250476298717     0.591064049421    12.000000000000
         C           -0.434413701397     1.857476298717    -0.265935950579    12.000000000000
         C            1.219586298603     2.031476298717     1.480064049421    12.000000000000
         C           -0.631413701397     3.236476298717    -0.234935950579    12.000000000000
         C            1.035586298603     3.412476298717     1.503064049421    12.000000000000
         C            0.111586298603     4.008476298717     0.653064049421    12.000000000000
         H            0.613586298603     0.179476298717     0.576064049421     1.007825032230
         H           -0.994413701397     1.247476298717    -0.958935950579     1.007825032230
         H            1.920586298603     1.565476298717     2.157064049421     1.007825032230
         H            1.597586298603     4.008476298717     2.202064049421     1.007825032230
         H           -1.838413701397     4.906476298717    -0.816935950579     1.007825032230
         H           -2.605413701397     3.331476298717    -0.953935950579     1.007825032230
         H           -0.035413701397     5.078476298717     0.693064049421     1.007825032230
         H           -1.423425701397     3.832426298717    -2.187172950579     1.007825032230
         C           -0.030413701397    -2.269523701283    -2.743935950579    12.000000000000
         C            1.078586298603    -2.239523701283    -0.475935950579    12.000000000000
         C           -0.005413701397    -2.622523701283    -1.269935950579    12.000000000000
         C            1.121586298603    -2.572523701283     0.880064049421    12.000000000000
         C            0.062586298603    -3.264523701283     1.458064049421    12.000000000000
         C           -1.068413701397    -3.306523701283    -0.674935950579    12.000000000000
         C           -1.047413701397    -3.597523701283     0.693064049421    12.000000000000
         H            1.903586298603    -1.697523701283    -0.916935950579     1.007825032230
         H            1.976586298603    -2.291523701283     1.480064049421     1.007825032230
         H            0.589586298603    -1.383523701283    -2.888935950579     1.007825032230
         H           -1.041413701397    -1.995523701283    -3.027935950579     1.007825032230
         H            0.094586298603    -3.526523701283     2.507064049421     1.007825032230
         H           -1.913413701397    -3.618523701283    -1.270935950579     1.007825032230
         H           -1.869413701397    -4.132523701283     1.140064049421     1.007825032230
         H            0.343702298603    -3.059243701283    -3.412050950579     1.007825032230

  Running in c1 symmetry.

  Rotational constants: A =      0.03724  B =      0.00973  C =      0.00860 [cm^-1]
  Rotational constants: A =   1116.37632  B =    291.72733  C =    257.81967 [MHz]
  Nuclear repulsion =  764.079197305465073

  Charge       = 0
  Multiplicity = 1
  Electrons    = 100
  Nalpha       = 50
  Nbeta        = 50

  ==> Algorithm <==

  SCF Algorithm Type is PK.
  DIIS enabled.
  MOM disabled.
  Fractional occupation disabled.
  Guess Type is SAD.
  Energy threshold   = 1.00e-06
  Density threshold  = 1.00e-10
  Integral threshold = 0.00e+00

  ==> Primary Basis <==

  Basis Set: CC-PVDZ
    Blend: CC-PVDZ
    Number of shells: 132
    Number of basis function: 276
    Number of Cartesian functions: 290
    Spherical Harmonics?: true
    Max angular momentum: 2

  ==> Pre-Iterations <==

   -------------------------------------------------------
    Irrep   Nso     Nmo     Nalpha   Nbeta   Ndocc  Nsocc
   -------------------------------------------------------
     A        276     276       0       0       0       0
   -------------------------------------------------------
    Total     276     276      50      50      50       0
   -------------------------------------------------------

  ==> Integral Setup <==

  Using integral reordering PK algorithm.
  Sizing the integral batches needed.
  Building batch lookup table.
   Calculation information:
      Number of atoms:                  30
      Number of AO shells:             132
      Number of primitives:            388
      Number of atomic orbitals:       290
      Number of basis functions:       276

      Integral cutoff                 1.00e-12
      Number of threads:                 1

	Batch   1 pq = [       0,    9405] index = [             0,44231715] size =     44231715
	Batch   2 pq = [    9405,   13301] index = [      44231715,88464951] size =     44233236
	Batch   3 pq = [   13301,   16290] index = [      88464951,132690195] size =     44225244
	Batch   4 pq = [   16290,   18810] index = [     132690195,176917455] size =     44227260
	Batch   5 pq = [   18810,   21030] index = [     176917455,221140965] size =     44223510
	Batch   6 pq = [   21030,   23037] index = [     221140965,265363203] size =     44222238
	Batch   7 pq = [   23037,   24883] index = [     265363203,309594286] size =     44231083
	Batch   8 pq = [   24883,   26601] index = [     309594286,353819901] size =     44225615
	Batch   9 pq = [   26601,   28214] index = [     353819901,398029005] size =     44209104
	Batch  10 pq = [   28214,   29740] index = [     398029005,442248670] size =     44219665
	Batch  11 pq = [   29740,   31191] index = [     442248670,486454836] size =     44206166
	Batch  12 pq = [   31191,   32578] index = [     486454836,530679331] size =     44224495
	Batch  13 pq = [   32578,   33908] index = [     530679331,574893186] size =     44213855
	Batch  14 pq = [   33908,   35188] index = [     574893186,619115266] size =     44222080
	Batch  15 pq = [   35188,   36423] index = [     619115266,663335676] size =     44220410
	Batch  16 pq = [   36423,   37617] index = [     663335676,707538153] size =     44202477
	Batch  17 pq = [   37617,   38226] index = [     707538153,730632651] size =     23094498
  Task number: 67
  Buffer size: 11059200
  Buffer per thread: 2
  We computed 35011713 shell quartets total.
  Whereas there are 38531031 unique shell quartets.

  ==> DiskJK: Disk-Based J/K Matrices <==

    J tasked:                  Yes
    K tasked:                  Yes
    wK tasked:                  No
    Memory [MiB]:              375
    Schwarz Cutoff:          1E-12

    OpenMP threads:              1

  Minimum eigenvalue in the overlap matrix is 2.9609679474E-04.
  Using Symmetric Orthogonalization.

  SCF Guess: Superposition of Atomic Densities via on-the-fly atomic UHF.

  ==> Iterations <==

                        Total Energy        Delta E     RMS |[F,P]|

   @RHF iter SAD:  -538.35528130967748   -5.38355e+02   0.00000e+00
   @RHF iter   1:  -539.23006883348125   -8.74788e-01   2.29327e-03 DIIS
   @RHF iter   2:  -539.48030088060466   -2.50232e-01   9.26331e-04 DIIS
   @RHF iter   3:  -539.51621939432403   -3.59185e-02   2.13221e-04 DIIS
   @RHF iter   4:  -539.51931475084177   -3.09536e-03   4.83291e-05 DIIS
   @RHF iter   5:  -539.51943081480283   -1.16064e-04   1.53167e-05 DIIS
   @RHF iter   6:  -539.51944184485387   -1.10301e-05   4.37748e-06 DIIS
   @RHF iter   7:  -539.51944295242947   -1.10758e-06   1.13288e-06 DIIS
   @RHF iter   8:  -539.51944305516668   -1.02737e-07   3.37899e-07 DIIS
   @RHF iter   9:  -539.51944307374424   -1.85776e-08   1.48289e-07 DIIS
   @RHF iter  10:  -539.51944307782026   -4.07601e-09   7.68527e-08 DIIS
   @RHF iter  11:  -539.51944307912629   -1.30603e-09   2.81817e-08 DIIS
   @RHF iter  12:  -539.51944307929500   -1.68711e-10   1.16350e-08 DIIS
   @RHF iter  13:  -539.51944307931387   -1.88720e-11   3.96045e-09 DIIS
   @RHF iter  14:  -539.51944307931080    3.06954e-12   9.97652e-10 DIIS
   @RHF iter  15:  -539.51944307931080    0.00000e+00   4.41861e-10 DIIS
   @RHF iter  16:  -539.51944307931092   -1.13687e-13   1.97123e-10 DIIS
   @RHF iter  17:  -539.51944307931603   -5.11591e-12   9.11241e-11 DIIS
  Energy and wave function converged.

  ==> Post-Iterations <==

    Orbital Energies [Eh]
    ---------------------

    Doubly Occupied:

       1A    -11.244959     2A    -11.238749     3A    -11.238050
       4A    -11.235615     5A    -11.234589     6A    -11.234324
       7A    -11.233938     8A    -11.231672     9A    -11.230117
      10A    -11.227598    11A    -11.226171    12A    -11.225572
      13A    -11.225280    14A    -11.224283    15A     -1.153787
      16A     -1.147490    17A     -1.045428    18A     -1.039897
      19A     -1.013203    20A     -1.006003    21A     -0.933484
      22A     -0.926816    23A     -0.827591    24A     -0.819930
      25A     -0.797711    26A     -0.790209    27A     -0.693290
      28A     -0.685897    29A     -0.633224    30A     -0.632422
      31A     -0.626404    32A     -0.625253    33A     -0.584866
      34A     -0.580412    35A     -0.575388    36A     -0.573375
      37A     -0.564229    38A     -0.558102    39A     -0.536571
      40A     -0.531570    41A     -0.492035    42A     -0.487256
      43A     -0.483397    44A     -0.481163    45A     -0.477648
      46A     -0.476547    47A     -0.333464    48A     -0.327292
      49A     -0.325028    50A     -0.316780

    Virtual:

      51A      0.130580    52A      0.136725    53A      0.139973
      54A      0.148820    55A      0.172239    56A      0.190232
      57A      0.195158    58A      0.207582    59A      0.217408
      60A      0.236326    61A      0.240277    62A      0.248604
      63A      0.256060    64A      0.259294    65A      0.271652
      66A      0.275408    67A      0.284726    68A      0.291318
      69A      0.298707    70A      0.320025    71A      0.359629
      72A      0.370630    73A      0.374978    74A      0.382490
      75A      0.448308    76A      0.456800    77A      0.463116
      78A      0.465470    79A      0.478562    80A      0.479992
      81A      0.491718    82A      0.505384    83A      0.560522
      84A      0.569081    85A      0.593483    86A      0.600470
      87A      0.630107    88A      0.646317    89A      0.672957
      90A      0.679354    91A      0.684496    92A      0.694268
      93A      0.696145    94A      0.700069    95A      0.715946
      96A      0.722840    97A      0.733783    98A      0.734824
      99A      0.739653   100A      0.743970   101A      0.745503
     102A      0.751261   103A      0.755959   104A      0.757742
     105A      0.762313   106A      0.772199   107A      0.778940
     108A      0.786925   109A      0.796607   110A      0.818548
     111A      0.824083   112A      0.846978   113A      0.856836
     114A      0.859141   115A      0.861076   116A      0.870952
     117A      0.872177   118A      0.882930   119A      0.888254
     120A      0.893480   121A      0.895749   122A      0.904191
     123A      0.904958   124A      0.919800   125A      0.928032
     126A      0.931263   127A      0.942032   128A      0.946829
     129A      0.958429   130A      0.972227   131A      0.988539
     132A      1.008330   133A      1.011412   134A      1.036565
     135A      1.051305   136A      1.087732   137A      1.120830
     138A      1.126988   139A      1.134098   140A      1.147597
     141A      1.152262   142A      1.155979   143A      1.159896
     144A      1.184478   145A      1.198671   146A      1.216675
     147A      1.228934   148A      1.242029   149A      1.244341
     150A      1.250158   151A      1.251798   152A      1.256297
     153A      1.270140   154A      1.291358   155A      1.301591
     156A      1.306181   157A      1.311720   158A      1.313149
     159A      1.319734   160A      1.328090   161A      1.344096
     162A      1.367886   163A      1.413196   164A      1.437455
     165A      1.500860   166A      1.507079   167A      1.530378
     168A      1.545478   169A      1.553570   170A      1.562414
     171A      1.597584   172A      1.611827   173A      1.676382
     174A      1.686758   175A      1.687730   176A      1.699728
     177A      1.728725   178A      1.740212   179A      1.744750
     180A      1.749377   181A      1.761375   182A      1.765159
     183A      1.789296   184A      1.796866   185A      1.810283
     186A      1.823160   187A      1.853794   188A      1.861058
     189A      1.878293   190A      1.886043   191A      1.896428
     192A      1.900394   193A      1.909836   194A      1.916139
     195A      1.916709   196A      1.924133   197A      1.926168
     198A      1.935782   199A      1.940801   200A      1.947096
     201A      1.952650   202A      1.962417   203A      1.964889
     204A      1.974644   205A      1.983986   206A      1.991543
     207A      1.999712   208A      2.016641   209A      2.031282
     210A      2.038810   211A      2.058729   212A      2.062057
     213A      2.076659   214A      2.080744   215A      2.105398
     216A      2.114362   217A      2.135702   218A      2.142872
     219A      2.147161   220A      2.155148   221A      2.162184
     222A      2.166559   223A      2.171022   224A      2.182101
     225A      2.195925   226A      2.209502   227A      2.243194
     228A      2.250972   229A      2.271579   230A      2.281496
     231A      2.290726   232A      2.293991   233A      2.300796
     234A      2.312165   235A      2.314431   236A      2.325679
     237A      2.352164   238A      2.362823   239A      2.452000
     240A      2.465857   241A      2.472330   242A      2.485472
     243A      2.494760   244A      2.523032   245A      2.539056
     246A      2.541233   247A      2.612836   248A      2.637676
     249A      2.723783   250A      2.737217   251A      2.751993
     252A      2.766336   253A      2.771850   254A      2.776600
     255A      2.786081   256A      2.796217   257A      2.807090
     258A      2.849569   259A      2.851727   260A      2.854230
     261A      2.870420   262A      2.874563   263A      2.974868
     264A      2.984094   265A      3.006786   266A      3.011749
     267A      3.036282   268A      3.038580   269A      3.147060
     270A      3.170234   271A      3.190119   272A      3.209535
     273A      3.289388   274A      3.319093   275A      3.954843
     276A      3.976912

    Final Occupation by Irrep:
              A
    DOCC [    50 ]

  @RHF Final Energy:  -539.51944307931603

   => Energetics <=

    Nuclear Repulsion Energy =            764.0791973054650725
    One-Electron Energy =               -2244.4891276286043649
    Two-Electron Energy =                 940.8904872438231450
    Total Energy =                       -539.5194430793160336

Computation Completed

Properties will be evaluated at   0.000000,   0.000000,   0.000000 [a0]

Properties computed using the SCF density matrix

  Nuclear Dipole Moment: [e a0]
     X:    -2.5138      Y:     2.2920      Z:    -5.3233

  Electronic Dipole Moment: [e a0]
     X:     2.3890      Y:    -2.3836      Z:     5.1372

  Dipole Moment: [e a0]
     X:    -0.1248      Y:    -0.0916      Z:    -0.1861     Total:     0.2421

  Dipole Moment: [D]
     X:    -0.3173      Y:    -0.2328      Z:    -0.4730     Total:     0.6153

*** tstop() called on ds3 at Mon Apr 27 06:50:05 2020
Module time:
	user time   =     289.17 seconds =       4.82 minutes
	system time =     110.08 seconds =       1.83 minutes
	total time  =        515 seconds =       8.58 minutes
Total time:
	user time   =     289.17 seconds =       4.82 minutes
	system time =     110.08 seconds =       1.83 minutes
	total time  =        515 seconds =       8.58 minutes
                                     G D M A

                                 by Anthony Stone

                           version 2.2.06, 22 June 2011

               Distributed Multipoles from Gaussian wavefunctions

Starting at 6:50:5 on 27 Apr 2020

Using SCF density matrix from file ./SSI/SSI-049PHE-056PHE-1-dimer.test.32350.fchk

                         Distributed Multipole Analysis

Standard DMA

Positions and radii in angstrom
Multipole moments in atomic units, ea_0^k for rank k

C          x = -1.670414  y =  3.870476  z = -1.115936 angstrom
           Maximum rank =  0   Radius =  0.650 angstrom
                   Q00  =  -0.198086

C          x =  0.483586  y =  1.250476  z =  0.591064 angstrom
           Maximum rank =  0   Radius =  0.650 angstrom
                   Q00  =  -0.067030

C          x = -0.434414  y =  1.857476  z = -0.265936 angstrom
           Maximum rank =  0   Radius =  0.650 angstrom
                   Q00  =  -0.016908

C          x =  1.219586  y =  2.031476  z =  1.480064 angstrom
           Maximum rank =  0   Radius =  0.650 angstrom
                   Q00  =  -0.092769

C          x = -0.631414  y =  3.236476  z = -0.234936 angstrom
           Maximum rank =  0   Radius =  0.650 angstrom
                   Q00  =  -0.102581

C          x =  1.035586  y =  3.412476  z =  1.503064 angstrom
           Maximum rank =  0   Radius =  0.650 angstrom
                   Q00  =  -0.078252

C          x =  0.111586  y =  4.008476  z =  0.653064 angstrom
           Maximum rank =  0   Radius =  0.650 angstrom
                   Q00  =  -0.050909

H          x =  0.613586  y =  0.179476  z =  0.576064 angstrom
           Maximum rank =  0   Radius =  0.325 angstrom
                   Q00  =   0.085214

H          x = -0.994414  y =  1.247476  z = -0.958936 angstrom
           Maximum rank =  0   Radius =  0.325 angstrom
                   Q00  =   0.050243

H          x =  1.920586  y =  1.565476  z =  2.157064 angstrom
           Maximum rank =  0   Radius =  0.325 angstrom
                   Q00  =   0.054461

H          x =  1.597586  y =  4.008476  z =  2.202064 angstrom
           Maximum rank =  0   Radius =  0.325 angstrom
                   Q00  =   0.062180

H          x = -1.838414  y =  4.906476  z = -0.816936 angstrom
           Maximum rank =  0   Radius =  0.325 angstrom
                   Q00  =   0.096916

H          x = -2.605414  y =  3.331476  z = -0.953936 angstrom
           Maximum rank =  0   Radius =  0.325 angstrom
                   Q00  =   0.098056

H          x = -0.035414  y =  5.078476  z =  0.693064 angstrom
           Maximum rank =  0   Radius =  0.325 angstrom
                   Q00  =   0.056058

H          x = -1.423426  y =  3.832426  z = -2.187173 angstrom
           Maximum rank =  0   Radius =  0.325 angstrom
                   Q00  =   0.102042

C          x = -0.030414  y = -2.269524  z = -2.743936 angstrom
           Maximum rank =  0   Radius =  0.650 angstrom
                   Q00  =  -0.206133

C          x =  1.078586  y = -2.239524  z = -0.475936 angstrom
           Maximum rank =  0   Radius =  0.650 angstrom
                   Q00  =  -0.002072

C          x = -0.005414  y = -2.622524  z = -1.269936 angstrom
           Maximum rank =  0   Radius =  0.650 angstrom
                   Q00  =  -0.100883

C          x =  1.121586  y = -2.572524  z =  0.880064 angstrom
           Maximum rank =  0   Radius =  0.650 angstrom
                   Q00  =  -0.083281

C          x =  0.062586  y = -3.264524  z =  1.458064 angstrom
           Maximum rank =  0   Radius =  0.650 angstrom
                   Q00  =  -0.075804

C          x = -1.068414  y = -3.306524  z = -0.674936 angstrom
           Maximum rank =  0   Radius =  0.650 angstrom
                   Q00  =  -0.093132

C          x = -1.047414  y = -3.597524  z =  0.693064 angstrom
           Maximum rank =  0   Radius =  0.650 angstrom
                   Q00  =  -0.058797

H          x =  1.903586  y = -1.697524  z = -0.916936 angstrom
           Maximum rank =  0   Radius =  0.325 angstrom
                   Q00  =   0.061478

H          x =  1.976586  y = -2.291524  z =  1.480064 angstrom
           Maximum rank =  0   Radius =  0.325 angstrom
                   Q00  =   0.066103

H          x =  0.589586  y = -1.383524  z = -2.888936 angstrom
           Maximum rank =  0   Radius =  0.325 angstrom
                   Q00  =   0.097986

H          x = -1.041414  y = -1.995524  z = -3.027936 angstrom
           Maximum rank =  0   Radius =  0.325 angstrom
                   Q00  =   0.099876

H          x =  0.094586  y = -3.526524  z =  2.507064 angstrom
           Maximum rank =  0   Radius =  0.325 angstrom
                   Q00  =   0.063041

H          x = -1.913414  y = -3.618524  z = -1.270936 angstrom
           Maximum rank =  0   Radius =  0.325 angstrom
                   Q00  =   0.059187

H          x = -1.869414  y = -4.132524  z =  1.140064 angstrom
           Maximum rank =  0   Radius =  0.325 angstrom
                   Q00  =   0.066590

H          x =  0.343702  y = -3.059244  z = -3.412051 angstrom
           Maximum rank =  0   Radius =  0.325 angstrom
                   Q00  =   0.107210

Total multipoles referred to origin at
           x =   0.000000,  y =    0.000000,  z =    0.000000 angstrom
                   Q00  =  -0.000000

Finished at 6:50:5 on 27 Apr 2020

  DMA results are available in the Python driver through the
	  variable('DMA DISTRIBUTED MULTIPOLES')
  and
	  variable('DMA TOTAL MULTIPOLES')
  commands.

    Psi4 stopped on: Monday, 27 April 2020 06:50AM
    Psi4 wall time for execution: 0:08:35.09

*** Psi4 exiting successfully. Buy a developer a beer!
