                               Psi4 1.3.2 release

  ==> Input File <==

--------------------------------------------------------------------------
import numpy as np
set {scf_type pk
basis cc-pvdz
d_convergence 10
gdma_switch   0
gdma_limit    0
gdma_origin   [ 0.0,  0.0,  0.0 ]
}
molecule test {
    units Angstrom
    0 1
    --
    0 1
    C                0.686075256025661     1.472212678672422    -0.598120169758319
    C               -0.169924743974339     2.550212678672422    -1.286120169758319
    H                1.281075256025661     0.931212678672422    -1.335120169758319
    H                1.344075256025661     1.953212678672422     0.117879830241681
    H                0.057075256025661     0.773212678672422    -0.050120169758319
    H               -0.735924743974338     3.090212678672422    -0.528120169758319
    H               -0.862074743974338     2.094052678672422    -2.009206069758319
    H                0.488995256025661     3.254492678672422    -1.815098869758319
    C               -0.237924743974339    -1.576787321327578     1.571879830241681
    C               -0.281924743974339    -2.453787321327578     0.311879830241681
    H               -0.359924743974339    -2.188787321327578     2.464879830241681
    H                0.716075256025661    -1.050787321327578     1.623879830241681
    H               -1.044924743974339    -0.845787321327578     1.530879830241681
    H               -0.147924743974339    -1.800787321327578    -0.544120169758319
    H               -1.256604743974339    -2.956527321327578     0.226657830241681
    H                0.564125256025662    -3.156687321327578     0.323331830241681

}
e, wfn = energy('scf', return_wfn=True)
gdma(wfn)
dmavals = variable('DMA DISTRIBUTED MULTIPOLES')
charges = np.array(dmavals)
print(charges)
np.save('SSI-176THR-180LEU-1-dimer.npy', np.array(charges))--------------------------------------------------------------------------

*** tstart() called on ds3
*** at Mon Apr 27 14:12:24 2020

   => Loading Basis Set <=

    Name: CC-PVDZ
    Role: ORBITAL
    Keyword: BASIS
    atoms 1-2, 9-10  entry C          line   138 file /theoryfs2/ds/metcalf/miniconda2/envs/tf2gpu/share/psi4/basis/cc-pvdz.gbs
    atoms 3-8, 11-16 entry H          line    22 file /theoryfs2/ds/metcalf/miniconda2/envs/tf2gpu/share/psi4/basis/cc-pvdz.gbs

         ---------------------------------------------------------
                                   SCF
               by Justin Turney, Rob Parrish, Andy Simmonett
                          and Daniel G. A. Smith
                              RHF Reference
                        1 Threads,    500 MiB Core
         ---------------------------------------------------------

  ==> Geometry <==

    Molecular point group: c1
    Full point group: C1

    Geometry (in Angstrom), charge = 0, multiplicity = 1:

       Center              X                  Y                   Z               Mass
    ------------   -----------------  -----------------  -----------------  -----------------
         C            0.686075256026     1.472212678672    -0.598120169758    12.000000000000
         C           -0.169924743974     2.550212678672    -1.286120169758    12.000000000000
         H            1.281075256026     0.931212678672    -1.335120169758     1.007825032230
         H            1.344075256026     1.953212678672     0.117879830242     1.007825032230
         H            0.057075256026     0.773212678672    -0.050120169758     1.007825032230
         H           -0.735924743974     3.090212678672    -0.528120169758     1.007825032230
         H           -0.862074743974     2.094052678672    -2.009206069758     1.007825032230
         H            0.488995256026     3.254492678672    -1.815098869758     1.007825032230
         C           -0.237924743974    -1.576787321328     1.571879830242    12.000000000000
         C           -0.281924743974    -2.453787321328     0.311879830242    12.000000000000
         H           -0.359924743974    -2.188787321328     2.464879830242     1.007825032230
         H            0.716075256026    -1.050787321328     1.623879830242     1.007825032230
         H           -1.044924743974    -0.845787321328     1.530879830242     1.007825032230
         H           -0.147924743974    -1.800787321328    -0.544120169758     1.007825032230
         H           -1.256604743974    -2.956527321328     0.226657830242     1.007825032230
         H            0.564125256026    -3.156687321328     0.323331830242     1.007825032230

  Running in c1 symmetry.

  Rotational constants: A =      0.43350  B =      0.05073  C =      0.04908 [cm^-1]
  Rotational constants: A =  12996.01032  B =   1520.79687  C =   1471.46792 [MHz]
  Nuclear repulsion =  122.588001798651547

  Charge       = 0
  Multiplicity = 1
  Electrons    = 36
  Nalpha       = 18
  Nbeta        = 18

  ==> Algorithm <==

  SCF Algorithm Type is PK.
  DIIS enabled.
  MOM disabled.
  Fractional occupation disabled.
  Guess Type is SAD.
  Energy threshold   = 1.00e-06
  Density threshold  = 1.00e-10
  Integral threshold = 0.00e+00

  ==> Primary Basis <==

  Basis Set: CC-PVDZ
    Blend: CC-PVDZ
    Number of shells: 60
    Number of basis function: 116
    Number of Cartesian functions: 120
    Spherical Harmonics?: true
    Max angular momentum: 2

  ==> Pre-Iterations <==

   -------------------------------------------------------
    Irrep   Nso     Nmo     Nalpha   Nbeta   Ndocc  Nsocc
   -------------------------------------------------------
     A        116     116       0       0       0       0
   -------------------------------------------------------
    Total     116     116      18      18      18       0
   -------------------------------------------------------

  ==> Integral Setup <==

  Using integral reordering PK algorithm.
  Sizing the integral batches needed.
  Building batch lookup table.
   Calculation information:
      Number of atoms:                  16
      Number of AO shells:              60
      Number of primitives:            148
      Number of atomic orbitals:       120
      Number of basis functions:       116

      Integral cutoff                 1.00e-12
      Number of threads:                 1

	Batch   1 pq = [       0,    6786] index = [             0,23028291] size =     23028291
  Task number: 3
  Buffer size: 11059200
  Buffer per thread: 2
  We computed 1461756 shell quartets total.
  Whereas there are 1675365 unique shell quartets.

  ==> DiskJK: Disk-Based J/K Matrices <==

    J tasked:                  Yes
    K tasked:                  Yes
    wK tasked:                  No
    Memory [MiB]:              375
    Schwarz Cutoff:          1E-12

    OpenMP threads:              1

  Minimum eigenvalue in the overlap matrix is 7.2614308575E-03.
  Using Symmetric Orthogonalization.

  SCF Guess: Superposition of Atomic Densities via on-the-fly atomic UHF.

  ==> Iterations <==

                        Total Energy        Delta E     RMS |[F,P]|

   @RHF iter SAD:  -157.33155331716466   -1.57332e+02   0.00000e+00
   @RHF iter   1:  -158.30934105731689   -9.77788e-01   4.18366e-03 DIIS
   @RHF iter   2:  -158.44152861444789   -1.32188e-01   1.76958e-03 DIIS
   @RHF iter   3:  -158.46432566413762   -2.27970e-02   3.48128e-04 DIIS
   @RHF iter   4:  -158.46614428469698   -1.81862e-03   3.87189e-05 DIIS
   @RHF iter   5:  -158.46616803452818   -2.37498e-05   6.38654e-06 DIIS
   @RHF iter   6:  -158.46616865606066   -6.21532e-07   9.21241e-07 DIIS
   @RHF iter   7:  -158.46616866529911   -9.23845e-09   2.94770e-07 DIIS
   @RHF iter   8:  -158.46616866602702   -7.27908e-10   4.03826e-08 DIIS
   @RHF iter   9:  -158.46616866605297   -2.59490e-11   7.91062e-09 DIIS
   @RHF iter  10:  -158.46616866605328   -3.12639e-13   2.03067e-09 DIIS
   @RHF iter  11:  -158.46616866605353   -2.55795e-13   4.66954e-10 DIIS
   @RHF iter  12:  -158.46616866605345    8.52651e-14   1.44309e-10 DIIS
   @RHF iter  13:  -158.46616866605382   -3.69482e-13   2.47627e-11 DIIS
  Energy and wave function converged.

  ==> Post-Iterations <==

    Orbital Energies [Eh]
    ---------------------

    Doubly Occupied:

       1A    -11.220153     2A    -11.219153     3A    -11.217194
       4A    -11.216645     5A     -1.018370     6A     -1.015292
       7A     -0.838583     8A     -0.836039     9A     -0.603648
      10A     -0.600475    11A     -0.599017    12A     -0.589532
      13A     -0.498768    14A     -0.495112    15A     -0.490634
      16A     -0.489744    17A     -0.485523    18A     -0.482523

    Virtual:

      19A      0.171348    20A      0.199209    21A      0.229291
      22A      0.229972    23A      0.248234    24A      0.259892
      25A      0.262626    26A      0.274831    27A      0.281154
      28A      0.283867    29A      0.307098    30A      0.338035
      31A      0.389992    32A      0.404057    33A      0.585485
      34A      0.593103    35A      0.600155    36A      0.604787
      37A      0.610841    38A      0.631577    39A      0.667963
      40A      0.688071    41A      0.716293    42A      0.781635
      43A      0.839535    44A      0.845075    45A      0.879038
      46A      0.887151    47A      0.891221    48A      0.894756
      49A      0.899593    50A      0.901816    51A      0.915376
      52A      0.925118    53A      0.948576    54A      0.966576
      55A      0.975192    56A      1.041933    57A      1.123707
      58A      1.126242    59A      1.133609    60A      1.137488
      61A      1.236979    62A      1.271050    63A      1.468542
      64A      1.472273    65A      1.473007    66A      1.489775
      67A      1.561335    68A      1.608489    69A      1.677257
      70A      1.680275    71A      1.693068    72A      1.694831
      73A      1.850861    74A      1.861618    75A      1.869331
      76A      1.881372    77A      1.887639    78A      1.901422
      79A      1.926270    80A      1.934808    81A      1.941712
      82A      1.946485    83A      1.952639    84A      1.958587
      85A      1.959843    86A      1.974796    87A      1.989641
      88A      2.024735    89A      2.089963    90A      2.102184
      91A      2.120055    92A      2.142609    93A      2.284654
      94A      2.296894    95A      2.311783    96A      2.316534
      97A      2.443047    98A      2.460021    99A      2.466513
     100A      2.471369   101A      2.564892   102A      2.567031
     103A      2.570324   104A      2.581718   105A      2.760450
     106A      2.767169   107A      2.793776   108A      2.797299
     109A      2.841649   110A      2.848376   111A      2.854069
     112A      2.862680   113A      2.937425   114A      2.947819
     115A      2.972568   116A      2.991744

    Final Occupation by Irrep:
              A
    DOCC [    18 ]

  @RHF Final Energy:  -158.46616866605382

   => Energetics <=

    Nuclear Repulsion Energy =            122.5880017986515469
    One-Electron Energy =                -454.2755262748929113
    Two-Electron Energy =                 173.2213558101875606
    Total Energy =                       -158.4661686660538180

Computation Completed

Properties will be evaluated at   0.000000,   0.000000,   0.000000 [a0]

Properties computed using the SCF density matrix

  Nuclear Dipole Moment: [e a0]
     X:     0.0413      Y:     0.0910      Z:     0.0054

  Electronic Dipole Moment: [e a0]
     X:    -0.0340      Y:    -0.0828      Z:     0.0088

  Dipole Moment: [e a0]
     X:     0.0073      Y:     0.0081      Z:     0.0142     Total:     0.0179

  Dipole Moment: [D]
     X:     0.0186      Y:     0.0206      Z:     0.0361     Total:     0.0455

*** tstop() called on ds3 at Mon Apr 27 14:12:35 2020
Module time:
	user time   =       7.97 seconds =       0.13 minutes
	system time =       2.97 seconds =       0.05 minutes
	total time  =         11 seconds =       0.18 minutes
Total time:
	user time   =       7.97 seconds =       0.13 minutes
	system time =       2.97 seconds =       0.05 minutes
	total time  =         11 seconds =       0.18 minutes
                                     G D M A

                                 by Anthony Stone

                           version 2.2.06, 22 June 2011

               Distributed Multipoles from Gaussian wavefunctions

Starting at 14:12:35 on 27 Apr 2020

Using SCF density matrix from file ./SSI/SSI-176THR-180LEU-1-dimer.test.8986.fchk

                         Distributed Multipole Analysis

Standard DMA

Positions and radii in angstrom
Multipole moments in atomic units, ea_0^k for rank k

C          x =  0.686075  y =  1.472213  z = -0.598120 angstrom
           Maximum rank =  0   Radius =  0.650 angstrom
                   Q00  =  -0.253061

C          x = -0.169925  y =  2.550213  z = -1.286120 angstrom
           Maximum rank =  0   Radius =  0.650 angstrom
                   Q00  =  -0.229954

H          x =  1.281075  y =  0.931213  z = -1.335120 angstrom
           Maximum rank =  0   Radius =  0.325 angstrom
                   Q00  =   0.079907

H          x =  1.344075  y =  1.953213  z =  0.117880 angstrom
           Maximum rank =  0   Radius =  0.325 angstrom
                   Q00  =   0.079250

H          x =  0.057075  y =  0.773213  z = -0.050120 angstrom
           Maximum rank =  0   Radius =  0.325 angstrom
                   Q00  =   0.084722

H          x = -0.735925  y =  3.090213  z = -0.528120 angstrom
           Maximum rank =  0   Radius =  0.325 angstrom
                   Q00  =   0.080513

H          x = -0.862075  y =  2.094053  z = -2.009206 angstrom
           Maximum rank =  0   Radius =  0.325 angstrom
                   Q00  =   0.079463

H          x =  0.488995  y =  3.254493  z = -1.815099 angstrom
           Maximum rank =  0   Radius =  0.325 angstrom
                   Q00  =   0.078827

C          x = -0.237925  y = -1.576787  z =  1.571880 angstrom
           Maximum rank =  0   Radius =  0.650 angstrom
                   Q00  =  -0.233420

C          x = -0.281925  y = -2.453787  z =  0.311880 angstrom
           Maximum rank =  0   Radius =  0.650 angstrom
                   Q00  =  -0.244374

H          x = -0.359925  y = -2.188787  z =  2.464880 angstrom
           Maximum rank =  0   Radius =  0.325 angstrom
                   Q00  =   0.079958

H          x =  0.716075  y = -1.050787  z =  1.623880 angstrom
           Maximum rank =  0   Radius =  0.325 angstrom
                   Q00  =   0.081201

H          x = -1.044925  y = -0.845787  z =  1.530880 angstrom
           Maximum rank =  0   Radius =  0.325 angstrom
                   Q00  =   0.077100

H          x = -0.147925  y = -1.800787  z = -0.544120 angstrom
           Maximum rank =  0   Radius =  0.325 angstrom
                   Q00  =   0.078790

H          x = -1.256605  y = -2.956527  z =  0.226658 angstrom
           Maximum rank =  0   Radius =  0.325 angstrom
                   Q00  =   0.081142

H          x =  0.564125  y = -3.156687  z =  0.323332 angstrom
           Maximum rank =  0   Radius =  0.325 angstrom
                   Q00  =   0.079935

Total multipoles referred to origin at
           x =   0.000000,  y =    0.000000,  z =    0.000000 angstrom
                   Q00  =  -0.000000

Finished at 14:12:35 on 27 Apr 2020

  DMA results are available in the Python driver through the
	  variable('DMA DISTRIBUTED MULTIPOLES')
  and
	  variable('DMA TOTAL MULTIPOLES')
  commands.

    Psi4 stopped on: Monday, 27 April 2020 02:12PM
    Psi4 wall time for execution: 0:00:10.75

*** Psi4 exiting successfully. Buy a developer a beer!
