                               Psi4 1.3.2 release

  ==> Input File <==

--------------------------------------------------------------------------
import numpy as np
set {scf_type pk
basis cc-pvdz
d_convergence 10
gdma_switch   0
gdma_limit    0
gdma_origin   [ 0.0,  0.0,  0.0 ]
}
molecule test {
    units Angstrom
    0 1
    --
    0 1
    C                0.622440804679404    -3.492381898134474    -1.035362584698796
    C                1.036440804679404    -2.821381898134474    -2.350362584698796
    C                1.672440804679404    -3.171381898134475     0.030637415301204
    H               -0.352559195320596    -3.121381898134474    -0.719362584698796
    H                0.563440804679404    -4.571381898134473    -1.176362584698796
    H                2.000440804679404    -3.237381898134474    -2.649362584698796
    H                1.196440804679404    -1.756381898134474    -2.187362584698796
    H                2.660440804679403    -3.463381898134474    -0.316362584698796
    H                1.680440804679404    -2.094381898134474     0.194637415301204
    H                0.332956804679404    -2.953831898134474    -3.185572584698796
    H                1.471816804679404    -3.665391898134474     0.992772415301204
    C               -0.368559195320596     3.929618101865525    -0.822362584698796
    C               -0.278559195320596     0.144618101865526    -0.317362584698796
    C               -0.493559195320596     0.051618101865526     1.051637415301204
    C               -0.233559195320596     1.393618101865526    -0.934362584698796
    C               -0.428559195320596     2.558618101865525    -0.181362584698796
    C               -0.691559195320596     1.198618101865526     1.806637415301204
    C               -0.683559195320596     2.438618101865526     1.188637415301204
    O               -0.509559195320596    -1.174381898134474     1.647637415301205
    H               -0.161559195320596    -0.750381898134474    -0.895362584698796
    H               -0.030559195320596     1.439618101865526    -1.993362584698796
    H               -0.865559195320596     1.124618101865526     2.871637415301205
    H               -0.394559195320596    -1.096381898134474     2.608637415301204
    H                0.651440804679404     4.294618101865526    -0.702362584698796
    H               -1.008559195320597     4.605618101865526    -0.266362584698796
    H               -0.860559195320596     3.324618101865525     1.782637415301204
    H               -0.623033195320596     4.005098101865526    -1.889862584698796

}
e, wfn = energy('scf', return_wfn=True)
gdma(wfn)
dmavals = variable('DMA DISTRIBUTED MULTIPOLES')
charges = np.array(dmavals)
print(charges)
np.save('SSI-034LYS-086TYR-1-dimer.npy', np.array(charges))--------------------------------------------------------------------------

*** tstart() called on ds3
*** at Tue Apr 28 15:29:19 2020

   => Loading Basis Set <=

    Name: CC-PVDZ
    Role: ORBITAL
    Keyword: BASIS
    atoms 1-3, 12-18  entry C          line   138 file /theoryfs2/ds/metcalf/miniconda2/envs/tf2gpu/share/psi4/basis/cc-pvdz.gbs
    atoms 4-11, 20-27 entry H          line    22 file /theoryfs2/ds/metcalf/miniconda2/envs/tf2gpu/share/psi4/basis/cc-pvdz.gbs
    atoms 19          entry O          line   198 file /theoryfs2/ds/metcalf/miniconda2/envs/tf2gpu/share/psi4/basis/cc-pvdz.gbs

         ---------------------------------------------------------
                                   SCF
               by Justin Turney, Rob Parrish, Andy Simmonett
                          and Daniel G. A. Smith
                              RHF Reference
                        1 Threads,    500 MiB Core
         ---------------------------------------------------------

  ==> Geometry <==

    Molecular point group: c1
    Full point group: C1

    Geometry (in Angstrom), charge = 0, multiplicity = 1:

       Center              X                  Y                   Z               Mass
    ------------   -----------------  -----------------  -----------------  -----------------
         C            0.622440804679    -3.492381898134    -1.035362584699    12.000000000000
         C            1.036440804679    -2.821381898134    -2.350362584699    12.000000000000
         C            1.672440804679    -3.171381898134     0.030637415301    12.000000000000
         H           -0.352559195321    -3.121381898134    -0.719362584699     1.007825032230
         H            0.563440804679    -4.571381898134    -1.176362584699     1.007825032230
         H            2.000440804679    -3.237381898134    -2.649362584699     1.007825032230
         H            1.196440804679    -1.756381898134    -2.187362584699     1.007825032230
         H            2.660440804679    -3.463381898134    -0.316362584699     1.007825032230
         H            1.680440804679    -2.094381898134     0.194637415301     1.007825032230
         H            0.332956804679    -2.953831898134    -3.185572584699     1.007825032230
         H            1.471816804679    -3.665391898134     0.992772415301     1.007825032230
         C           -0.368559195321     3.929618101866    -0.822362584699    12.000000000000
         C           -0.278559195321     0.144618101866    -0.317362584699    12.000000000000
         C           -0.493559195321     0.051618101866     1.051637415301    12.000000000000
         C           -0.233559195321     1.393618101866    -0.934362584699    12.000000000000
         C           -0.428559195321     2.558618101866    -0.181362584699    12.000000000000
         C           -0.691559195321     1.198618101866     1.806637415301    12.000000000000
         C           -0.683559195321     2.438618101866     1.188637415301    12.000000000000
         O           -0.509559195321    -1.174381898134     1.647637415301    15.994914619570
         H           -0.161559195321    -0.750381898134    -0.895362584699     1.007825032230
         H           -0.030559195321     1.439618101866    -1.993362584699     1.007825032230
         H           -0.865559195321     1.124618101866     2.871637415301     1.007825032230
         H           -0.394559195321    -1.096381898134     2.608637415301     1.007825032230
         H            0.651440804679     4.294618101866    -0.702362584699     1.007825032230
         H           -1.008559195321     4.605618101866    -0.266362584699     1.007825032230
         H           -0.860559195321     3.324618101866     1.782637415301     1.007825032230
         H           -0.623033195321     4.005098101866    -1.889862584699     1.007825032230

  Running in c1 symmetry.

  Rotational constants: A =      0.05922  B =      0.01650  C =      0.01349 [cm^-1]
  Rotational constants: A =   1775.39585  B =    494.70026  C =    404.46783 [MHz]
  Nuclear repulsion =  584.215002431116204

  Charge       = 0
  Multiplicity = 1
  Electrons    = 84
  Nalpha       = 42
  Nbeta        = 42

  ==> Algorithm <==

  SCF Algorithm Type is PK.
  DIIS enabled.
  MOM disabled.
  Fractional occupation disabled.
  Guess Type is SAD.
  Energy threshold   = 1.00e-06
  Density threshold  = 1.00e-10
  Integral threshold = 0.00e+00

  ==> Primary Basis <==

  Basis Set: CC-PVDZ
    Blend: CC-PVDZ
    Number of shells: 114
    Number of basis function: 234
    Number of Cartesian functions: 245
    Spherical Harmonics?: true
    Max angular momentum: 2

  ==> Pre-Iterations <==

   -------------------------------------------------------
    Irrep   Nso     Nmo     Nalpha   Nbeta   Ndocc  Nsocc
   -------------------------------------------------------
     A        234     234       0       0       0       0
   -------------------------------------------------------
    Total     234     234      42      42      42       0
   -------------------------------------------------------

  ==> Integral Setup <==

  Using integral reordering PK algorithm.
  Sizing the integral batches needed.
  Building batch lookup table.
   Calculation information:
      Number of atoms:                  27
      Number of AO shells:             114
      Number of primitives:            322
      Number of atomic orbitals:       245
      Number of basis functions:       234

      Integral cutoff                 1.00e-12
      Number of threads:                 1

	Batch   1 pq = [       0,    9405] index = [             0,44231715] size =     44231715
	Batch   2 pq = [    9405,   13301] index = [      44231715,88464951] size =     44233236
	Batch   3 pq = [   13301,   16290] index = [      88464951,132690195] size =     44225244
	Batch   4 pq = [   16290,   18810] index = [     132690195,176917455] size =     44227260
	Batch   5 pq = [   18810,   21030] index = [     176917455,221140965] size =     44223510
	Batch   6 pq = [   21030,   23037] index = [     221140965,265363203] size =     44222238
	Batch   7 pq = [   23037,   24883] index = [     265363203,309594286] size =     44231083
	Batch   8 pq = [   24883,   26601] index = [     309594286,353819901] size =     44225615
	Batch   9 pq = [   26601,   27495] index = [     353819901,378001260] size =     24181359
  Task number: 35
  Buffer size: 11059200
  Buffer per thread: 2
  We computed 19423740 shell quartets total.
  Whereas there are 21487290 unique shell quartets.

  ==> DiskJK: Disk-Based J/K Matrices <==

    J tasked:                  Yes
    K tasked:                  Yes
    wK tasked:                  No
    Memory [MiB]:              375
    Schwarz Cutoff:          1E-12

    OpenMP threads:              1

  Minimum eigenvalue in the overlap matrix is 3.1046696458E-04.
  Using Symmetric Orthogonalization.

  SCF Guess: Superposition of Atomic Densities via on-the-fly atomic UHF.

  ==> Iterations <==

                        Total Energy        Delta E     RMS |[F,P]|

   @RHF iter SAD:  -461.73484537942119   -4.61735e+02   0.00000e+00
   @RHF iter   1:  -462.60392475748455   -8.69079e-01   2.81596e-03 DIIS
   @RHF iter   2:  -462.84738013419565   -2.43455e-01   1.19345e-03 DIIS
   @RHF iter   3:  -462.88672610462186   -3.93460e-02   2.66167e-04 DIIS
   @RHF iter   4:  -462.88998232893272   -3.25622e-03   9.82425e-05 DIIS
   @RHF iter   5:  -462.89028717939306   -3.04850e-04   2.03771e-05 DIIS
   @RHF iter   6:  -462.89030598904441   -1.88097e-05   6.41789e-06 DIIS
   @RHF iter   7:  -462.89030786910968   -1.88007e-06   1.79966e-06 DIIS
   @RHF iter   8:  -462.89030806941327   -2.00304e-07   6.77454e-07 DIIS
   @RHF iter   9:  -462.89030809338112   -2.39679e-08   2.12656e-07 DIIS
   @RHF iter  10:  -462.89030809597114   -2.59001e-09   5.75287e-08 DIIS
   @RHF iter  11:  -462.89030809626217   -2.91038e-10   2.19370e-08 DIIS
   @RHF iter  12:  -462.89030809631572   -5.35465e-11   1.13177e-08 DIIS
   @RHF iter  13:  -462.89030809633186   -1.61435e-11   5.47980e-09 DIIS
   @RHF iter  14:  -462.89030809633789   -6.02540e-12   1.73281e-09 DIIS
   @RHF iter  15:  -462.89030809633459    3.29692e-12   6.58316e-10 DIIS
   @RHF iter  16:  -462.89030809633562   -1.02318e-12   1.91540e-10 DIIS
   @RHF iter  17:  -462.89030809633914   -3.52429e-12   7.29793e-11 DIIS
  Energy and wave function converged.

  ==> Post-Iterations <==

    Orbital Energies [Eh]
    ---------------------

    Doubly Occupied:

       1A    -20.584478     2A    -11.297195     3A    -11.239441
       4A    -11.238779     5A    -11.237176     6A    -11.233473
       7A    -11.228580     8A    -11.228318     9A    -11.213542
      10A    -11.212002    11A    -11.205427    12A     -1.399139
      13A     -1.150972    14A     -1.047986    15A     -1.036406
      16A     -1.019707    17A     -0.927076    18A     -0.913526
      19A     -0.844055    20A     -0.803563    21A     -0.793758
      22A     -0.731232    23A     -0.669735    24A     -0.646941
      25A     -0.620036    26A     -0.607969    27A     -0.591475
      28A     -0.587460    29A     -0.585461    30A     -0.571940
      31A     -0.565872    32A     -0.535241    33A     -0.526964
      34A     -0.517324    35A     -0.499432    36A     -0.485030
      37A     -0.467748    38A     -0.466085    39A     -0.464791
      40A     -0.463042    41A     -0.339842    42A     -0.301947

    Virtual:

      43A      0.128666    44A      0.153920    45A      0.176123
      46A      0.183797    47A      0.197184    48A      0.214680
      49A      0.222317    50A      0.239997    51A      0.249717
      52A      0.253593    53A      0.266779    54A      0.269003
      55A      0.278901    56A      0.287465    57A      0.299791
      58A      0.305003    59A      0.323289    60A      0.347233
      61A      0.372075    62A      0.377371    63A      0.383483
      64A      0.426441    65A      0.445977    66A      0.464485
      67A      0.486115    68A      0.494716    69A      0.503392
      70A      0.586893    71A      0.606302    72A      0.615303
      73A      0.621220    74A      0.625318    75A      0.629789
      76A      0.656673    77A      0.673015    78A      0.693216
      79A      0.697815    80A      0.699437    81A      0.718403
      82A      0.733618    83A      0.735171    84A      0.760884
      85A      0.774587    86A      0.781551    87A      0.786397
      88A      0.798606    89A      0.812558    90A      0.833894
      91A      0.846691    92A      0.852112    93A      0.863407
      94A      0.870680    95A      0.873485    96A      0.878375
      97A      0.880606    98A      0.890119    99A      0.896149
     100A      0.905668   101A      0.914705   102A      0.922849
     103A      0.930285   104A      0.938071   105A      0.941320
     106A      0.943347   107A      0.950439   108A      0.968791
     109A      0.975991   110A      0.995147   111A      1.013383
     112A      1.027467   113A      1.061732   114A      1.108024
     115A      1.133136   116A      1.147231   117A      1.147787
     118A      1.151766   119A      1.171678   120A      1.183200
     121A      1.215803   122A      1.233214   123A      1.247444
     124A      1.258386   125A      1.273772   126A      1.301276
     127A      1.307131   128A      1.311631   129A      1.329847
     130A      1.357387   131A      1.365440   132A      1.373984
     133A      1.391190   134A      1.475862   135A      1.485678
     136A      1.501075   137A      1.517633   138A      1.525140
     139A      1.566528   140A      1.585591   141A      1.589995
     142A      1.612653   143A      1.648195   144A      1.679528
     145A      1.705081   146A      1.711044   147A      1.714162
     148A      1.724695   149A      1.739026   150A      1.748648
     151A      1.777760   152A      1.797692   153A      1.811454
     154A      1.855666   155A      1.863431   156A      1.873824
     157A      1.884794   158A      1.895970   159A      1.904714
     160A      1.912399   161A      1.923047   162A      1.931050
     163A      1.936097   164A      1.946382   165A      1.949981
     166A      1.954907   167A      1.969334   168A      1.972975
     169A      1.979046   170A      1.988733   171A      1.997039
     172A      2.008283   173A      2.034011   174A      2.037546
     175A      2.049979   176A      2.055325   177A      2.059042
     178A      2.066298   179A      2.080072   180A      2.094518
     181A      2.128112   182A      2.143770   183A      2.151054
     184A      2.166707   185A      2.175297   186A      2.208007
     187A      2.234951   188A      2.273107   189A      2.287761
     190A      2.305158   191A      2.318921   192A      2.329133
     193A      2.331474   194A      2.333322   195A      2.344993
     196A      2.377747   197A      2.413496   198A      2.440752
     199A      2.467354   200A      2.477537   201A      2.519402
     202A      2.535653   203A      2.544054   204A      2.570504
     205A      2.597283   206A      2.611026   207A      2.622340
     208A      2.641522   209A      2.644684   210A      2.742696
     211A      2.759902   212A      2.774558   213A      2.779060
     214A      2.800566   215A      2.814172   216A      2.827973
     217A      2.844268   218A      2.851076   219A      2.899055
     220A      2.925176   221A      2.977073   222A      2.987284
     223A      2.995638   224A      3.024808   225A      3.069811
     226A      3.103018   227A      3.146307   228A      3.263481
     229A      3.292940   230A      3.349524   231A      3.587380
     232A      3.678663   233A      3.969776   234A      4.170856

    Final Occupation by Irrep:
              A
    DOCC [    42 ]

  @RHF Final Energy:  -462.89030809633914

   => Energetics <=

    Nuclear Repulsion Energy =            584.2150024311162042
    One-Electron Energy =               -1786.0102895151139819
    Two-Electron Energy =                 738.9049789876585237
    Total Energy =                       -462.8903080963391403

Computation Completed

Properties will be evaluated at   0.000000,   0.000000,   0.000000 [a0]

Properties computed using the SCF density matrix

  Nuclear Dipole Moment: [e a0]
     X:     5.8666      Y:    -7.4267      Z:    -7.0525

  Electronic Dipole Moment: [e a0]
     X:    -5.8111      Y:     7.9017      Z:     7.5184

  Dipole Moment: [e a0]
     X:     0.0554      Y:     0.4749      Z:     0.4659     Total:     0.6676

  Dipole Moment: [D]
     X:     0.1409      Y:     1.2071      Z:     1.1841     Total:     1.6968

*** tstop() called on ds3 at Tue Apr 28 15:32:36 2020
Module time:
	user time   =     146.25 seconds =       2.44 minutes
	system time =      57.72 seconds =       0.96 minutes
	total time  =        197 seconds =       3.28 minutes
Total time:
	user time   =     146.25 seconds =       2.44 minutes
	system time =      57.72 seconds =       0.96 minutes
	total time  =        197 seconds =       3.28 minutes
                                     G D M A

                                 by Anthony Stone

                           version 2.2.06, 22 June 2011

               Distributed Multipoles from Gaussian wavefunctions

Starting at 15:32:36 on 28 Apr 2020

Using SCF density matrix from file ./SSI/SSI-034LYS-086TYR-1-dimer.test.22051.fchk

                         Distributed Multipole Analysis

Standard DMA

Positions and radii in angstrom
Multipole moments in atomic units, ea_0^k for rank k

C          x =  0.622441  y = -3.492382  z = -1.035363 angstrom
           Maximum rank =  0   Radius =  0.650 angstrom
                   Q00  =  -0.085953

C          x =  1.036441  y = -2.821382  z = -2.350363 angstrom
           Maximum rank =  0   Radius =  0.650 angstrom
                   Q00  =  -0.253444

C          x =  1.672441  y = -3.171382  z =  0.030637 angstrom
           Maximum rank =  0   Radius =  0.650 angstrom
                   Q00  =  -0.235256

H          x = -0.352559  y = -3.121382  z = -0.719363 angstrom
           Maximum rank =  0   Radius =  0.325 angstrom
                   Q00  =   0.057670

H          x =  0.563441  y = -4.571382  z = -1.176363 angstrom
           Maximum rank =  0   Radius =  0.325 angstrom
                   Q00  =   0.050472

H          x =  2.000441  y = -3.237382  z = -2.649363 angstrom
           Maximum rank =  0   Radius =  0.325 angstrom
                   Q00  =   0.074742

H          x =  1.196441  y = -1.756382  z = -2.187363 angstrom
           Maximum rank =  0   Radius =  0.325 angstrom
                   Q00  =   0.069695

H          x =  2.660441  y = -3.463382  z = -0.316363 angstrom
           Maximum rank =  0   Radius =  0.325 angstrom
                   Q00  =   0.066149

H          x =  1.680441  y = -2.094382  z =  0.194637 angstrom
           Maximum rank =  0   Radius =  0.325 angstrom
                   Q00  =   0.083897

H          x =  0.332957  y = -2.953832  z = -3.185573 angstrom
           Maximum rank =  0   Radius =  0.325 angstrom
                   Q00  =   0.083532

H          x =  1.471817  y = -3.665392  z =  0.992772 angstrom
           Maximum rank =  0   Radius =  0.325 angstrom
                   Q00  =   0.083535

C          x = -0.368559  y =  3.929618  z = -0.822363 angstrom
           Maximum rank =  0   Radius =  0.650 angstrom
                   Q00  =  -0.206816

C          x = -0.278559  y =  0.144618  z = -0.317363 angstrom
           Maximum rank =  0   Radius =  0.650 angstrom
                   Q00  =  -0.125975

C          x = -0.493559  y =  0.051618  z =  1.051637 angstrom
           Maximum rank =  0   Radius =  0.650 angstrom
                   Q00  =   0.354480

C          x = -0.233559  y =  1.393618  z = -0.934363 angstrom
           Maximum rank =  0   Radius =  0.650 angstrom
                   Q00  =  -0.050483

C          x = -0.428559  y =  2.558618  z = -0.181363 angstrom
           Maximum rank =  0   Radius =  0.650 angstrom
                   Q00  =  -0.126823

C          x = -0.691559  y =  1.198618  z =  1.806637 angstrom
           Maximum rank =  0   Radius =  0.650 angstrom
                   Q00  =  -0.179920

C          x = -0.683559  y =  2.438618  z =  1.188637 angstrom
           Maximum rank =  0   Radius =  0.650 angstrom
                   Q00  =   0.024683

O          x = -0.509559  y = -1.174382  z =  1.647637 angstrom
           Maximum rank =  0   Radius =  0.650 angstrom
                   Q00  =  -0.675435

H          x = -0.161559  y = -0.750382  z = -0.895363 angstrom
           Maximum rank =  0   Radius =  0.325 angstrom
                   Q00  =   0.085669

H          x = -0.030559  y =  1.439618  z = -1.993363 angstrom
           Maximum rank =  0   Radius =  0.325 angstrom
                   Q00  =   0.062808

H          x = -0.865559  y =  1.124618  z =  2.871637 angstrom
           Maximum rank =  0   Radius =  0.325 angstrom
                   Q00  =   0.071120

H          x = -0.394559  y = -1.096382  z =  2.608637 angstrom
           Maximum rank =  0   Radius =  0.325 angstrom
                   Q00  =   0.408614

H          x =  0.651441  y =  4.294618  z = -0.702363 angstrom
           Maximum rank =  0   Radius =  0.325 angstrom
                   Q00  =   0.097584

H          x = -1.008559  y =  4.605618  z = -0.266363 angstrom
           Maximum rank =  0   Radius =  0.325 angstrom
                   Q00  =   0.097184

H          x = -0.860559  y =  3.324618  z =  1.782637 angstrom
           Maximum rank =  0   Radius =  0.325 angstrom
                   Q00  =   0.067301

H          x = -0.623033  y =  4.005098  z = -1.889863 angstrom
           Maximum rank =  0   Radius =  0.325 angstrom
                   Q00  =   0.100973

Total multipoles referred to origin at
           x =   0.000000,  y =    0.000000,  z =    0.000000 angstrom
                   Q00  =  -0.000000

Finished at 15:32:36 on 28 Apr 2020

  DMA results are available in the Python driver through the
	  variable('DMA DISTRIBUTED MULTIPOLES')
  and
	  variable('DMA TOTAL MULTIPOLES')
  commands.

    Psi4 stopped on: Tuesday, 28 April 2020 03:32PM
    Psi4 wall time for execution: 0:03:16.84

*** Psi4 exiting successfully. Buy a developer a beer!
