                               Psi4 1.3.2 release

  ==> Input File <==

--------------------------------------------------------------------------
import numpy as np
set {scf_type pk
basis cc-pvdz
d_convergence 10
gdma_switch   0
gdma_limit    0
gdma_origin   [ 0.0,  0.0,  0.0 ]
}
molecule test {
    units Angstrom
    0 1
    --
    0 1
    C                2.851403574874527     2.389291276979762    -1.091258830443897
    C                3.106403574874528     3.636291276979762    -1.954258830443897
    H                1.867403574874527     1.982291276979762    -1.315258830443897
    H                3.606403574874528     1.636291276979762    -1.312258830443897
    H                2.931403574874528     2.649291276979762    -0.036258830443897
    H                4.089403574874528     4.010291276979762    -1.666258830443897
    H                2.390383574874527     4.444501276979762    -1.744238830443897
    H                3.182143574874527     3.367301276979762    -3.018168830443896
    C                0.535403574874528     1.084291276979762     1.541741169556103
    C               -0.410596425125472     2.109291276979762     2.146741169556103
    C               -0.153596425125473    -0.032708723020238     0.831741169556103
    C               -0.483596425125472    -1.180708723020238     1.501741169556103
    C               -0.476596425125472     0.071291276979762    -0.521258830443897
    C               -1.042596425125472    -2.248708723020238     0.813741169556103
    C               -1.074596425125473    -0.973708723020238    -1.195258830443897
    C               -1.378596425125473    -2.160708723020238    -0.539258830443897
    O               -1.951596425125473    -3.225708723020238    -1.210258830443897
    H                1.197403574874527     1.579291276979762     0.840741169556103
    H                1.159403574874527     0.665291276979762     2.333741169556103
    H               -1.039596425125472     1.630291276979762     2.899741169556103
    H               -0.261596425125472    -1.276708723020239     2.557741169556103
    H               -0.244596425125472     0.981291276979762    -1.058258830443897
    H               -1.291596425125473    -3.143708723020239     1.365741169556103
    H               -1.305596425125472    -0.878708723020238    -2.246258830443896
    H               -2.065596425125472    -3.996708723020238    -0.644258830443897
    H               -1.009056425125472     2.596981276979762     1.363161169556103
    H                0.227753574874527     2.871101276979762     2.618061169556103

}
e, wfn = energy('scf', return_wfn=True)
gdma(wfn)
dmavals = variable('DMA DISTRIBUTED MULTIPOLES')
charges = np.array(dmavals)
print(charges)
np.save('SSI-036VAL-060TYR-1-dimer.npy', np.array(charges))--------------------------------------------------------------------------

*** tstart() called on ds3
*** at Mon Apr 27 19:42:52 2020

   => Loading Basis Set <=

    Name: CC-PVDZ
    Role: ORBITAL
    Keyword: BASIS
    atoms 1-2, 9-16  entry C          line   138 file /theoryfs2/ds/metcalf/miniconda2/envs/tf2gpu/share/psi4/basis/cc-pvdz.gbs
    atoms 3-8, 18-27 entry H          line    22 file /theoryfs2/ds/metcalf/miniconda2/envs/tf2gpu/share/psi4/basis/cc-pvdz.gbs
    atoms 17         entry O          line   198 file /theoryfs2/ds/metcalf/miniconda2/envs/tf2gpu/share/psi4/basis/cc-pvdz.gbs

         ---------------------------------------------------------
                                   SCF
               by Justin Turney, Rob Parrish, Andy Simmonett
                          and Daniel G. A. Smith
                              RHF Reference
                        1 Threads,    500 MiB Core
         ---------------------------------------------------------

  ==> Geometry <==

    Molecular point group: c1
    Full point group: C1

    Geometry (in Angstrom), charge = 0, multiplicity = 1:

       Center              X                  Y                   Z               Mass
    ------------   -----------------  -----------------  -----------------  -----------------
         C            2.851403574875     2.389291276980    -1.091258830444    12.000000000000
         C            3.106403574875     3.636291276980    -1.954258830444    12.000000000000
         H            1.867403574875     1.982291276980    -1.315258830444     1.007825032230
         H            3.606403574875     1.636291276980    -1.312258830444     1.007825032230
         H            2.931403574875     2.649291276980    -0.036258830444     1.007825032230
         H            4.089403574875     4.010291276980    -1.666258830444     1.007825032230
         H            2.390383574875     4.444501276980    -1.744238830444     1.007825032230
         H            3.182143574875     3.367301276980    -3.018168830444     1.007825032230
         C            0.535403574875     1.084291276980     1.541741169556    12.000000000000
         C           -0.410596425125     2.109291276980     2.146741169556    12.000000000000
         C           -0.153596425125    -0.032708723020     0.831741169556    12.000000000000
         C           -0.483596425125    -1.180708723020     1.501741169556    12.000000000000
         C           -0.476596425125     0.071291276980    -0.521258830444    12.000000000000
         C           -1.042596425125    -2.248708723020     0.813741169556    12.000000000000
         C           -1.074596425125    -0.973708723020    -1.195258830444    12.000000000000
         C           -1.378596425125    -2.160708723020    -0.539258830444    12.000000000000
         O           -1.951596425125    -3.225708723020    -1.210258830444    15.994914619570
         H            1.197403574875     1.579291276980     0.840741169556     1.007825032230
         H            1.159403574875     0.665291276980     2.333741169556     1.007825032230
         H           -1.039596425125     1.630291276980     2.899741169556     1.007825032230
         H           -0.261596425125    -1.276708723020     2.557741169556     1.007825032230
         H           -0.244596425125     0.981291276980    -1.058258830444     1.007825032230
         H           -1.291596425125    -3.143708723020     1.365741169556     1.007825032230
         H           -1.305596425125    -0.878708723020    -2.246258830444     1.007825032230
         H           -2.065596425125    -3.996708723020    -0.644258830444     1.007825032230
         H           -1.009056425125     2.596981276980     1.363161169556     1.007825032230
         H            0.227753574875     2.871101276980     2.618061169556     1.007825032230

  Running in c1 symmetry.

  Rotational constants: A =      0.04718  B =      0.01520  C =      0.01236 [cm^-1]
  Rotational constants: A =   1414.44132  B =    455.74770  C =    370.41065 [MHz]
  Nuclear repulsion =  574.416547181044962

  Charge       = 0
  Multiplicity = 1
  Electrons    = 84
  Nalpha       = 42
  Nbeta        = 42

  ==> Algorithm <==

  SCF Algorithm Type is PK.
  DIIS enabled.
  MOM disabled.
  Fractional occupation disabled.
  Guess Type is SAD.
  Energy threshold   = 1.00e-06
  Density threshold  = 1.00e-10
  Integral threshold = 0.00e+00

  ==> Primary Basis <==

  Basis Set: CC-PVDZ
    Blend: CC-PVDZ
    Number of shells: 114
    Number of basis function: 234
    Number of Cartesian functions: 245
    Spherical Harmonics?: true
    Max angular momentum: 2

  ==> Pre-Iterations <==

   -------------------------------------------------------
    Irrep   Nso     Nmo     Nalpha   Nbeta   Ndocc  Nsocc
   -------------------------------------------------------
     A        234     234       0       0       0       0
   -------------------------------------------------------
    Total     234     234      42      42      42       0
   -------------------------------------------------------

  ==> Integral Setup <==

  Using integral reordering PK algorithm.
  Sizing the integral batches needed.
  Building batch lookup table.
   Calculation information:
      Number of atoms:                  27
      Number of AO shells:             114
      Number of primitives:            322
      Number of atomic orbitals:       245
      Number of basis functions:       234

      Integral cutoff                 1.00e-12
      Number of threads:                 1

	Batch   1 pq = [       0,    9405] index = [             0,44231715] size =     44231715
	Batch   2 pq = [    9405,   13301] index = [      44231715,88464951] size =     44233236
	Batch   3 pq = [   13301,   16290] index = [      88464951,132690195] size =     44225244
	Batch   4 pq = [   16290,   18810] index = [     132690195,176917455] size =     44227260
	Batch   5 pq = [   18810,   21030] index = [     176917455,221140965] size =     44223510
	Batch   6 pq = [   21030,   23037] index = [     221140965,265363203] size =     44222238
	Batch   7 pq = [   23037,   24883] index = [     265363203,309594286] size =     44231083
	Batch   8 pq = [   24883,   26601] index = [     309594286,353819901] size =     44225615
	Batch   9 pq = [   26601,   27495] index = [     353819901,378001260] size =     24181359
  Task number: 35
  Buffer size: 11059200
  Buffer per thread: 2
  We computed 18707735 shell quartets total.
  Whereas there are 21487290 unique shell quartets.

  ==> DiskJK: Disk-Based J/K Matrices <==

    J tasked:                  Yes
    K tasked:                  Yes
    wK tasked:                  No
    Memory [MiB]:              375
    Schwarz Cutoff:          1E-12

    OpenMP threads:              1

  Minimum eigenvalue in the overlap matrix is 3.2030936690E-04.
  Using Symmetric Orthogonalization.

  SCF Guess: Superposition of Atomic Densities via on-the-fly atomic UHF.

  ==> Iterations <==

                        Total Energy        Delta E     RMS |[F,P]|

   @RHF iter SAD:  -461.77472265989491   -4.61775e+02   0.00000e+00
   @RHF iter   1:  -462.60006957127791   -8.25347e-01   2.83053e-03 DIIS
   @RHF iter   2:  -462.84167561294004   -2.41606e-01   1.22413e-03 DIIS
   @RHF iter   3:  -462.88303369876860   -4.13581e-02   2.85505e-04 DIIS
   @RHF iter   4:  -462.88645564954322   -3.42195e-03   1.27393e-04 DIIS
   @RHF iter   5:  -462.88697643271956   -5.20783e-04   1.91266e-05 DIIS
   @RHF iter   6:  -462.88699679386036   -2.03611e-05   5.42930e-06 DIIS
   @RHF iter   7:  -462.88699843824537   -1.64439e-06   1.99935e-06 DIIS
   @RHF iter   8:  -462.88699869190179   -2.53656e-07   7.91210e-07 DIIS
   @RHF iter   9:  -462.88699874370116   -5.17994e-08   2.86299e-07 DIIS
   @RHF iter  10:  -462.88699875382213   -1.01210e-08   1.34546e-07 DIIS
   @RHF iter  11:  -462.88699875669425   -2.87213e-09   5.88572e-08 DIIS
   @RHF iter  12:  -462.88699875720675   -5.12500e-10   2.35303e-08 DIIS
   @RHF iter  13:  -462.88699875727559   -6.88374e-11   8.07123e-09 DIIS
   @RHF iter  14:  -462.88699875728094   -5.34328e-12   2.09421e-09 DIIS
   @RHF iter  15:  -462.88699875727895    1.98952e-12   7.64800e-10 DIIS
   @RHF iter  16:  -462.88699875727980   -8.52651e-13   3.77468e-10 DIIS
   @RHF iter  17:  -462.88699875728008   -2.84217e-13   1.71046e-10 DIIS
   @RHF iter  18:  -462.88699875727889    1.19371e-12   7.27081e-11 DIIS
  Energy and wave function converged.

  ==> Post-Iterations <==

    Orbital Energies [Eh]
    ---------------------

    Doubly Occupied:

       1A    -20.583000     2A    -11.299554     3A    -11.234766
       4A    -11.233402     5A    -11.231635     6A    -11.229620
       7A    -11.225308     8A    -11.221707     9A    -11.221577
      10A    -11.220964    11A    -11.219915    12A     -1.389751
      13A     -1.157020    14A     -1.061755    15A     -1.019544
      16A     -1.017939    17A     -0.978556    18A     -0.861143
      19A     -0.842864    20A     -0.837917    21A     -0.790441
      22A     -0.730233    23A     -0.671084    24A     -0.645469
      25A     -0.614495    26A     -0.604347    27A     -0.598437
      28A     -0.596027    29A     -0.582222    30A     -0.579309
      31A     -0.566042    32A     -0.548191    33A     -0.523988
      34A     -0.503099    35A     -0.497205    36A     -0.492375
      37A     -0.485974    38A     -0.472479    39A     -0.469267
      40A     -0.463843    41A     -0.338728    42A     -0.302731

    Virtual:

      43A      0.133444    44A      0.152695    45A      0.174016
      46A      0.181709    47A      0.196014    48A      0.209501
      49A      0.219848    50A      0.232529    51A      0.243834
      52A      0.252064    53A      0.253504    54A      0.264989
      55A      0.274301    56A      0.284285    57A      0.294296
      58A      0.300243    59A      0.331891    60A      0.345876
      61A      0.373661    62A      0.388062    63A      0.402467
      64A      0.421591    65A      0.434358    66A      0.476323
      67A      0.489416    68A      0.505427    69A      0.523555
      70A      0.580471    71A      0.592410    72A      0.597597
      73A      0.605118    74A      0.625530    75A      0.641957
      76A      0.653027    77A      0.659347    78A      0.679299
      79A      0.685821    80A      0.693763    81A      0.712239
      82A      0.724095    83A      0.738118    84A      0.744226
      85A      0.761172    86A      0.765917    87A      0.779034
      88A      0.800658    89A      0.805505    90A      0.824812
      91A      0.850520    92A      0.853834    93A      0.863221
      94A      0.868809    95A      0.881300    96A      0.887139
      97A      0.889451    98A      0.891670    99A      0.895127
     100A      0.901288   101A      0.907227   102A      0.910400
     103A      0.922690   104A      0.932571   105A      0.940834
     106A      0.954018   107A      0.957857   108A      0.970354
     109A      0.974821   110A      1.004519   111A      1.026941
     112A      1.035728   113A      1.055654   114A      1.084528
     115A      1.118835   116A      1.133974   117A      1.146098
     118A      1.153170   119A      1.175440   120A      1.186218
     121A      1.221825   122A      1.242969   123A      1.262832
     124A      1.267402   125A      1.280782   126A      1.291452
     127A      1.301143   128A      1.314689   129A      1.326471
     130A      1.349535   131A      1.359144   132A      1.390825
     133A      1.432297   134A      1.451875   135A      1.470277
     136A      1.483494   137A      1.501515   138A      1.508282
     139A      1.558710   140A      1.582688   141A      1.604319
     142A      1.618981   143A      1.626846   144A      1.672623
     145A      1.680421   146A      1.692253   147A      1.703740
     148A      1.726374   149A      1.736527   150A      1.779543
     151A      1.808358   152A      1.844165   153A      1.857400
     154A      1.860331   155A      1.869209   156A      1.874338
     157A      1.886552   158A      1.893192   159A      1.897636
     160A      1.905961   161A      1.909488   162A      1.914166
     163A      1.930937   164A      1.940127   165A      1.944703
     166A      1.947121   167A      1.954764   168A      1.958654
     169A      1.972043   170A      1.981829   171A      1.993733
     172A      2.001783   173A      2.008781   174A      2.019503
     175A      2.047099   176A      2.055203   177A      2.070293
     178A      2.077584   179A      2.082019   180A      2.101518
     181A      2.111104   182A      2.132133   183A      2.145171
     184A      2.158614   185A      2.165464   186A      2.206220
     187A      2.239372   188A      2.269137   189A      2.279536
     190A      2.296117   191A      2.304461   192A      2.316963
     193A      2.322813   194A      2.352145   195A      2.370747
     196A      2.445492   197A      2.452513   198A      2.474185
     199A      2.476436   200A      2.492189   201A      2.502936
     202A      2.507549   203A      2.534744   204A      2.545960
     205A      2.562041   206A      2.568750   207A      2.583879
     208A      2.628263   209A      2.647268   210A      2.760619
     211A      2.763051   212A      2.773553   213A      2.784536
     214A      2.817351   215A      2.827027   216A      2.838053
     217A      2.860154   218A      2.866508   219A      2.880045
     220A      2.924286   221A      2.950709   222A      2.960132
     223A      2.999004   224A      3.021690   225A      3.035930
     226A      3.099865   227A      3.199804   228A      3.241169
     229A      3.312150   230A      3.341684   231A      3.556768
     232A      3.660384   233A      3.973664   234A      4.185951

    Final Occupation by Irrep:
              A
    DOCC [    42 ]

  @RHF Final Energy:  -462.88699875727889

   => Energetics <=

    Nuclear Repulsion Energy =            574.4165471810449617
    One-Electron Energy =               -1766.2792399391787512
    Two-Electron Energy =                 728.9756940008549009
    Total Energy =                       -462.8869987572788887

Computation Completed

Properties will be evaluated at   0.000000,   0.000000,   0.000000 [a0]

Properties computed using the SCF density matrix

  Nuclear Dipole Moment: [e a0]
     X:    12.5847      Y:    17.9074      Z:     0.8733

  Electronic Dipole Moment: [e a0]
     X:   -12.3950      Y:   -18.0222      Z:    -0.3453

  Dipole Moment: [e a0]
     X:     0.1897      Y:    -0.1148      Z:     0.5280     Total:     0.5727

  Dipole Moment: [D]
     X:     0.4821      Y:    -0.2919      Z:     1.3420     Total:     1.4555

*** tstop() called on ds3 at Mon Apr 27 19:45:55 2020
Module time:
	user time   =     130.75 seconds =       2.18 minutes
	system time =      58.99 seconds =       0.98 minutes
	total time  =        183 seconds =       3.05 minutes
Total time:
	user time   =     130.75 seconds =       2.18 minutes
	system time =      58.99 seconds =       0.98 minutes
	total time  =        183 seconds =       3.05 minutes
                                     G D M A

                                 by Anthony Stone

                           version 2.2.06, 22 June 2011

               Distributed Multipoles from Gaussian wavefunctions

Starting at 19:45:55 on 27 Apr 2020

Using SCF density matrix from file ./SSI/SSI-036VAL-060TYR-1-dimer.test.9216.fchk

                         Distributed Multipole Analysis

Standard DMA

Positions and radii in angstrom
Multipole moments in atomic units, ea_0^k for rank k

C          x =  2.851404  y =  2.389291  z = -1.091259 angstrom
           Maximum rank =  0   Radius =  0.650 angstrom
                   Q00  =  -0.234965

C          x =  3.106404  y =  3.636291  z = -1.954259 angstrom
           Maximum rank =  0   Radius =  0.650 angstrom
                   Q00  =  -0.241601

H          x =  1.867404  y =  1.982291  z = -1.315259 angstrom
           Maximum rank =  0   Radius =  0.325 angstrom
                   Q00  =   0.073118

H          x =  3.606404  y =  1.636291  z = -1.312259 angstrom
           Maximum rank =  0   Radius =  0.325 angstrom
                   Q00  =   0.086193

H          x =  2.931404  y =  2.649291  z = -0.036259 angstrom
           Maximum rank =  0   Radius =  0.325 angstrom
                   Q00  =   0.076975

H          x =  4.089404  y =  4.010291  z = -1.666259 angstrom
           Maximum rank =  0   Radius =  0.325 angstrom
                   Q00  =   0.075313

H          x =  2.390384  y =  4.444501  z = -1.744239 angstrom
           Maximum rank =  0   Radius =  0.325 angstrom
                   Q00  =   0.081790

H          x =  3.182144  y =  3.367301  z = -3.018169 angstrom
           Maximum rank =  0   Radius =  0.325 angstrom
                   Q00  =   0.083466

C          x =  0.535404  y =  1.084291  z =  1.541741 angstrom
           Maximum rank =  0   Radius =  0.650 angstrom
                   Q00  =  -0.019719

C          x = -0.410596  y =  2.109291  z =  2.146741 angstrom
           Maximum rank =  0   Radius =  0.650 angstrom
                   Q00  =  -0.245376

C          x = -0.153596  y = -0.032709  z =  0.831741 angstrom
           Maximum rank =  0   Radius =  0.650 angstrom
                   Q00  =  -0.134694

C          x = -0.483596  y = -1.180709  z =  1.501741 angstrom
           Maximum rank =  0   Radius =  0.650 angstrom
                   Q00  =  -0.053861

C          x = -0.476596  y =  0.071291  z = -0.521259 angstrom
           Maximum rank =  0   Radius =  0.650 angstrom
                   Q00  =   0.010269

C          x = -1.042596  y = -2.248709  z =  0.813741 angstrom
           Maximum rank =  0   Radius =  0.650 angstrom
                   Q00  =  -0.108972

C          x = -1.074596  y = -0.973709  z = -1.195259 angstrom
           Maximum rank =  0   Radius =  0.650 angstrom
                   Q00  =  -0.118413

C          x = -1.378596  y = -2.160709  z = -0.539259 angstrom
           Maximum rank =  0   Radius =  0.650 angstrom
                   Q00  =   0.305731

O          x = -1.951596  y = -3.225709  z = -1.210259 angstrom
           Maximum rank =  0   Radius =  0.650 angstrom
                   Q00  =  -0.691225

H          x =  1.197404  y =  1.579291  z =  0.840741 angstrom
           Maximum rank =  0   Radius =  0.325 angstrom
                   Q00  =   0.078117

H          x =  1.159404  y =  0.665291  z =  2.333741 angstrom
           Maximum rank =  0   Radius =  0.325 angstrom
                   Q00  =   0.060345

H          x = -1.039596  y =  1.630291  z =  2.899741 angstrom
           Maximum rank =  0   Radius =  0.325 angstrom
                   Q00  =   0.084015

H          x = -0.261596  y = -1.276709  z =  2.557741 angstrom
           Maximum rank =  0   Radius =  0.325 angstrom
                   Q00  =   0.065042

H          x = -0.244596  y =  0.981291  z = -1.058259 angstrom
           Maximum rank =  0   Radius =  0.325 angstrom
                   Q00  =   0.057925

H          x = -1.291596  y = -3.143709  z =  1.365741 angstrom
           Maximum rank =  0   Radius =  0.325 angstrom
                   Q00  =   0.069126

H          x = -1.305596  y = -0.878709  z = -2.246259 angstrom
           Maximum rank =  0   Radius =  0.325 angstrom
                   Q00  =   0.077627

H          x = -2.065596  y = -3.996709  z = -0.644259 angstrom
           Maximum rank =  0   Radius =  0.325 angstrom
                   Q00  =   0.408253

H          x = -1.009056  y =  2.596981  z =  1.363161 angstrom
           Maximum rank =  0   Radius =  0.325 angstrom
                   Q00  =   0.082145

H          x =  0.227754  y =  2.871101  z =  2.618061 angstrom
           Maximum rank =  0   Radius =  0.325 angstrom
                   Q00  =   0.073376

Total multipoles referred to origin at
           x =   0.000000,  y =    0.000000,  z =    0.000000 angstrom
                   Q00  =  -0.000000

Finished at 19:45:55 on 27 Apr 2020

  DMA results are available in the Python driver through the
	  variable('DMA DISTRIBUTED MULTIPOLES')
  and
	  variable('DMA TOTAL MULTIPOLES')
  commands.

    Psi4 stopped on: Monday, 27 April 2020 07:45PM
    Psi4 wall time for execution: 0:03:03.01

*** Psi4 exiting successfully. Buy a developer a beer!
