                               Psi4 1.3.2 release

  ==> Input File <==

--------------------------------------------------------------------------
import numpy as np
set {scf_type pk
basis cc-pvdz
d_convergence 10
gdma_switch   0
gdma_limit    0
gdma_origin   [ 0.0,  0.0,  0.0 ]
}
molecule test {
    units Angstrom
    -1 1
    --
    -1 1
    C                1.470131588289412    -0.054795862487799    -2.628342422878886
    C                2.602131588289412    -0.613795862487799    -3.465342422878886
    H                0.779131588289412    -0.843795862487799    -2.362342422878886
    H                1.893131588289412     0.353204137512201    -1.708342422878886
    H                0.937131588289412     0.746204137512201    -3.132342422878886
    H                3.378131588289412     0.149204137512201    -3.517342422878886
    H                2.314821588289412    -0.877405862487799    -4.493912422878886
    H                3.033801588289411    -1.494465862487799    -2.967262422878886
    C               -0.067868411710588     0.421204137512201     0.562657577121114
    C                0.346131588289412     1.771204137512201     1.144657577121114
    C               -1.199868411710588    -0.296795862487799     1.308657577121114
    O               -1.595868411710588     0.129204137512201     2.413657577121114
    O               -1.667868411710588    -1.341795862487799     0.791657577121114
    H               -0.322868411710588     0.520204137512201    -0.492342422878886
    H                0.812131588289412    -0.224795862487799     0.602657577121114
    H                1.283131588289412     2.046204137512202     0.662657577121114
    H                0.547131588289412     1.674204137512201     2.212657577121114
    H               -0.372148411710588     2.586024137512201     0.971027577121114

}
e, wfn = energy('scf', return_wfn=True)
gdma(wfn)
dmavals = variable('DMA DISTRIBUTED MULTIPOLES')
charges = np.array(dmavals)
print(charges)
np.save('SSI-028LEU-061GLU-1-dimer.npy', np.array(charges))--------------------------------------------------------------------------

*** tstart() called on ds3
*** at Mon Apr 27 04:09:22 2020

   => Loading Basis Set <=

    Name: CC-PVDZ
    Role: ORBITAL
    Keyword: BASIS
    atoms 1-2, 9-11  entry C          line   138 file /theoryfs2/ds/metcalf/miniconda2/envs/tf2gpu/share/psi4/basis/cc-pvdz.gbs
    atoms 3-8, 14-18 entry H          line    22 file /theoryfs2/ds/metcalf/miniconda2/envs/tf2gpu/share/psi4/basis/cc-pvdz.gbs
    atoms 12-13      entry O          line   198 file /theoryfs2/ds/metcalf/miniconda2/envs/tf2gpu/share/psi4/basis/cc-pvdz.gbs

         ---------------------------------------------------------
                                   SCF
               by Justin Turney, Rob Parrish, Andy Simmonett
                          and Daniel G. A. Smith
                              RHF Reference
                        1 Threads,    500 MiB Core
         ---------------------------------------------------------

  ==> Geometry <==

    Molecular point group: c1
    Full point group: C1

    Geometry (in Angstrom), charge = -1, multiplicity = 1:

       Center              X                  Y                   Z               Mass
    ------------   -----------------  -----------------  -----------------  -----------------
         C            1.470131588289    -0.054795862488    -2.628342422879    12.000000000000
         C            2.602131588289    -0.613795862488    -3.465342422879    12.000000000000
         H            0.779131588289    -0.843795862488    -2.362342422879     1.007825032230
         H            1.893131588289     0.353204137512    -1.708342422879     1.007825032230
         H            0.937131588289     0.746204137512    -3.132342422879     1.007825032230
         H            3.378131588289     0.149204137512    -3.517342422879     1.007825032230
         H            2.314821588289    -0.877405862488    -4.493912422879     1.007825032230
         H            3.033801588289    -1.494465862488    -2.967262422879     1.007825032230
         C           -0.067868411711     0.421204137512     0.562657577121    12.000000000000
         C            0.346131588289     1.771204137512     1.144657577121    12.000000000000
         C           -1.199868411711    -0.296795862488     1.308657577121    12.000000000000
         O           -1.595868411711     0.129204137512     2.413657577121    15.994914619570
         O           -1.667868411711    -1.341795862488     0.791657577121    15.994914619570
         H           -0.322868411711     0.520204137512    -0.492342422879     1.007825032230
         H            0.812131588289    -0.224795862488     0.602657577121     1.007825032230
         H            1.283131588289     2.046204137512     0.662657577121     1.007825032230
         H            0.547131588289     1.674204137512     2.212657577121     1.007825032230
         H           -0.372148411711     2.586024137512     0.971027577121     1.007825032230

  Running in c1 symmetry.

  Rotational constants: A =      0.13159  B =      0.02565  C =      0.02201 [cm^-1]
  Rotational constants: A =   3944.98095  B =    768.82322  C =    659.75794 [MHz]
  Nuclear repulsion =  283.864431874568936

  Charge       = -1
  Multiplicity = 1
  Electrons    = 58
  Nalpha       = 29
  Nbeta        = 29

  ==> Algorithm <==

  SCF Algorithm Type is PK.
  DIIS enabled.
  MOM disabled.
  Fractional occupation disabled.
  Guess Type is SAD.
  Energy threshold   = 1.00e-06
  Density threshold  = 1.00e-10
  Integral threshold = 0.00e+00

  ==> Primary Basis <==

  Basis Set: CC-PVDZ
    Blend: CC-PVDZ
    Number of shells: 75
    Number of basis function: 153
    Number of Cartesian functions: 160
    Spherical Harmonics?: true
    Max angular momentum: 2

  ==> Pre-Iterations <==

   -------------------------------------------------------
    Irrep   Nso     Nmo     Nalpha   Nbeta   Ndocc  Nsocc
   -------------------------------------------------------
     A        153     153       0       0       0       0
   -------------------------------------------------------
    Total     153     153      29      29      29       0
   -------------------------------------------------------

  ==> Integral Setup <==

  Using integral reordering PK algorithm.
  Sizing the integral batches needed.
  Building batch lookup table.
   Calculation information:
      Number of atoms:                  18
      Number of AO shells:              75
      Number of primitives:            209
      Number of atomic orbitals:       160
      Number of basis functions:       153

      Integral cutoff                 1.00e-12
      Number of threads:                 1

	Batch   1 pq = [       0,    9405] index = [             0,44231715] size =     44231715
	Batch   2 pq = [    9405,   11781] index = [      44231715,69401871] size =     25170156
  Task number: 7
  Buffer size: 11059200
  Buffer per thread: 2
  We computed 3261156 shell quartets total.
  Whereas there are 4062675 unique shell quartets.

  ==> DiskJK: Disk-Based J/K Matrices <==

    J tasked:                  Yes
    K tasked:                  Yes
    wK tasked:                  No
    Memory [MiB]:              375
    Schwarz Cutoff:          1E-12

    OpenMP threads:              1

  Minimum eigenvalue in the overlap matrix is 3.5309104163E-03.
  Using Symmetric Orthogonalization.

  SCF Guess: Superposition of Atomic Densities via on-the-fly atomic UHF.

  ==> Iterations <==

                        Total Energy        Delta E     RMS |[F,P]|

   @RHF iter SAD:  -343.86707829268551   -3.43867e+02   0.00000e+00
   @RHF iter   1:  -345.21441695031342   -1.34734e+00   4.94253e-03 DIIS
   @RHF iter   2:  -345.43804407355776   -2.23627e-01   2.74133e-03 DIIS
   @RHF iter   3:  -345.50413183818051   -6.60878e-02   4.30075e-04 DIIS
   @RHF iter   4:  -345.50719231690073   -3.06048e-03   1.68039e-04 DIIS
   @RHF iter   5:  -345.50764060837719   -4.48291e-04   2.44849e-05 DIIS
   @RHF iter   6:  -345.50765385913917   -1.32508e-05   6.08098e-06 DIIS
   @RHF iter   7:  -345.50765449658365   -6.37444e-07   2.35184e-06 DIIS
   @RHF iter   8:  -345.50765457523050   -7.86468e-08   8.07437e-07 DIIS
   @RHF iter   9:  -345.50765458471915   -9.48864e-09   2.16866e-07 DIIS
   @RHF iter  10:  -345.50765458604161   -1.32246e-09   5.82728e-08 DIIS
   @RHF iter  11:  -345.50765458615666   -1.15051e-10   1.66313e-08 DIIS
   @RHF iter  12:  -345.50765458617127   -1.46088e-11   6.59079e-09 DIIS
   @RHF iter  13:  -345.50765458617229   -1.02318e-12   2.46925e-09 DIIS
   @RHF iter  14:  -345.50765458617013    2.16005e-12   7.59414e-10 DIIS
   @RHF iter  15:  -345.50765458617184   -1.70530e-12   2.65886e-10 DIIS
   @RHF iter  16:  -345.50765458617053    1.30740e-12   8.93660e-11 DIIS
  Energy and wave function converged.

  ==> Post-Iterations <==

    Orbital Energies [Eh]
    ---------------------

    Doubly Occupied:

       1A    -20.256255     2A    -20.247506     3A    -11.135465
       4A    -11.118274     5A    -11.109131     6A    -11.071166
       7A    -11.052949     8A     -1.142020     9A     -1.026229
      10A     -0.932684    11A     -0.869362    12A     -0.748043
      13A     -0.700872    14A     -0.511373    15A     -0.510242
      16A     -0.502421    17A     -0.455234    18A     -0.426598
      19A     -0.415933    20A     -0.396543    21A     -0.391450
      22A     -0.384151    23A     -0.356341    24A     -0.354916
      25A     -0.325631    26A     -0.294001    27A     -0.176755
      28A     -0.162853    29A     -0.152917

    Virtual:

      30A      0.269438    31A      0.310669    32A      0.328464
      33A      0.337692    34A      0.351082    35A      0.368491
      36A      0.384122    37A      0.395493    38A      0.414959
      39A      0.421561    40A      0.442294    41A      0.488355
      42A      0.514667    43A      0.555295    44A      0.622493
      45A      0.683503    46A      0.688118    47A      0.694997
      48A      0.710541    49A      0.731735    50A      0.757942
      51A      0.774015    52A      0.783193    53A      0.845167
      54A      0.891554    55A      0.946491    56A      0.959555
      57A      0.971508    58A      0.976492    59A      0.987602
      60A      0.997948    61A      1.003825    62A      1.008390
      63A      1.024159    64A      1.048670    65A      1.053836
      66A      1.060382    67A      1.065744    68A      1.068400
      69A      1.081755    70A      1.109182    71A      1.131526
      72A      1.147331    73A      1.211228    74A      1.241170
      75A      1.248808    76A      1.301106    77A      1.316320
      78A      1.348332    79A      1.400622    80A      1.472149
      81A      1.500349    82A      1.535653    83A      1.549410
      84A      1.579708    85A      1.606228    86A      1.608451
      87A      1.649988    88A      1.664391    89A      1.687579
      90A      1.734076    91A      1.767820    92A      1.795515
      93A      1.830409    94A      1.843786    95A      1.875475
      96A      1.914371    97A      1.953592    98A      1.959152
      99A      1.990387   100A      2.018779   101A      2.034037
     102A      2.040280   103A      2.043167   104A      2.050524
     105A      2.054060   106A      2.071954   107A      2.082988
     108A      2.133066   109A      2.154175   110A      2.163080
     111A      2.175058   112A      2.185678   113A      2.215795
     114A      2.226534   115A      2.234636   116A      2.276162
     117A      2.359069   118A      2.396058   119A      2.411189
     120A      2.432041   121A      2.463008   122A      2.495107
     123A      2.528091   124A      2.537752   125A      2.557901
     126A      2.630692   127A      2.659661   128A      2.670251
     129A      2.676674   130A      2.710941   131A      2.773208
     132A      2.817632   133A      2.841104   134A      2.895287
     135A      2.918527   136A      2.951379   137A      2.960644
     138A      3.006359   139A      3.016144   140A      3.043821
     141A      3.062045   142A      3.075553   143A      3.120422
     144A      3.251613   145A      3.297647   146A      3.305729
     147A      3.367578   148A      3.648322   149A      3.774309
     150A      3.831001   151A      4.057689   152A      4.082131
     153A      4.211972

    Final Occupation by Irrep:
              A
    DOCC [    29 ]

  @RHF Final Energy:  -345.50765458617053

   => Energetics <=

    Nuclear Repulsion Energy =            283.8644318745689361
    One-Electron Energy =               -1044.2895368846411657
    Two-Electron Energy =                 414.9174504239016983
    Total Energy =                       -345.5076545861705313

Computation Completed

Properties will be evaluated at   0.000000,   0.000000,   0.000000 [a0]

Properties computed using the SCF density matrix

  Nuclear Dipole Moment: [e a0]
     X:    13.3747      Y:     4.3391      Z:   -13.3200

  Electronic Dipole Moment: [e a0]
     X:   -10.3716      Y:    -3.2497      Z:    10.3965

  Dipole Moment: [e a0]
     X:     3.0031      Y:     1.0894      Z:    -2.9235     Total:     4.3304

  Dipole Moment: [D]
     X:     7.6330      Y:     2.7690      Z:    -7.4309     Total:    11.0067

*** tstop() called on ds3 at Mon Apr 27 04:09:51 2020
Module time:
	user time   =      20.15 seconds =       0.34 minutes
	system time =       9.54 seconds =       0.16 minutes
	total time  =         29 seconds =       0.48 minutes
Total time:
	user time   =      20.15 seconds =       0.34 minutes
	system time =       9.54 seconds =       0.16 minutes
	total time  =         29 seconds =       0.48 minutes
                                     G D M A

                                 by Anthony Stone

                           version 2.2.06, 22 June 2011

               Distributed Multipoles from Gaussian wavefunctions

Starting at 4:9:51 on 27 Apr 2020

Using SCF density matrix from file ./SSI/SSI-028LEU-061GLU-1-dimer.test.22912.fchk

                         Distributed Multipole Analysis

Standard DMA

Positions and radii in angstrom
Multipole moments in atomic units, ea_0^k for rank k

C          x =  1.470132  y = -0.054796  z = -2.628342 angstrom
           Maximum rank =  0   Radius =  0.650 angstrom
                   Q00  =  -0.224222

C          x =  2.602132  y = -0.613796  z = -3.465342 angstrom
           Maximum rank =  0   Radius =  0.650 angstrom
                   Q00  =  -0.229080

H          x =  0.779132  y = -0.843796  z = -2.362342 angstrom
           Maximum rank =  0   Radius =  0.325 angstrom
                   Q00  =   0.099287

H          x =  1.893132  y =  0.353204  z = -1.708342 angstrom
           Maximum rank =  0   Radius =  0.325 angstrom
                   Q00  =   0.086527

H          x =  0.937132  y =  0.746204  z = -3.132342 angstrom
           Maximum rank =  0   Radius =  0.325 angstrom
                   Q00  =   0.068162

H          x =  3.378132  y =  0.149204  z = -3.517342 angstrom
           Maximum rank =  0   Radius =  0.325 angstrom
                   Q00  =   0.059433

H          x =  2.314822  y = -0.877406  z = -4.493912 angstrom
           Maximum rank =  0   Radius =  0.325 angstrom
                   Q00  =   0.065801

H          x =  3.033802  y = -1.494466  z = -2.967262 angstrom
           Maximum rank =  0   Radius =  0.325 angstrom
                   Q00  =   0.076115

C          x = -0.067868  y =  0.421204  z =  0.562658 angstrom
           Maximum rank =  0   Radius =  0.650 angstrom
                   Q00  =  -0.159678

C          x =  0.346132  y =  1.771204  z =  1.144658 angstrom
           Maximum rank =  0   Radius =  0.650 angstrom
                   Q00  =  -0.218858

C          x = -1.199868  y = -0.296796  z =  1.308658 angstrom
           Maximum rank =  0   Radius =  0.650 angstrom
                   Q00  =   1.035791

O          x = -1.595868  y =  0.129204  z =  2.413658 angstrom
           Maximum rank =  0   Radius =  0.650 angstrom
                   Q00  =  -0.957786

O          x = -1.667868  y = -1.341796  z =  0.791658 angstrom
           Maximum rank =  0   Radius =  0.650 angstrom
                   Q00  =  -0.952671

H          x = -0.322868  y =  0.520204  z = -0.492342 angstrom
           Maximum rank =  0   Radius =  0.325 angstrom
                   Q00  =   0.040185

H          x =  0.812132  y = -0.224796  z =  0.602658 angstrom
           Maximum rank =  0   Radius =  0.325 angstrom
                   Q00  =   0.044977

H          x =  1.283132  y =  2.046204  z =  0.662658 angstrom
           Maximum rank =  0   Radius =  0.325 angstrom
                   Q00  =   0.009089

H          x =  0.547132  y =  1.674204  z =  2.212658 angstrom
           Maximum rank =  0   Radius =  0.325 angstrom
                   Q00  =   0.090593

H          x = -0.372148  y =  2.586024  z =  0.971028 angstrom
           Maximum rank =  0   Radius =  0.325 angstrom
                   Q00  =   0.066336

Total multipoles referred to origin at
           x =   0.000000,  y =    0.000000,  z =    0.000000 angstrom
                   Q00  =  -1.000000

Finished at 4:9:51 on 27 Apr 2020

  DMA results are available in the Python driver through the
	  variable('DMA DISTRIBUTED MULTIPOLES')
  and
	  variable('DMA TOTAL MULTIPOLES')
  commands.

    Psi4 stopped on: Monday, 27 April 2020 04:09AM
    Psi4 wall time for execution: 0:00:29.80

*** Psi4 exiting successfully. Buy a developer a beer!
