                               Psi4 1.3.2 release

  ==> Input File <==

--------------------------------------------------------------------------
import numpy as np
set {scf_type pk
basis cc-pvdz
d_convergence 10
gdma_switch   0
gdma_limit    0
gdma_origin   [ 0.0,  0.0,  0.0 ]
}
molecule test {
    units Angstrom
    -1 1
    --
    -1 1
    C                1.809469767363588     3.004613036781192    -0.813665838130589
    C                0.617469767363587     2.122613036781192    -0.457665838130589
    O               -0.113530232636413     1.634613036781192    -1.344665838130589
    O                0.388469767363587     1.873613036781192     0.748334161869411
    H                1.693469767363587     3.971613036781192    -0.320665838130589
    H                1.836469767363587     3.178613036781192    -1.891665838130589
    H                2.756119767363587     2.547913036781192    -0.489203838130589
    C                0.748469767363587    -2.088386963218808     0.742334161869411
    C               -0.728530232636413    -2.129386963218808     0.412334161869411
    O               -1.225530232636413    -1.306386963218808    -0.360665838130589
    N               -1.452530232636412    -3.058386963218808     1.023334161869411
    H                0.839469767363587    -2.213386963218808     1.822334161869411
    H                1.130469767363588    -1.100386963218808     0.505334161869411
    H               -2.444530232636413    -3.100386963218808     0.836334161869411
    H               -1.020530232636413    -3.705386963218808     1.668334161869411
    H                1.343019767363588    -2.857766963218808     0.227971161869411

}
e, wfn = energy('scf', return_wfn=True)
gdma(wfn)
dmavals = variable('DMA DISTRIBUTED MULTIPOLES')
charges = np.array(dmavals)
print(charges)
np.save('SSI-007ASP-011GLN-1-dimer.npy', np.array(charges))--------------------------------------------------------------------------

*** tstart() called on ds3
*** at Tue Apr 28 11:08:48 2020

   => Loading Basis Set <=

    Name: CC-PVDZ
    Role: ORBITAL
    Keyword: BASIS
    atoms 1-2, 8-9   entry C          line   138 file /theoryfs2/ds/metcalf/miniconda2/envs/tf2gpu/share/psi4/basis/cc-pvdz.gbs
    atoms 3-4, 10    entry O          line   198 file /theoryfs2/ds/metcalf/miniconda2/envs/tf2gpu/share/psi4/basis/cc-pvdz.gbs
    atoms 5-7, 12-16 entry H          line    22 file /theoryfs2/ds/metcalf/miniconda2/envs/tf2gpu/share/psi4/basis/cc-pvdz.gbs
    atoms 11         entry N          line   168 file /theoryfs2/ds/metcalf/miniconda2/envs/tf2gpu/share/psi4/basis/cc-pvdz.gbs

         ---------------------------------------------------------
                                   SCF
               by Justin Turney, Rob Parrish, Andy Simmonett
                          and Daniel G. A. Smith
                              RHF Reference
                        1 Threads,    500 MiB Core
         ---------------------------------------------------------

  ==> Geometry <==

    Molecular point group: c1
    Full point group: C1

    Geometry (in Angstrom), charge = -1, multiplicity = 1:

       Center              X                  Y                   Z               Mass
    ------------   -----------------  -----------------  -----------------  -----------------
         C            1.809469767364     3.004613036781    -0.813665838131    12.000000000000
         C            0.617469767364     2.122613036781    -0.457665838131    12.000000000000
         O           -0.113530232636     1.634613036781    -1.344665838131    15.994914619570
         O            0.388469767364     1.873613036781     0.748334161869    15.994914619570
         H            1.693469767364     3.971613036781    -0.320665838131     1.007825032230
         H            1.836469767364     3.178613036781    -1.891665838131     1.007825032230
         H            2.756119767364     2.547913036781    -0.489203838131     1.007825032230
         C            0.748469767364    -2.088386963219     0.742334161869    12.000000000000
         C           -0.728530232636    -2.129386963219     0.412334161869    12.000000000000
         O           -1.225530232636    -1.306386963219    -0.360665838131    15.994914619570
         N           -1.452530232636    -3.058386963219     1.023334161869    14.003074004430
         H            0.839469767364    -2.213386963219     1.822334161869     1.007825032230
         H            1.130469767364    -1.100386963219     0.505334161869     1.007825032230
         H           -2.444530232636    -3.100386963219     0.836334161869     1.007825032230
         H           -1.020530232636    -3.705386963219     1.668334161869     1.007825032230
         H            1.343019767364    -2.857766963219     0.227971161869     1.007825032230

  Running in c1 symmetry.

  Rotational constants: A =      0.14844  B =      0.02272  C =      0.02151 [cm^-1]
  Rotational constants: A =   4450.26259  B =    680.99256  C =    644.88738 [MHz]
  Nuclear repulsion =  346.168183572809369

  Charge       = -1
  Multiplicity = 1
  Electrons    = 64
  Nalpha       = 32
  Nbeta        = 32

  ==> Algorithm <==

  SCF Algorithm Type is PK.
  DIIS enabled.
  MOM disabled.
  Fractional occupation disabled.
  Guess Type is SAD.
  Energy threshold   = 1.00e-06
  Density threshold  = 1.00e-10
  Integral threshold = 0.00e+00

  ==> Primary Basis <==

  Basis Set: CC-PVDZ
    Blend: CC-PVDZ
    Number of shells: 72
    Number of basis function: 152
    Number of Cartesian functions: 160
    Spherical Harmonics?: true
    Max angular momentum: 2

  ==> Pre-Iterations <==

   -------------------------------------------------------
    Irrep   Nso     Nmo     Nalpha   Nbeta   Ndocc  Nsocc
   -------------------------------------------------------
     A        152     152       0       0       0       0
   -------------------------------------------------------
    Total     152     152      32      32      32       0
   -------------------------------------------------------

  ==> Integral Setup <==

  Using integral reordering PK algorithm.
  Sizing the integral batches needed.
  Building batch lookup table.
   Calculation information:
      Number of atoms:                  16
      Number of AO shells:              72
      Number of primitives:            216
      Number of atomic orbitals:       160
      Number of basis functions:       152

      Integral cutoff                 1.00e-12
      Number of threads:                 1

	Batch   1 pq = [       0,    9405] index = [             0,44231715] size =     44231715
	Batch   2 pq = [    9405,   11628] index = [      44231715,67611006] size =     23379291
  Task number: 7
  Buffer size: 11059200
  Buffer per thread: 2
  We computed 2458385 shell quartets total.
  Whereas there are 3454506 unique shell quartets.

  ==> DiskJK: Disk-Based J/K Matrices <==

    J tasked:                  Yes
    K tasked:                  Yes
    wK tasked:                  No
    Memory [MiB]:              375
    Schwarz Cutoff:          1E-12

    OpenMP threads:              1

  Minimum eigenvalue in the overlap matrix is 4.6301540955E-03.
  Using Symmetric Orthogonalization.

  SCF Guess: Superposition of Atomic Densities via on-the-fly atomic UHF.

  ==> Iterations <==

                        Total Energy        Delta E     RMS |[F,P]|

   @RHF iter SAD:  -433.40295531495525   -4.33403e+02   0.00000e+00
   @RHF iter   1:  -434.85322061543019   -1.45027e+00   5.66642e-03 DIIS
   @RHF iter   2:  -435.10401321019441   -2.50793e-01   3.55622e-03 DIIS
   @RHF iter   3:  -435.20644260188379   -1.02429e-01   5.54066e-04 DIIS
   @RHF iter   4:  -435.21062025757072   -4.17766e-03   2.26177e-04 DIIS
   @RHF iter   5:  -435.21142899231057   -8.08735e-04   5.45023e-05 DIIS
   @RHF iter   6:  -435.21148671748364   -5.77252e-05   2.64186e-05 DIIS
   @RHF iter   7:  -435.21150172864361   -1.50112e-05   8.66955e-06 DIIS
   @RHF iter   8:  -435.21150430948859   -2.58084e-06   3.32836e-06 DIIS
   @RHF iter   9:  -435.21150465521896   -3.45730e-07   1.24005e-06 DIIS
   @RHF iter  10:  -435.21150469547342   -4.02545e-08   3.48562e-07 DIIS
   @RHF iter  11:  -435.21150469819304   -2.71962e-09   1.48565e-07 DIIS
   @RHF iter  12:  -435.21150469849158   -2.98542e-10   3.19060e-08 DIIS
   @RHF iter  13:  -435.21150469852284   -3.12639e-11   8.83080e-09 DIIS
   @RHF iter  14:  -435.21150469852626   -3.41061e-12   3.47657e-09 DIIS
   @RHF iter  15:  -435.21150469852523    1.02318e-12   1.64560e-09 DIIS
   @RHF iter  16:  -435.21150469852631   -1.08002e-12   6.74529e-10 DIIS
   @RHF iter  17:  -435.21150469852790   -1.59162e-12   2.63108e-10 DIIS
   @RHF iter  18:  -435.21150469852699    9.09495e-13   8.08674e-11 DIIS
  Energy and wave function converged.

  ==> Post-Iterations <==

    Orbital Energies [Eh]
    ---------------------

    Doubly Occupied:

       1A    -20.374399     2A    -20.234626     3A    -20.232957
       4A    -15.476937     5A    -11.220051     6A    -11.114921
       7A    -11.095206     8A    -11.043435     9A     -1.235532
      10A     -1.127900    11A     -1.099518    12A     -1.007592
      13A     -0.874799    14A     -0.786677    15A     -0.682819
      16A     -0.614757    17A     -0.525710    18A     -0.489504
      19A     -0.483052    20A     -0.438795    21A     -0.424612
      22A     -0.401325    23A     -0.400742    24A     -0.393493
      25A     -0.383169    26A     -0.320713    27A     -0.286132
      28A     -0.278516    29A     -0.276353    30A     -0.164806
      31A     -0.143529    32A     -0.134331

    Virtual:

      33A      0.266955    34A      0.316006    35A      0.320245
      36A      0.342103    37A      0.357070    38A      0.388828
      39A      0.399821    40A      0.423730    41A      0.439661
      42A      0.501431    43A      0.502574    44A      0.581822
      45A      0.584891    46A      0.671405    47A      0.718464
      48A      0.735589    49A      0.748477    50A      0.784268
      51A      0.821372    52A      0.834740    53A      0.836849
      54A      0.852386    55A      0.865253    56A      0.875458
      57A      0.957084    58A      0.972141    59A      0.988868
      60A      0.992053    61A      1.024548    62A      1.028071
      63A      1.041736    64A      1.044212    65A      1.067417
      66A      1.086136    67A      1.109929    68A      1.121632
      69A      1.135814    70A      1.152378    71A      1.163874
      72A      1.245030    73A      1.247873    74A      1.259510
      75A      1.343999    76A      1.374950    77A      1.422353
      78A      1.440234    79A      1.482526    80A      1.496697
      81A      1.523823    82A      1.548818    83A      1.550614
      84A      1.568733    85A      1.602977    86A      1.613899
      87A      1.633304    88A      1.639935    89A      1.672581
      90A      1.706239    91A      1.745109    92A      1.751358
      93A      1.786860    94A      1.847017    95A      1.849654
      96A      1.862738    97A      1.917500    98A      1.989432
      99A      1.994149   100A      2.016699   101A      2.029673
     102A      2.061284   103A      2.084463   104A      2.090581
     105A      2.103063   106A      2.104468   107A      2.125193
     108A      2.150400   109A      2.218665   110A      2.231451
     111A      2.280422   112A      2.309559   113A      2.321781
     114A      2.323436   115A      2.388129   116A      2.443663
     117A      2.472120   118A      2.518925   119A      2.577229
     120A      2.597509   121A      2.608898   122A      2.653806
     123A      2.672916   124A      2.697076   125A      2.719542
     126A      2.725381   127A      2.827793   128A      2.838994
     129A      2.886729   130A      2.913473   131A      2.920883
     132A      2.962153   133A      2.996017   134A      3.004017
     135A      3.101642   136A      3.219661   137A      3.268350
     138A      3.272735   139A      3.310327   140A      3.318019
     141A      3.385907   142A      3.389949   143A      3.630017
     144A      3.643942   145A      3.678393   146A      3.769781
     147A      3.831477   148A      3.986545   149A      4.025559
     150A      4.090910   151A      4.097305   152A      4.228727

    Final Occupation by Irrep:
              A
    DOCC [    32 ]

  @RHF Final Energy:  -435.21150469852699

   => Energetics <=

    Nuclear Repulsion Energy =            346.1681835728093688
    One-Electron Energy =               -1295.2255586106934970
    Two-Electron Energy =                 513.8458703393571341
    Total Energy =                       -435.2115046985270510

Computation Completed

Properties will be evaluated at   0.000000,   0.000000,   0.000000 [a0]

Properties computed using the SCF density matrix

  Nuclear Dipole Moment: [e a0]
     X:     5.7500      Y:    -3.0547      Z:     2.2037

  Electronic Dipole Moment: [e a0]
     X:    -5.4780      Y:    -0.9184      Z:    -0.8140

  Dipole Moment: [e a0]
     X:     0.2721      Y:    -3.9730      Z:     1.3897     Total:     4.2178

  Dipole Moment: [D]
     X:     0.6916      Y:   -10.0984      Z:     3.5323     Total:    10.7207

*** tstop() called on ds3 at Tue Apr 28 11:09:18 2020
Module time:
	user time   =      20.50 seconds =       0.34 minutes
	system time =      10.43 seconds =       0.17 minutes
	total time  =         30 seconds =       0.50 minutes
Total time:
	user time   =      20.50 seconds =       0.34 minutes
	system time =      10.43 seconds =       0.17 minutes
	total time  =         30 seconds =       0.50 minutes
                                     G D M A

                                 by Anthony Stone

                           version 2.2.06, 22 June 2011

               Distributed Multipoles from Gaussian wavefunctions

Starting at 11:9:19 on 28 Apr 2020

Using SCF density matrix from file ./SSI/SSI-007ASP-011GLN-1-dimer.test.30173.fchk

                         Distributed Multipole Analysis

Standard DMA

Positions and radii in angstrom
Multipole moments in atomic units, ea_0^k for rank k

C          x =  1.809470  y =  3.004613  z = -0.813666 angstrom
           Maximum rank =  0   Radius =  0.650 angstrom
                   Q00  =  -0.274782

C          x =  0.617470  y =  2.122613  z = -0.457666 angstrom
           Maximum rank =  0   Radius =  0.650 angstrom
                   Q00  =   0.973037

O          x = -0.113530  y =  1.634613  z = -1.344666 angstrom
           Maximum rank =  0   Radius =  0.650 angstrom
                   Q00  =  -0.914614

O          x =  0.388470  y =  1.873613  z =  0.748334 angstrom
           Maximum rank =  0   Radius =  0.650 angstrom
                   Q00  =  -0.952028

H          x =  1.693470  y =  3.971613  z = -0.320666 angstrom
           Maximum rank =  0   Radius =  0.325 angstrom
                   Q00  =   0.064428

H          x =  1.836470  y =  3.178613  z = -1.891666 angstrom
           Maximum rank =  0   Radius =  0.325 angstrom
                   Q00  =   0.045263

H          x =  2.756120  y =  2.547913  z = -0.489204 angstrom
           Maximum rank =  0   Radius =  0.325 angstrom
                   Q00  =   0.063105

C          x =  0.748470  y = -2.088387  z =  0.742334 angstrom
           Maximum rank =  0   Radius =  0.650 angstrom
                   Q00  =  -0.252592

C          x = -0.728530  y = -2.129387  z =  0.412334 angstrom
           Maximum rank =  0   Radius =  0.650 angstrom
                   Q00  =   0.805773

O          x = -1.225530  y = -1.306387  z = -0.360666 angstrom
           Maximum rank =  0   Radius =  0.650 angstrom
                   Q00  =  -0.744909

N          x = -1.452530  y = -3.058387  z =  1.023334 angstrom
           Maximum rank =  0   Radius =  0.650 angstrom
                   Q00  =  -0.516058

H          x =  0.839470  y = -2.213387  z =  1.822334 angstrom
           Maximum rank =  0   Radius =  0.325 angstrom
                   Q00  =   0.065591

H          x =  1.130470  y = -1.100387  z =  0.505334 angstrom
           Maximum rank =  0   Radius =  0.325 angstrom
                   Q00  =   0.167279

H          x = -2.444530  y = -3.100387  z =  0.836334 angstrom
           Maximum rank =  0   Radius =  0.325 angstrom
                   Q00  =   0.200926

H          x = -1.020530  y = -3.705387  z =  1.668334 angstrom
           Maximum rank =  0   Radius =  0.325 angstrom
                   Q00  =   0.181173

H          x =  1.343020  y = -2.857767  z =  0.227971 angstrom
           Maximum rank =  0   Radius =  0.325 angstrom
                   Q00  =   0.088409

Total multipoles referred to origin at
           x =   0.000000,  y =    0.000000,  z =    0.000000 angstrom
                   Q00  =  -1.000000

Finished at 11:9:19 on 28 Apr 2020

  DMA results are available in the Python driver through the
	  variable('DMA DISTRIBUTED MULTIPOLES')
  and
	  variable('DMA TOTAL MULTIPOLES')
  commands.

    Psi4 stopped on: Tuesday, 28 April 2020 11:09AM
    Psi4 wall time for execution: 0:00:30.96

*** Psi4 exiting successfully. Buy a developer a beer!
