                               Psi4 1.3.2 release

  ==> Input File <==

--------------------------------------------------------------------------
import numpy as np
set {scf_type pk
basis cc-pvdz
d_convergence 10
gdma_switch   0
gdma_limit    0
gdma_origin   [ 0.0,  0.0,  0.0 ]
}
molecule test {
    units Angstrom
    0 1
    --
    0 1
    C                2.822382617503588     2.631664523936729     2.523820192040092
    C                0.020382617503588    -0.403335476063271     1.225820192040092
    C                0.481382617503588     0.556664523936729     0.316820192040092
    C                0.475382617503588    -0.371335476063271     2.547820192040092
    C                1.407382617503588     1.525664523936729     0.737820192040092
    C                1.380382617503588     0.605664523936729     2.958820192040093
    C                1.870382617503588     1.553664523936729     2.057820192040093
    O               -0.883617382496412    -1.360335476063271     0.831820192040092
    H               -1.140617382496412    -1.251335476063271    -0.103179807959908
    H                0.137382617503588     0.547664523936729    -0.707179807959908
    H                0.096382617503588    -1.086335476063271     3.258820192040093
    H                1.749382617503588     2.266664523936729     0.025820192040092
    H                1.688382617503589     0.630664523936729     3.995820192040092
    H                3.051382617503588     2.500664523936729     3.582820192040093
    H                2.282382617503588     3.574664523936729     2.438820192040092
    H                3.759342617503588     2.717884523936729     1.954030192040092
    C               -1.572617382496412     0.255664523936729    -3.615179807959907
    C               -1.677617382496412    -1.073335476063271    -2.915179807959908
    O               -1.684617382496411    -1.139335476063271    -1.689179807959908
    N               -1.778617382496412    -2.142335476063271    -3.677179807959908
    H               -1.925617382496412     0.169664523936729    -4.644179807959907
    H               -0.518617382496412     0.532664523936729    -3.638179807959907
    H               -1.807617382496411    -3.025335476063271    -3.207179807959907
    H               -1.756617382496412    -2.053335476063271    -4.682179807959907
    H               -2.147207382496412     1.034024523936729    -3.091719807959907

}
e, wfn = energy('scf', return_wfn=True)
gdma(wfn)
dmavals = variable('DMA DISTRIBUTED MULTIPOLES')
charges = np.array(dmavals)
print(charges)
np.save('SSI-033TYR-091ASN-1-dimer.npy', np.array(charges))--------------------------------------------------------------------------

*** tstart() called on ds3
*** at Tue Apr 28 09:28:29 2020

   => Loading Basis Set <=

    Name: CC-PVDZ
    Role: ORBITAL
    Keyword: BASIS
    atoms 1-7, 17-18  entry C          line   138 file /theoryfs2/ds/metcalf/miniconda2/envs/tf2gpu/share/psi4/basis/cc-pvdz.gbs
    atoms 8, 19       entry O          line   198 file /theoryfs2/ds/metcalf/miniconda2/envs/tf2gpu/share/psi4/basis/cc-pvdz.gbs
    atoms 9-16, 21-25 entry H          line    22 file /theoryfs2/ds/metcalf/miniconda2/envs/tf2gpu/share/psi4/basis/cc-pvdz.gbs
    atoms 20          entry N          line   168 file /theoryfs2/ds/metcalf/miniconda2/envs/tf2gpu/share/psi4/basis/cc-pvdz.gbs

         ---------------------------------------------------------
                                   SCF
               by Justin Turney, Rob Parrish, Andy Simmonett
                          and Daniel G. A. Smith
                              RHF Reference
                        1 Threads,    500 MiB Core
         ---------------------------------------------------------

  ==> Geometry <==

    Molecular point group: c1
    Full point group: C1

    Geometry (in Angstrom), charge = 0, multiplicity = 1:

       Center              X                  Y                   Z               Mass
    ------------   -----------------  -----------------  -----------------  -----------------
         C            2.822382617504     2.631664523937     2.523820192040    12.000000000000
         C            0.020382617504    -0.403335476063     1.225820192040    12.000000000000
         C            0.481382617504     0.556664523937     0.316820192040    12.000000000000
         C            0.475382617504    -0.371335476063     2.547820192040    12.000000000000
         C            1.407382617504     1.525664523937     0.737820192040    12.000000000000
         C            1.380382617504     0.605664523937     2.958820192040    12.000000000000
         C            1.870382617504     1.553664523937     2.057820192040    12.000000000000
         O           -0.883617382496    -1.360335476063     0.831820192040    15.994914619570
         H           -1.140617382496    -1.251335476063    -0.103179807960     1.007825032230
         H            0.137382617504     0.547664523937    -0.707179807960     1.007825032230
         H            0.096382617504    -1.086335476063     3.258820192040     1.007825032230
         H            1.749382617504     2.266664523937     0.025820192040     1.007825032230
         H            1.688382617504     0.630664523937     3.995820192040     1.007825032230
         H            3.051382617504     2.500664523937     3.582820192040     1.007825032230
         H            2.282382617504     3.574664523937     2.438820192040     1.007825032230
         H            3.759342617504     2.717884523937     1.954030192040     1.007825032230
         C           -1.572617382496     0.255664523937    -3.615179807960    12.000000000000
         C           -1.677617382496    -1.073335476063    -2.915179807960    12.000000000000
         O           -1.684617382496    -1.139335476063    -1.689179807960    15.994914619570
         N           -1.778617382496    -2.142335476063    -3.677179807960    14.003074004430
         H           -1.925617382496     0.169664523937    -4.644179807960     1.007825032230
         H           -0.518617382496     0.532664523937    -3.638179807960     1.007825032230
         H           -1.807617382496    -3.025335476063    -3.207179807960     1.007825032230
         H           -1.756617382496    -2.053335476063    -4.682179807960     1.007825032230
         H           -2.147207382496     1.034024523937    -3.091719807960     1.007825032230

  Running in c1 symmetry.

  Rotational constants: A =      0.06776  B =      0.01143  C =      0.00999 [cm^-1]
  Rotational constants: A =   2031.51201  B =    342.62013  C =    299.44233 [MHz]
  Nuclear repulsion =  648.003055869396121

  Charge       = 0
  Multiplicity = 1
  Electrons    = 90
  Nalpha       = 45
  Nbeta        = 45

  ==> Algorithm <==

  SCF Algorithm Type is PK.
  DIIS enabled.
  MOM disabled.
  Fractional occupation disabled.
  Guess Type is SAD.
  Energy threshold   = 1.00e-06
  Density threshold  = 1.00e-10
  Integral threshold = 0.00e+00

  ==> Primary Basis <==

  Basis Set: CC-PVDZ
    Blend: CC-PVDZ
    Number of shells: 111
    Number of basis function: 233
    Number of Cartesian functions: 245
    Spherical Harmonics?: true
    Max angular momentum: 2

  ==> Pre-Iterations <==

   -------------------------------------------------------
    Irrep   Nso     Nmo     Nalpha   Nbeta   Ndocc  Nsocc
   -------------------------------------------------------
     A        233     233       0       0       0       0
   -------------------------------------------------------
    Total     233     233      45      45      45       0
   -------------------------------------------------------

  ==> Integral Setup <==

  Using integral reordering PK algorithm.
  Sizing the integral batches needed.
  Building batch lookup table.
   Calculation information:
      Number of atoms:                  25
      Number of AO shells:             111
      Number of primitives:            329
      Number of atomic orbitals:       245
      Number of basis functions:       233

      Integral cutoff                 1.00e-12
      Number of threads:                 1

	Batch   1 pq = [       0,    9405] index = [             0,44231715] size =     44231715
	Batch   2 pq = [    9405,   13301] index = [      44231715,88464951] size =     44233236
	Batch   3 pq = [   13301,   16290] index = [      88464951,132690195] size =     44225244
	Batch   4 pq = [   16290,   18810] index = [     132690195,176917455] size =     44227260
	Batch   5 pq = [   18810,   21030] index = [     176917455,221140965] size =     44223510
	Batch   6 pq = [   21030,   23037] index = [     221140965,265363203] size =     44222238
	Batch   7 pq = [   23037,   24883] index = [     265363203,309594286] size =     44231083
	Batch   8 pq = [   24883,   26601] index = [     309594286,353819901] size =     44225615
	Batch   9 pq = [   26601,   27261] index = [     353819901,371594691] size =     17774790
  Task number: 34
  Buffer size: 11059200
  Buffer per thread: 2
  We computed 14694916 shell quartets total.
  Whereas there are 19322436 unique shell quartets.

  ==> DiskJK: Disk-Based J/K Matrices <==

    J tasked:                  Yes
    K tasked:                  Yes
    wK tasked:                  No
    Memory [MiB]:              375
    Schwarz Cutoff:          1E-12

    OpenMP threads:              1

  Minimum eigenvalue in the overlap matrix is 3.2768419797E-04.
  Using Symmetric Orthogonalization.

  SCF Guess: Superposition of Atomic Densities via on-the-fly atomic UHF.

  ==> Iterations <==

                        Total Energy        Delta E     RMS |[F,P]|

   @RHF iter SAD:  -551.30418421234720   -5.51304e+02   0.00000e+00
   @RHF iter   1:  -552.32580188364113   -1.02162e+00   3.09296e-03 DIIS
   @RHF iter   2:  -552.57401093758676   -2.48209e-01   1.48435e-03 DIIS
   @RHF iter   3:  -552.62216412830128   -4.81532e-02   3.53534e-04 DIIS
   @RHF iter   4:  -552.62628744801270   -4.12332e-03   1.45461e-04 DIIS
   @RHF iter   5:  -552.62693698276917   -6.49535e-04   2.29823e-05 DIIS
   @RHF iter   6:  -552.62697128804439   -3.43053e-05   1.09057e-05 DIIS
   @RHF iter   7:  -552.62697706326912   -5.77522e-06   3.78294e-06 DIIS
   @RHF iter   8:  -552.62697824518398   -1.18191e-06   1.49516e-06 DIIS
   @RHF iter   9:  -552.62697840732847   -1.62144e-07   6.02350e-07 DIIS
   @RHF iter  10:  -552.62697843393221   -2.66037e-08   2.17016e-07 DIIS
   @RHF iter  11:  -552.62697843842670   -4.49450e-09   8.31798e-08 DIIS
   @RHF iter  12:  -552.62697843922638   -7.99673e-10   4.41009e-08 DIIS
   @RHF iter  13:  -552.62697843944147   -2.15095e-10   1.86309e-08 DIIS
   @RHF iter  14:  -552.62697843949309   -5.16138e-11   7.08082e-09 DIIS
   @RHF iter  15:  -552.62697843949752   -4.43379e-12   2.36430e-09 DIIS
   @RHF iter  16:  -552.62697843950184   -4.32010e-12   8.52513e-10 DIIS
   @RHF iter  17:  -552.62697843949945    2.38742e-12   3.12096e-10 DIIS
   @RHF iter  18:  -552.62697843950275   -3.29692e-12   7.93775e-11 DIIS
  Energy and wave function converged.

  ==> Post-Iterations <==

    Orbital Energies [Eh]
    ---------------------

    Doubly Occupied:

       1A    -20.535696     2A    -20.530528     3A    -15.614995
       4A    -11.378447     5A    -11.273479     6A    -11.262074
       7A    -11.220356     8A    -11.218091     9A    -11.215075
      10A    -11.214454    11A    -11.209802    12A    -11.206358
      13A     -1.405446    14A     -1.345222    15A     -1.249483
      16A     -1.124743    17A     -1.025083    18A     -1.013327
      19A     -0.992569    20A     -0.905052    21A     -0.829740
      22A     -0.815886    23A     -0.776547    24A     -0.760094
      25A     -0.714426    26A     -0.674847    27A     -0.643121
      28A     -0.635868    29A     -0.619259    30A     -0.604970
      31A     -0.580097    32A     -0.576471    33A     -0.562843
      34A     -0.559659    35A     -0.548702    36A     -0.536840
      37A     -0.535004    38A     -0.501372    39A     -0.476971
      40A     -0.459529    41A     -0.444941    42A     -0.439126
      43A     -0.435424    44A     -0.315874    45A     -0.274817

    Virtual:

      46A      0.146631    47A      0.150612    48A      0.173172
      49A      0.178872    50A      0.192517    51A      0.203399
      52A      0.209073    53A      0.231094    54A      0.242040
      55A      0.255132    56A      0.265092    57A      0.271272
      58A      0.283952    59A      0.301042    60A      0.308310
      61A      0.341145    62A      0.373556    63A      0.385602
      64A      0.392855    65A      0.451925    66A      0.477407
      67A      0.492492    68A      0.509929    69A      0.523273
      70A      0.536958    71A      0.547959    72A      0.617059
      73A      0.632985    74A      0.638530    75A      0.646055
      76A      0.667724    77A      0.675177    78A      0.679628
      79A      0.699801    80A      0.709706    81A      0.716491
      82A      0.717787    83A      0.726753    84A      0.740592
      85A      0.752027    86A      0.758320    87A      0.760762
      88A      0.771295    89A      0.797156    90A      0.803033
      91A      0.811134    92A      0.829930    93A      0.837922
      94A      0.850154    95A      0.851549    96A      0.873167
      97A      0.875208    98A      0.896830    99A      0.903398
     100A      0.906401   101A      0.914685   102A      0.931416
     103A      0.938267   104A      0.952850   105A      0.962491
     106A      0.967700   107A      0.972231   108A      0.983167
     109A      1.000602   110A      1.033292   111A      1.073682
     112A      1.077985   113A      1.104398   114A      1.112226
     115A      1.149861   116A      1.164836   117A      1.167810
     118A      1.185301   119A      1.225810   120A      1.230240
     121A      1.255431   122A      1.263887   123A      1.281288
     124A      1.299613   125A      1.301578   126A      1.323239
     127A      1.332233   128A      1.339086   129A      1.357125
     130A      1.384025   131A      1.388926   132A      1.410349
     133A      1.421060   134A      1.434962   135A      1.451592
     136A      1.466149   137A      1.525405   138A      1.532418
     139A      1.562365   140A      1.585121   141A      1.616676
     142A      1.630969   143A      1.635780   144A      1.651111
     145A      1.677984   146A      1.692433   147A      1.711205
     148A      1.745235   149A      1.758392   150A      1.766213
     151A      1.798921   152A      1.802856   153A      1.825438
     154A      1.832751   155A      1.840577   156A      1.858376
     157A      1.880718   158A      1.891714   159A      1.898194
     160A      1.912195   161A      1.915864   162A      1.926182
     163A      1.932284   164A      1.942854   165A      1.958151
     166A      1.962123   167A      1.968378   168A      1.975089
     169A      1.978925   170A      2.012590   171A      2.035314
     172A      2.049997   173A      2.052069   174A      2.072005
     175A      2.085225   176A      2.094259   177A      2.097957
     178A      2.136078   179A      2.150516   180A      2.186234
     181A      2.201910   182A      2.204835   183A      2.214517
     184A      2.248063   185A      2.271929   186A      2.272842
     187A      2.289418   188A      2.325899   189A      2.382328
     190A      2.388755   191A      2.404101   192A      2.405396
     193A      2.430896   194A      2.451657   195A      2.490410
     196A      2.506310   197A      2.511066   198A      2.544344
     199A      2.553094   200A      2.568790   201A      2.616063
     202A      2.627650   203A      2.652658   204A      2.707471
     205A      2.734208   206A      2.752014   207A      2.774870
     208A      2.781129   209A      2.799871   210A      2.809119
     211A      2.838261   212A      2.858650   213A      2.864716
     214A      2.912642   215A      2.951819   216A      2.977456
     217A      3.024751   218A      3.059648   219A      3.101604
     220A      3.105740   221A      3.146782   222A      3.290127
     223A      3.292129   224A      3.299454   225A      3.392764
     226A      3.489861   227A      3.510601   228A      3.611295
     229A      3.701032   230A      3.844580   231A      3.890653
     232A      4.002524   233A      4.325349

    Final Occupation by Irrep:
              A
    DOCC [    45 ]

  @RHF Final Energy:  -552.62697843950275

   => Energetics <=

    Nuclear Repulsion Energy =            648.0030558693961211
    One-Electron Energy =               -2038.7346513943036825
    Two-Electron Energy =                 838.1046170854048114
    Total Energy =                       -552.6269784395027500

Computation Completed

Properties will be evaluated at   0.000000,   0.000000,   0.000000 [a0]

Properties computed using the SCF density matrix

  Nuclear Dipole Moment: [e a0]
     X:     3.2443      Y:     6.1423      Z:    -4.5099

  Electronic Dipole Moment: [e a0]
     X:    -3.5207      Y:    -6.2339      Z:     1.6810

  Dipole Moment: [e a0]
     X:    -0.2764      Y:    -0.0916      Z:    -2.8289     Total:     2.8438

  Dipole Moment: [D]
     X:    -0.7025      Y:    -0.2328      Z:    -7.1902     Total:     7.2282

*** tstop() called on ds3 at Tue Apr 28 09:32:10 2020
Module time:
	user time   =     124.61 seconds =       2.08 minutes
	system time =      58.19 seconds =       0.97 minutes
	total time  =        221 seconds =       3.68 minutes
Total time:
	user time   =     124.61 seconds =       2.08 minutes
	system time =      58.19 seconds =       0.97 minutes
	total time  =        221 seconds =       3.68 minutes
                                     G D M A

                                 by Anthony Stone

                           version 2.2.06, 22 June 2011

               Distributed Multipoles from Gaussian wavefunctions

Starting at 9:32:10 on 28 Apr 2020

Using SCF density matrix from file ./SSI/SSI-033TYR-091ASN-1-dimer.test.10553.fchk

                         Distributed Multipole Analysis

Standard DMA

Positions and radii in angstrom
Multipole moments in atomic units, ea_0^k for rank k

C          x =  2.822383  y =  2.631665  z =  2.523820 angstrom
           Maximum rank =  0   Radius =  0.650 angstrom
                   Q00  =  -0.201903

C          x =  0.020383  y = -0.403335  z =  1.225820 angstrom
           Maximum rank =  0   Radius =  0.650 angstrom
                   Q00  =   0.373926

C          x =  0.481383  y =  0.556665  z =  0.316820 angstrom
           Maximum rank =  0   Radius =  0.650 angstrom
                   Q00  =  -0.180809

C          x =  0.475383  y = -0.371335  z =  2.547820 angstrom
           Maximum rank =  0   Radius =  0.650 angstrom
                   Q00  =  -0.129862

C          x =  1.407383  y =  1.525665  z =  0.737820 angstrom
           Maximum rank =  0   Radius =  0.650 angstrom
                   Q00  =  -0.040349

C          x =  1.380383  y =  0.605665  z =  2.958820 angstrom
           Maximum rank =  0   Radius =  0.650 angstrom
                   Q00  =   0.033381

C          x =  1.870383  y =  1.553665  z =  2.057820 angstrom
           Maximum rank =  0   Radius =  0.650 angstrom
                   Q00  =  -0.135993

O          x = -0.883617  y = -1.360335  z =  0.831820 angstrom
           Maximum rank =  0   Radius =  0.650 angstrom
                   Q00  =  -0.777555

H          x = -1.140617  y = -1.251335  z = -0.103180 angstrom
           Maximum rank =  0   Radius =  0.325 angstrom
                   Q00  =   0.512448

H          x =  0.137383  y =  0.547665  z = -0.707180 angstrom
           Maximum rank =  0   Radius =  0.325 angstrom
                   Q00  =   0.062656

H          x =  0.096383  y = -1.086335  z =  3.258820 angstrom
           Maximum rank =  0   Radius =  0.325 angstrom
                   Q00  =   0.072639

H          x =  1.749383  y =  2.266665  z =  0.025820 angstrom
           Maximum rank =  0   Radius =  0.325 angstrom
                   Q00  =   0.054512

H          x =  1.688383  y =  0.630665  z =  3.995820 angstrom
           Maximum rank =  0   Radius =  0.325 angstrom
                   Q00  =   0.058154

H          x =  3.051383  y =  2.500665  z =  3.582820 angstrom
           Maximum rank =  0   Radius =  0.325 angstrom
                   Q00  =   0.094270

H          x =  2.282383  y =  3.574665  z =  2.438820 angstrom
           Maximum rank =  0   Radius =  0.325 angstrom
                   Q00  =   0.090799

H          x =  3.759343  y =  2.717885  z =  1.954030 angstrom
           Maximum rank =  0   Radius =  0.325 angstrom
                   Q00  =   0.094134

C          x = -1.572617  y =  0.255665  z = -3.615180 angstrom
           Maximum rank =  0   Radius =  0.650 angstrom
                   Q00  =  -0.269537

C          x = -1.677617  y = -1.073335  z = -2.915180 angstrom
           Maximum rank =  0   Radius =  0.650 angstrom
                   Q00  =   0.839762

O          x = -1.684617  y = -1.139335  z = -1.689180 angstrom
           Maximum rank =  0   Radius =  0.650 angstrom
                   Q00  =  -0.828037

N          x = -1.778617  y = -2.142335  z = -3.677180 angstrom
           Maximum rank =  0   Radius =  0.650 angstrom
                   Q00  =  -0.537562

H          x = -1.925617  y =  0.169665  z = -4.644180 angstrom
           Maximum rank =  0   Radius =  0.325 angstrom
                   Q00  =   0.084881

H          x = -0.518617  y =  0.532665  z = -3.638180 angstrom
           Maximum rank =  0   Radius =  0.325 angstrom
                   Q00  =   0.136695

H          x = -1.807617  y = -3.025335  z = -3.207180 angstrom
           Maximum rank =  0   Radius =  0.325 angstrom
                   Q00  =   0.230964

H          x = -1.756617  y = -2.053335  z = -4.682180 angstrom
           Maximum rank =  0   Radius =  0.325 angstrom
                   Q00  =   0.222107

H          x = -2.147207  y =  1.034025  z = -3.091720 angstrom
           Maximum rank =  0   Radius =  0.325 angstrom
                   Q00  =   0.140277

Total multipoles referred to origin at
           x =   0.000000,  y =    0.000000,  z =    0.000000 angstrom
                   Q00  =  -0.000000

Finished at 9:32:10 on 28 Apr 2020

  DMA results are available in the Python driver through the
	  variable('DMA DISTRIBUTED MULTIPOLES')
  and
	  variable('DMA TOTAL MULTIPOLES')
  commands.

    Psi4 stopped on: Tuesday, 28 April 2020 09:32AM
    Psi4 wall time for execution: 0:03:41.17

*** Psi4 exiting successfully. Buy a developer a beer!
