                               Psi4 1.3.2 release

  ==> Input File <==

--------------------------------------------------------------------------
import numpy as np
set {scf_type pk
basis cc-pvdz
d_convergence 10
gdma_switch   0
gdma_limit    0
gdma_origin   [ 0.0,  0.0,  0.0 ]
}
molecule test {
    units Angstrom
    0 1
    --
    0 1
    C               -1.992378716297905     0.124200343740143     2.398874849349959
    C               -1.857378716297905     0.277200343740143     0.899874849349960
    O               -1.653378716297905    -0.701799656259857     0.201874849349960
    N               -1.963378716297905     1.500200343740143     0.393874849349960
    H               -1.760378716297905    -0.901799656259857     2.677874849349960
    H               -3.030378716297905     0.320200343740143     2.670874849349959
    H               -1.905378716297905     1.610200343740143    -0.608125150650040
    H               -2.180378716297905     2.289200343740143     0.983874849349960
    H               -1.351132616297905     0.830596343740143     2.946424849349960
    C                0.566621283702095    -1.126799656259857    -0.991125150650040
    C                2.103621283702095     1.022200343740143    -0.333125150650040
    S                2.231621283702095    -0.557799656259857    -1.181125150650040
    H               -0.091378716297905    -0.357799656259857    -1.390125150650040
    H                0.429621283702095    -2.047799656259857    -1.557125150650040
    H                0.453621283702095    -1.345799656259857     0.068874849349960
    H                2.444621283702095     0.932200343740143     0.692874849349960
    H                1.063621283702095     1.350200343740143    -0.330125150650040
    H                2.696437283702095     1.775940343740143    -0.872045150650041

}
e, wfn = energy('scf', return_wfn=True)
gdma(wfn)
dmavals = variable('DMA DISTRIBUTED MULTIPOLES')
charges = np.array(dmavals)
print(charges)
np.save('SSI-145GLN-149MET-2-dimer.npy', np.array(charges))--------------------------------------------------------------------------

*** tstart() called on ds3
*** at Mon Apr 27 12:34:27 2020

   => Loading Basis Set <=

    Name: CC-PVDZ
    Role: ORBITAL
    Keyword: BASIS
    atoms 1-2, 10-11 entry C          line   138 file /theoryfs2/ds/metcalf/miniconda2/envs/tf2gpu/share/psi4/basis/cc-pvdz.gbs
    atoms 3          entry O          line   198 file /theoryfs2/ds/metcalf/miniconda2/envs/tf2gpu/share/psi4/basis/cc-pvdz.gbs
    atoms 4          entry N          line   168 file /theoryfs2/ds/metcalf/miniconda2/envs/tf2gpu/share/psi4/basis/cc-pvdz.gbs
    atoms 5-9, 13-18 entry H          line    22 file /theoryfs2/ds/metcalf/miniconda2/envs/tf2gpu/share/psi4/basis/cc-pvdz.gbs
    atoms 12         entry S          line   598 file /theoryfs2/ds/metcalf/miniconda2/envs/tf2gpu/share/psi4/basis/cc-pvdz.gbs

         ---------------------------------------------------------
                                   SCF
               by Justin Turney, Rob Parrish, Andy Simmonett
                          and Daniel G. A. Smith
                              RHF Reference
                        1 Threads,    500 MiB Core
         ---------------------------------------------------------

  ==> Geometry <==

    Molecular point group: c1
    Full point group: C1

    Geometry (in Angstrom), charge = 0, multiplicity = 1:

       Center              X                  Y                   Z               Mass
    ------------   -----------------  -----------------  -----------------  -----------------
         C           -1.992378716298     0.124200343740     2.398874849350    12.000000000000
         C           -1.857378716298     0.277200343740     0.899874849350    12.000000000000
         O           -1.653378716298    -0.701799656260     0.201874849350    15.994914619570
         N           -1.963378716298     1.500200343740     0.393874849350    14.003074004430
         H           -1.760378716298    -0.901799656260     2.677874849350     1.007825032230
         H           -3.030378716298     0.320200343740     2.670874849350     1.007825032230
         H           -1.905378716298     1.610200343740    -0.608125150650     1.007825032230
         H           -2.180378716298     2.289200343740     0.983874849350     1.007825032230
         H           -1.351132616298     0.830596343740     2.946424849350     1.007825032230
         C            0.566621283702    -1.126799656260    -0.991125150650    12.000000000000
         C            2.103621283702     1.022200343740    -0.333125150650    12.000000000000
         S            2.231621283702    -0.557799656260    -1.181125150650    31.972071174400
         H           -0.091378716298    -0.357799656260    -1.390125150650     1.007825032230
         H            0.429621283702    -2.047799656260    -1.557125150650     1.007825032230
         H            0.453621283702    -1.345799656260     0.068874849350     1.007825032230
         H            2.444621283702     0.932200343740     0.692874849350     1.007825032230
         H            1.063621283702     1.350200343740    -0.330125150650     1.007825032230
         H            2.696437283702     1.775940343740    -0.872045150650     1.007825032230

  Running in c1 symmetry.

  Rotational constants: A =      0.11863  B =      0.02739  C =      0.02546 [cm^-1]
  Rotational constants: A =   3556.46721  B =    821.14207  C =    763.18980 [MHz]
  Nuclear repulsion =  369.724001625408619

  Charge       = 0
  Multiplicity = 1
  Electrons    = 66
  Nalpha       = 33
  Nbeta        = 33

  ==> Algorithm <==

  SCF Algorithm Type is PK.
  DIIS enabled.
  MOM disabled.
  Fractional occupation disabled.
  Guess Type is SAD.
  Energy threshold   = 1.00e-06
  Density threshold  = 1.00e-10
  Integral threshold = 0.00e+00

  ==> Primary Basis <==

  Basis Set: CC-PVDZ
    Blend: CC-PVDZ
    Number of shells: 77
    Number of basis function: 157
    Number of Cartesian functions: 164
    Spherical Harmonics?: true
    Max angular momentum: 2

  ==> Pre-Iterations <==

   -------------------------------------------------------
    Irrep   Nso     Nmo     Nalpha   Nbeta   Ndocc  Nsocc
   -------------------------------------------------------
     A        157     157       0       0       0       0
   -------------------------------------------------------
    Total     157     157      33      33      33       0
   -------------------------------------------------------

  ==> Integral Setup <==

  Using integral reordering PK algorithm.
  Sizing the integral batches needed.
  Building batch lookup table.
   Calculation information:
      Number of atoms:                  18
      Number of AO shells:              77
      Number of primitives:            237
      Number of atomic orbitals:       164
      Number of basis functions:       157

      Integral cutoff                 1.00e-12
      Number of threads:                 1

	Batch   1 pq = [       0,    9405] index = [             0,44231715] size =     44231715
	Batch   2 pq = [    9405,   12403] index = [      44231715,76923406] size =     32691691
  Task number: 7
  Buffer size: 11059200
  Buffer per thread: 2
  We computed 4059962 shell quartets total.
  Whereas there are 4510506 unique shell quartets.

  ==> DiskJK: Disk-Based J/K Matrices <==

    J tasked:                  Yes
    K tasked:                  Yes
    wK tasked:                  No
    Memory [MiB]:              375
    Schwarz Cutoff:          1E-12

    OpenMP threads:              1

  Minimum eigenvalue in the overlap matrix is 4.5478232623E-03.
  Using Symmetric Orthogonalization.

  SCF Guess: Superposition of Atomic Densities via on-the-fly atomic UHF.

  ==> Iterations <==

                        Total Energy        Delta E     RMS |[F,P]|

   @RHF iter SAD:  -683.64709288000165   -6.83647e+02   0.00000e+00
   @RHF iter   1:  -684.52035547460946   -8.73263e-01   3.91099e-03 DIIS
   @RHF iter   2:  -684.68661515906047   -1.66260e-01   2.17214e-03 DIIS
   @RHF iter   3:  -684.73065290793352   -4.40377e-02   4.99374e-04 DIIS
   @RHF iter   4:  -684.73434092778007   -3.68802e-03   1.82645e-04 DIIS
   @RHF iter   5:  -684.73488838333128   -5.47456e-04   3.28105e-05 DIIS
   @RHF iter   6:  -684.73492015040199   -3.17671e-05   1.43638e-05 DIIS
   @RHF iter   7:  -684.73492579133892   -5.64094e-06   5.60662e-06 DIIS
   @RHF iter   8:  -684.73492688940951   -1.09807e-06   2.02493e-06 DIIS
   @RHF iter   9:  -684.73492704040302   -1.50994e-07   4.92557e-07 DIIS
   @RHF iter  10:  -684.73492704783735   -7.43432e-09   1.67534e-07 DIIS
   @RHF iter  11:  -684.73492704860496   -7.67614e-10   4.24730e-08 DIIS
   @RHF iter  12:  -684.73492704865805   -5.30918e-11   1.01206e-08 DIIS
   @RHF iter  13:  -684.73492704866169   -3.63798e-12   2.75270e-09 DIIS
   @RHF iter  14:  -684.73492704865953    2.16005e-12   9.43366e-10 DIIS
   @RHF iter  15:  -684.73492704866180   -2.27374e-12   3.78421e-10 DIIS
   @RHF iter  16:  -684.73492704866089    9.09495e-13   1.59875e-10 DIIS
   @RHF iter  17:  -684.73492704866180   -9.09495e-13   6.58587e-11 DIIS
  Energy and wave function converged.

  ==> Post-Iterations <==

    Orbital Energies [Eh]
    ---------------------

    Doubly Occupied:

       1A    -91.908191     2A    -20.515439     3A    -15.599748
       4A    -11.356516     5A    -11.248799     6A    -11.241581
       7A    -11.221424     8A     -8.913466     9A     -6.595597
      10A     -6.594079    11A     -6.591811    12A     -1.387440
      13A     -1.228552    14A     -1.049427    15A     -1.008724
      16A     -0.931961    17A     -0.811005    18A     -0.780835
      19A     -0.738581    20A     -0.669602    21A     -0.624631
      22A     -0.592952    23A     -0.588284    24A     -0.582180
      25A     -0.567648    26A     -0.551838    27A     -0.545415
      28A     -0.526555    29A     -0.476180    30A     -0.425454
      31A     -0.418998    32A     -0.392071    33A     -0.307441

    Virtual:

      34A      0.148436    35A      0.190410    36A      0.195673
      37A      0.201308    38A      0.212421    39A      0.233179
      40A      0.248945    41A      0.256946    42A      0.267248
      43A      0.275245    44A      0.280749    45A      0.298548
      46A      0.315735    47A      0.327195    48A      0.378903
      49A      0.467914    50A      0.528882    51A      0.563785
      52A      0.594635    53A      0.610173    54A      0.626704
      55A      0.631148    56A      0.648992    57A      0.683565
      58A      0.702292    59A      0.710289    60A      0.716981
      61A      0.729191    62A      0.746472    63A      0.763236
      64A      0.780868    65A      0.833866    66A      0.838554
      67A      0.845589    68A      0.856210    69A      0.864095
      70A      0.882355    71A      0.887608    72A      0.899635
      73A      0.908826    74A      0.915617    75A      0.927522
      76A      0.936558    77A      0.953848    78A      0.961983
      79A      0.973835    80A      0.979261    81A      1.017121
      82A      1.066990    83A      1.078312    84A      1.133209
      85A      1.191499    86A      1.238569    87A      1.256412
      88A      1.305713    89A      1.323320    90A      1.338071
      91A      1.349722    92A      1.373964    93A      1.378529
      94A      1.400304    95A      1.417910    96A      1.454319
      97A      1.500546    98A      1.511464    99A      1.547129
     100A      1.639111   101A      1.650178   102A      1.676942
     103A      1.692711   104A      1.703395   105A      1.737548
     106A      1.798970   107A      1.850176   108A      1.865258
     109A      1.886576   110A      1.895128   111A      1.911302
     112A      1.923643   113A      1.932665   114A      1.936606
     115A      1.949505   116A      1.968829   117A      2.004890
     118A      2.012845   119A      2.023768   120A      2.050946
     121A      2.078212   122A      2.096393   123A      2.101477
     124A      2.121557   125A      2.148238   126A      2.211909
     127A      2.234365   128A      2.251315   129A      2.262851
     130A      2.398507   131A      2.433136   132A      2.442431
     133A      2.445374   134A      2.484266   135A      2.493031
     136A      2.502383   137A      2.537026   138A      2.590442
     139A      2.608214   140A      2.703830   141A      2.739038
     142A      2.759088   143A      2.774324   144A      2.796811
     145A      2.809390   146A      2.817752   147A      2.842894
     148A      2.867155   149A      2.889670   150A      2.990648
     151A      3.105870   152A      3.147836   153A      3.272212
     154A      3.519867   155A      3.528497   156A      3.868468
     157A      3.936276

    Final Occupation by Irrep:
              A
    DOCC [    33 ]

  @RHF Final Energy:  -684.73492704866180

   => Energetics <=

    Nuclear Repulsion Energy =            369.7240016254086186
    One-Electron Energy =               -1674.9330120017841637
    Two-Electron Energy =                 620.4740833277137426
    Total Energy =                       -684.7349270486618025

Computation Completed

Properties will be evaluated at   0.000000,   0.000000,   0.000000 [a0]

Properties computed using the SCF density matrix

  Nuclear Dipole Moment: [e a0]
     X:    -2.9724      Y:     4.1543      Z:     4.9215

  Electronic Dipole Moment: [e a0]
     X:     1.7386      Y:    -2.4726      Z:    -3.8404

  Dipole Moment: [e a0]
     X:    -1.2339      Y:     1.6817      Z:     1.0811     Total:     2.3493

  Dipole Moment: [D]
     X:    -3.1361      Y:     4.2744      Z:     2.7479     Total:     5.9713

*** tstop() called on ds3 at Mon Apr 27 12:35:56 2020
Module time:
	user time   =      35.34 seconds =       0.59 minutes
	system time =      10.93 seconds =       0.18 minutes
	total time  =         89 seconds =       1.48 minutes
Total time:
	user time   =      35.34 seconds =       0.59 minutes
	system time =      10.93 seconds =       0.18 minutes
	total time  =         89 seconds =       1.48 minutes
                                     G D M A

                                 by Anthony Stone

                           version 2.2.06, 22 June 2011

               Distributed Multipoles from Gaussian wavefunctions

Starting at 12:35:56 on 27 Apr 2020

Using SCF density matrix from file ./SSI/SSI-145GLN-149MET-2-dimer.test.3469.fchk

                         Distributed Multipole Analysis

Standard DMA

Positions and radii in angstrom
Multipole moments in atomic units, ea_0^k for rank k

C          x = -1.992379  y =  0.124200  z =  2.398875 angstrom
           Maximum rank =  0   Radius =  0.650 angstrom
                   Q00  =  -0.262757

C          x = -1.857379  y =  0.277200  z =  0.899875 angstrom
           Maximum rank =  0   Radius =  0.650 angstrom
                   Q00  =   0.811961

O          x = -1.653379  y = -0.701800  z =  0.201875 angstrom
           Maximum rank =  0   Radius =  0.650 angstrom
                   Q00  =  -0.738952

N          x = -1.963379  y =  1.500200  z =  0.393875 angstrom
           Maximum rank =  0   Radius =  0.650 angstrom
                   Q00  =  -0.542782

H          x = -1.760379  y = -0.901800  z =  2.677875 angstrom
           Maximum rank =  0   Radius =  0.325 angstrom
                   Q00  =   0.132244

H          x = -3.030379  y =  0.320200  z =  2.670875 angstrom
           Maximum rank =  0   Radius =  0.325 angstrom
                   Q00  =   0.116174

H          x = -1.905379  y =  1.610200  z = -0.608125 angstrom
           Maximum rank =  0   Radius =  0.325 angstrom
                   Q00  =   0.224548

H          x = -2.180379  y =  2.289200  z =  0.983875 angstrom
           Maximum rank =  0   Radius =  0.325 angstrom
                   Q00  =   0.208946

H          x = -1.351133  y =  0.830596  z =  2.946425 angstrom
           Maximum rank =  0   Radius =  0.325 angstrom
                   Q00  =   0.098314

C          x =  0.566621  y = -1.126800  z = -0.991125 angstrom
           Maximum rank =  0   Radius =  0.650 angstrom
                   Q00  =  -0.263339

C          x =  2.103621  y =  1.022200  z = -0.333125 angstrom
           Maximum rank =  0   Radius =  0.650 angstrom
                   Q00  =  -0.344355

S          x =  2.231621  y = -0.557800  z = -1.181125 angstrom
           Maximum rank =  0   Radius =  0.650 angstrom
                   Q00  =   0.056967

H          x = -0.091379  y = -0.357800  z = -1.390125 angstrom
           Maximum rank =  0   Radius =  0.325 angstrom
                   Q00  =   0.060046

H          x =  0.429621  y = -2.047800  z = -1.557125 angstrom
           Maximum rank =  0   Radius =  0.325 angstrom
                   Q00  =   0.111775

H          x =  0.453621  y = -1.345800  z =  0.068875 angstrom
           Maximum rank =  0   Radius =  0.325 angstrom
                   Q00  =   0.063970

H          x =  2.444621  y =  0.932200  z =  0.692875 angstrom
           Maximum rank =  0   Radius =  0.325 angstrom
                   Q00  =   0.085567

H          x =  1.063621  y =  1.350200  z = -0.330125 angstrom
           Maximum rank =  0   Radius =  0.325 angstrom
                   Q00  =   0.076804

H          x =  2.696437  y =  1.775940  z = -0.872045 angstrom
           Maximum rank =  0   Radius =  0.325 angstrom
                   Q00  =   0.104869

Total multipoles referred to origin at
           x =   0.000000,  y =    0.000000,  z =    0.000000 angstrom
                   Q00  =  -0.000000

Finished at 12:35:56 on 27 Apr 2020

  DMA results are available in the Python driver through the
	  variable('DMA DISTRIBUTED MULTIPOLES')
  and
	  variable('DMA TOTAL MULTIPOLES')
  commands.

    Psi4 stopped on: Monday, 27 April 2020 12:35PM
    Psi4 wall time for execution: 0:01:29.12

*** Psi4 exiting successfully. Buy a developer a beer!
