                               Psi4 1.3.2 release

  ==> Input File <==

--------------------------------------------------------------------------
import numpy as np
set {scf_type pk
basis cc-pvdz
d_convergence 10
gdma_switch   0
gdma_limit    0
gdma_origin   [ 0.0,  0.0,  0.0 ]
}
molecule test {
    units Angstrom
    0 1
    --
    0 1
    C               -0.253600854069836    -1.454334974959966    -1.409066281690621
    C                0.292399145930164    -2.763334974959966    -0.823066281690622
    H               -0.178600854069836    -1.469334974959966    -2.497066281690622
    H               -1.296600854069836    -1.315334974959966    -1.124066281690622
    H                0.289399145930164    -0.592334974959966    -1.035066281690622
    H                0.095399145930164    -2.760334974959966     0.250933718309378
    H                1.379229145930164    -2.835224974959966    -0.976766281690622
    H               -0.226120854069836    -3.625394974959966    -1.268066281690621
    C                0.061399145930164     1.487665025040034     0.676933718309378
    C               -0.098600854069836     2.730665025040034     1.547933718309378
    H                1.113399145930164     1.265665025040034     0.501933718309378
    H               -0.380600854069836     0.628665025040034     1.182933718309378
    H               -0.445600854069836     1.636665025040035    -0.277066281690622
    H                0.504399145930164     2.571665025040034     2.441933718309378
    H                0.269339145930164     3.622595025040034     1.019633718309378
    H               -1.142650854069836     2.864845025040034     1.867233718309378

}
e, wfn = energy('scf', return_wfn=True)
gdma(wfn)
dmavals = variable('DMA DISTRIBUTED MULTIPOLES')
charges = np.array(dmavals)
print(charges)
np.save('SSI-143ILE-146VAL-1-dimer.npy', np.array(charges))--------------------------------------------------------------------------

*** tstart() called on ds3
*** at Tue Apr 28 10:09:37 2020

   => Loading Basis Set <=

    Name: CC-PVDZ
    Role: ORBITAL
    Keyword: BASIS
    atoms 1-2, 9-10  entry C          line   138 file /theoryfs2/ds/metcalf/miniconda2/envs/tf2gpu/share/psi4/basis/cc-pvdz.gbs
    atoms 3-8, 11-16 entry H          line    22 file /theoryfs2/ds/metcalf/miniconda2/envs/tf2gpu/share/psi4/basis/cc-pvdz.gbs

         ---------------------------------------------------------
                                   SCF
               by Justin Turney, Rob Parrish, Andy Simmonett
                          and Daniel G. A. Smith
                              RHF Reference
                        1 Threads,    500 MiB Core
         ---------------------------------------------------------

  ==> Geometry <==

    Molecular point group: c1
    Full point group: C1

    Geometry (in Angstrom), charge = 0, multiplicity = 1:

       Center              X                  Y                   Z               Mass
    ------------   -----------------  -----------------  -----------------  -----------------
         C           -0.253600854070    -1.454334974960    -1.409066281691    12.000000000000
         C            0.292399145930    -2.763334974960    -0.823066281691    12.000000000000
         H           -0.178600854070    -1.469334974960    -2.497066281691     1.007825032230
         H           -1.296600854070    -1.315334974960    -1.124066281691     1.007825032230
         H            0.289399145930    -0.592334974960    -1.035066281691     1.007825032230
         H            0.095399145930    -2.760334974960     0.250933718309     1.007825032230
         H            1.379229145930    -2.835224974960    -0.976766281691     1.007825032230
         H           -0.226120854070    -3.625394974960    -1.268066281691     1.007825032230
         C            0.061399145930     1.487665025040     0.676933718309    12.000000000000
         C           -0.098600854070     2.730665025040     1.547933718309    12.000000000000
         H            1.113399145930     1.265665025040     0.501933718309     1.007825032230
         H           -0.380600854070     0.628665025040     1.182933718309     1.007825032230
         H           -0.445600854070     1.636665025040    -0.277066281691     1.007825032230
         H            0.504399145930     2.571665025040     2.441933718309     1.007825032230
         H            0.269339145930     3.622595025040     1.019633718309     1.007825032230
         H           -1.142650854070     2.864845025040     1.867233718309     1.007825032230

  Running in c1 symmetry.

  Rotational constants: A =      0.65883  B =      0.04446  C =      0.04308 [cm^-1]
  Rotational constants: A =  19751.10315  B =   1332.83716  C =   1291.63783 [MHz]
  Nuclear repulsion =  121.452213205772622

  Charge       = 0
  Multiplicity = 1
  Electrons    = 36
  Nalpha       = 18
  Nbeta        = 18

  ==> Algorithm <==

  SCF Algorithm Type is PK.
  DIIS enabled.
  MOM disabled.
  Fractional occupation disabled.
  Guess Type is SAD.
  Energy threshold   = 1.00e-06
  Density threshold  = 1.00e-10
  Integral threshold = 0.00e+00

  ==> Primary Basis <==

  Basis Set: CC-PVDZ
    Blend: CC-PVDZ
    Number of shells: 60
    Number of basis function: 116
    Number of Cartesian functions: 120
    Spherical Harmonics?: true
    Max angular momentum: 2

  ==> Pre-Iterations <==

   -------------------------------------------------------
    Irrep   Nso     Nmo     Nalpha   Nbeta   Ndocc  Nsocc
   -------------------------------------------------------
     A        116     116       0       0       0       0
   -------------------------------------------------------
    Total     116     116      18      18      18       0
   -------------------------------------------------------

  ==> Integral Setup <==

  Using integral reordering PK algorithm.
  Sizing the integral batches needed.
  Building batch lookup table.
   Calculation information:
      Number of atoms:                  16
      Number of AO shells:              60
      Number of primitives:            148
      Number of atomic orbitals:       120
      Number of basis functions:       116

      Integral cutoff                 1.00e-12
      Number of threads:                 1

	Batch   1 pq = [       0,    6786] index = [             0,23028291] size =     23028291
  Task number: 3
  Buffer size: 11059200
  Buffer per thread: 2
  We computed 1395527 shell quartets total.
  Whereas there are 1675365 unique shell quartets.

  ==> DiskJK: Disk-Based J/K Matrices <==

    J tasked:                  Yes
    K tasked:                  Yes
    wK tasked:                  No
    Memory [MiB]:              375
    Schwarz Cutoff:          1E-12

    OpenMP threads:              1

  Minimum eigenvalue in the overlap matrix is 5.8509523472E-03.
  Using Symmetric Orthogonalization.

  SCF Guess: Superposition of Atomic Densities via on-the-fly atomic UHF.

  ==> Iterations <==

                        Total Energy        Delta E     RMS |[F,P]|

   @RHF iter SAD:  -157.35062320563688   -1.57351e+02   0.00000e+00
   @RHF iter   1:  -158.30750670852044   -9.56884e-01   4.20158e-03 DIIS
   @RHF iter   2:  -158.44065458687936   -1.33148e-01   1.78541e-03 DIIS
   @RHF iter   3:  -158.46383215432476   -2.31776e-02   3.50596e-04 DIIS
   @RHF iter   4:  -158.46567993902244   -1.84778e-03   3.93593e-05 DIIS
   @RHF iter   5:  -158.46570438608293   -2.44471e-05   6.89006e-06 DIIS
   @RHF iter   6:  -158.46570507185237   -6.85769e-07   1.28662e-06 DIIS
   @RHF iter   7:  -158.46570508810385   -1.62515e-08   3.41814e-07 DIIS
   @RHF iter   8:  -158.46570508925882   -1.15497e-09   5.02722e-08 DIIS
   @RHF iter   9:  -158.46570508930361   -4.47926e-11   1.13259e-08 DIIS
   @RHF iter  10:  -158.46570508930520   -1.59162e-12   2.93930e-09 DIIS
   @RHF iter  11:  -158.46570508930586   -6.53699e-13   8.60073e-10 DIIS
   @RHF iter  12:  -158.46570508930552    3.41061e-13   2.04458e-10 DIIS
   @RHF iter  13:  -158.46570508930552    0.00000e+00   3.23826e-11 DIIS
  Energy and wave function converged.

  ==> Post-Iterations <==

    Orbital Energies [Eh]
    ---------------------

    Doubly Occupied:

       1A    -11.219533     2A    -11.219333     3A    -11.217432
       4A    -11.214091     5A     -1.020117     6A     -1.014525
       7A     -0.840793     8A     -0.833261     9A     -0.599854
      10A     -0.598691    11A     -0.595579    12A     -0.594329
      13A     -0.508012    14A     -0.497019    15A     -0.487536
      16A     -0.485307    17A     -0.483537    18A     -0.479253

    Virtual:

      19A      0.174340    20A      0.193983    21A      0.227620
      22A      0.234103    23A      0.242137    24A      0.259720
      25A      0.266164    26A      0.276898    27A      0.279965
      28A      0.285860    29A      0.308357    30A      0.327624
      31A      0.397397    32A      0.418316    33A      0.581265
      34A      0.592769    35A      0.598854    36A      0.600997
      37A      0.611080    38A      0.631502    39A      0.680165
      40A      0.688842    41A      0.709699    42A      0.764148
      43A      0.843103    44A      0.880845    45A      0.884620
      46A      0.891454    47A      0.892830    48A      0.893304
      49A      0.902653    50A      0.908053    51A      0.916479
      52A      0.931005    53A      0.934995    54A      0.948195
      55A      0.971507    56A      1.015635    57A      1.117878
      58A      1.129662    59A      1.132653    60A      1.142377
      61A      1.236870    62A      1.269702    63A      1.466808
      64A      1.470946    65A      1.481472    66A      1.487505
      67A      1.573600    68A      1.585851    69A      1.678796
      70A      1.681923    71A      1.692957    72A      1.710000
      73A      1.852672    74A      1.856550    75A      1.866880
      76A      1.882757    77A      1.898472    78A      1.914884
      79A      1.933028    80A      1.936021    81A      1.938974
      82A      1.944073    83A      1.949057    84A      1.954227
      85A      1.970115    86A      1.974761    87A      1.988505
      88A      2.040598    89A      2.091190    90A      2.097002
      91A      2.127015    92A      2.139291    93A      2.293573
      94A      2.302589    95A      2.325625    96A      2.341419
      97A      2.444389    98A      2.456903    99A      2.467533
     100A      2.474334   101A      2.552514   102A      2.557268
     103A      2.580286   104A      2.598279   105A      2.754725
     106A      2.760530   107A      2.777697   108A      2.812134
     109A      2.844490   110A      2.850320   111A      2.858484
     112A      2.864041   113A      2.941979   114A      2.952307
     115A      2.961332   116A      2.977011

    Final Occupation by Irrep:
              A
    DOCC [    18 ]

  @RHF Final Energy:  -158.46570508930552

   => Energetics <=

    Nuclear Repulsion Energy =            121.4522132057726225
    One-Electron Energy =                -452.0194366968645454
    Two-Electron Energy =                 172.1015184017863930
    Total Energy =                       -158.4657050893055157

Computation Completed

Properties will be evaluated at   0.000000,   0.000000,   0.000000 [a0]

Properties computed using the SCF density matrix

  Nuclear Dipole Moment: [e a0]
     X:    -0.0178      Y:    -0.0074      Z:     0.0811

  Electronic Dipole Moment: [e a0]
     X:     0.0202      Y:     0.0305      Z:    -0.0598

  Dipole Moment: [e a0]
     X:     0.0024      Y:     0.0231      Z:     0.0213     Total:     0.0315

  Dipole Moment: [D]
     X:     0.0061      Y:     0.0587      Z:     0.0542     Total:     0.0801

*** tstop() called on ds3 at Tue Apr 28 10:09:48 2020
Module time:
	user time   =       6.92 seconds =       0.12 minutes
	system time =       2.60 seconds =       0.04 minutes
	total time  =         11 seconds =       0.18 minutes
Total time:
	user time   =       6.92 seconds =       0.12 minutes
	system time =       2.60 seconds =       0.04 minutes
	total time  =         11 seconds =       0.18 minutes
                                     G D M A

                                 by Anthony Stone

                           version 2.2.06, 22 June 2011

               Distributed Multipoles from Gaussian wavefunctions

Starting at 10:9:48 on 28 Apr 2020

Using SCF density matrix from file ./SSI/SSI-143ILE-146VAL-1-dimer.test.866.fchk

                         Distributed Multipole Analysis

Standard DMA

Positions and radii in angstrom
Multipole moments in atomic units, ea_0^k for rank k

C          x = -0.253601  y = -1.454335  z = -1.409066 angstrom
           Maximum rank =  0   Radius =  0.650 angstrom
                   Q00  =  -0.247807

C          x =  0.292399  y = -2.763335  z = -0.823066 angstrom
           Maximum rank =  0   Radius =  0.650 angstrom
                   Q00  =  -0.233179

H          x = -0.178601  y = -1.469335  z = -2.497066 angstrom
           Maximum rank =  0   Radius =  0.325 angstrom
                   Q00  =   0.077051

H          x = -1.296601  y = -1.315335  z = -1.124066 angstrom
           Maximum rank =  0   Radius =  0.325 angstrom
                   Q00  =   0.077131

H          x =  0.289399  y = -0.592335  z = -1.035066 angstrom
           Maximum rank =  0   Radius =  0.325 angstrom
                   Q00  =   0.086616

H          x =  0.095399  y = -2.760335  z =  0.250934 angstrom
           Maximum rank =  0   Radius =  0.325 angstrom
                   Q00  =   0.076376

H          x =  1.379229  y = -2.835225  z = -0.976766 angstrom
           Maximum rank =  0   Radius =  0.325 angstrom
                   Q00  =   0.080172

H          x = -0.226121  y = -3.625395  z = -1.268066 angstrom
           Maximum rank =  0   Radius =  0.325 angstrom
                   Q00  =   0.080581

C          x =  0.061399  y =  1.487665  z =  0.676934 angstrom
           Maximum rank =  0   Radius =  0.650 angstrom
                   Q00  =  -0.240836

C          x = -0.098601  y =  2.730665  z =  1.547934 angstrom
           Maximum rank =  0   Radius =  0.650 angstrom
                   Q00  =  -0.230901

H          x =  1.113399  y =  1.265665  z =  0.501934 angstrom
           Maximum rank =  0   Radius =  0.325 angstrom
                   Q00  =   0.077850

H          x = -0.380601  y =  0.628665  z =  1.182934 angstrom
           Maximum rank =  0   Radius =  0.325 angstrom
                   Q00  =   0.078966

H          x = -0.445601  y =  1.636665  z = -0.277066 angstrom
           Maximum rank =  0   Radius =  0.325 angstrom
                   Q00  =   0.077864

H          x =  0.504399  y =  2.571665  z =  2.441934 angstrom
           Maximum rank =  0   Radius =  0.325 angstrom
                   Q00  =   0.077183

H          x =  0.269339  y =  3.622595  z =  1.019634 angstrom
           Maximum rank =  0   Radius =  0.325 angstrom
                   Q00  =   0.080828

H          x = -1.142651  y =  2.864845  z =  1.867234 angstrom
           Maximum rank =  0   Radius =  0.325 angstrom
                   Q00  =   0.082104

Total multipoles referred to origin at
           x =   0.000000,  y =    0.000000,  z =    0.000000 angstrom
                   Q00  =  -0.000000

Finished at 10:9:48 on 28 Apr 2020

  DMA results are available in the Python driver through the
	  variable('DMA DISTRIBUTED MULTIPOLES')
  and
	  variable('DMA TOTAL MULTIPOLES')
  commands.

    Psi4 stopped on: Tuesday, 28 April 2020 10:09AM
    Psi4 wall time for execution: 0:00:10.54

*** Psi4 exiting successfully. Buy a developer a beer!
