                               Psi4 1.3.2 release

  ==> Input File <==

--------------------------------------------------------------------------
import numpy as np
set {scf_type pk
basis cc-pvdz
d_convergence 10
gdma_switch   0
gdma_limit    0
gdma_origin   [ 0.0,  0.0,  0.0 ]
}
molecule test {
    units Angstrom
    0 1
    --
    0 1
    C               -0.828160652587520    -0.941037660151765     0.389934770796071
    C               -1.050160652587520    -1.625037660151765     1.738934770796071
    C               -0.906160652587520    -1.908037660151765    -0.770065229203929
    H               -1.594160652587520    -0.177037660151765     0.243934770796071
    H                0.137839347412480    -0.458037660151765     0.376934770796071
    H               -1.894160652587520    -2.311037660151765     1.672934770796071
    H               -0.690160652587520    -1.381037660151765    -1.699065229203929
    H               -0.153160652587520    -2.685037660151765    -0.631065229203929
    H               -1.240050652587520    -0.873787660151765     2.519684770796071
    H               -0.147240652587520    -2.177987660151765     2.037234770796071
    H               -1.901210652587520    -2.371377660151765    -0.842095229203929
    C                1.660839347412480     1.509962339848235    -0.568065229203929
    C                1.061839347412480     2.897962339848235    -0.771065229203929
    H                2.745839347412480     1.518962339848235    -0.671065229203929
    H                1.462839347412480     1.198962339848235     0.456934770796071
    H                1.226839347412480     0.800962339848235    -1.276065229203929
    H                1.544839347412480     3.568962339848235    -0.061065229203929
    H                1.256799347412480     3.250612339848235    -1.794605229203929
    H               -0.018970652587520     2.884972339848235    -0.566885229203929

}
e, wfn = energy('scf', return_wfn=True)
gdma(wfn)
dmavals = variable('DMA DISTRIBUTED MULTIPOLES')
charges = np.array(dmavals)
print(charges)
np.save('SSI-169MET-184VAL-1-dimer.npy', np.array(charges))--------------------------------------------------------------------------

*** tstart() called on ds3
*** at Tue Apr 28 11:48:49 2020

   => Loading Basis Set <=

    Name: CC-PVDZ
    Role: ORBITAL
    Keyword: BASIS
    atoms 1-3, 12-13  entry C          line   138 file /theoryfs2/ds/metcalf/miniconda2/envs/tf2gpu/share/psi4/basis/cc-pvdz.gbs
    atoms 4-11, 14-19 entry H          line    22 file /theoryfs2/ds/metcalf/miniconda2/envs/tf2gpu/share/psi4/basis/cc-pvdz.gbs

         ---------------------------------------------------------
                                   SCF
               by Justin Turney, Rob Parrish, Andy Simmonett
                          and Daniel G. A. Smith
                              RHF Reference
                        1 Threads,    500 MiB Core
         ---------------------------------------------------------

  ==> Geometry <==

    Molecular point group: c1
    Full point group: C1

    Geometry (in Angstrom), charge = 0, multiplicity = 1:

       Center              X                  Y                   Z               Mass
    ------------   -----------------  -----------------  -----------------  -----------------
         C           -0.828160652588    -0.941037660152     0.389934770796    12.000000000000
         C           -1.050160652588    -1.625037660152     1.738934770796    12.000000000000
         C           -0.906160652588    -1.908037660152    -0.770065229204    12.000000000000
         H           -1.594160652588    -0.177037660152     0.243934770796     1.007825032230
         H            0.137839347412    -0.458037660152     0.376934770796     1.007825032230
         H           -1.894160652588    -2.311037660152     1.672934770796     1.007825032230
         H           -0.690160652588    -1.381037660152    -1.699065229204     1.007825032230
         H           -0.153160652588    -2.685037660152    -0.631065229204     1.007825032230
         H           -1.240050652588    -0.873787660152     2.519684770796     1.007825032230
         H           -0.147240652588    -2.177987660152     2.037234770796     1.007825032230
         H           -1.901210652588    -2.371377660152    -0.842095229204     1.007825032230
         C            1.660839347412     1.509962339848    -0.568065229204    12.000000000000
         C            1.061839347412     2.897962339848    -0.771065229204    12.000000000000
         H            2.745839347412     1.518962339848    -0.671065229204     1.007825032230
         H            1.462839347412     1.198962339848     0.456934770796     1.007825032230
         H            1.226839347412     0.800962339848    -1.276065229204     1.007825032230
         H            1.544839347412     3.568962339848    -0.061065229204     1.007825032230
         H            1.256799347412     3.250612339848    -1.794605229204     1.007825032230
         H           -0.018970652588     2.884972339848    -0.566885229204     1.007825032230

  Running in c1 symmetry.

  Rotational constants: A =      0.21934  B =      0.04162  C =      0.03824 [cm^-1]
  Rotational constants: A =   6575.65805  B =   1247.86629  C =   1146.40873 [MHz]
  Nuclear repulsion =  179.349302888118814

  Charge       = 0
  Multiplicity = 1
  Electrons    = 44
  Nalpha       = 22
  Nbeta        = 22

  ==> Algorithm <==

  SCF Algorithm Type is PK.
  DIIS enabled.
  MOM disabled.
  Fractional occupation disabled.
  Guess Type is SAD.
  Energy threshold   = 1.00e-06
  Density threshold  = 1.00e-10
  Integral threshold = 0.00e+00

  ==> Primary Basis <==

  Basis Set: CC-PVDZ
    Blend: CC-PVDZ
    Number of shells: 72
    Number of basis function: 140
    Number of Cartesian functions: 145
    Spherical Harmonics?: true
    Max angular momentum: 2

  ==> Pre-Iterations <==

   -------------------------------------------------------
    Irrep   Nso     Nmo     Nalpha   Nbeta   Ndocc  Nsocc
   -------------------------------------------------------
     A        140     140       0       0       0       0
   -------------------------------------------------------
    Total     140     140      22      22      22       0
   -------------------------------------------------------

  ==> Integral Setup <==

  Using integral reordering PK algorithm.
  Sizing the integral batches needed.
  Building batch lookup table.
   Calculation information:
      Number of atoms:                  19
      Number of AO shells:              72
      Number of primitives:            180
      Number of atomic orbitals:       145
      Number of basis functions:       140

      Integral cutoff                 1.00e-12
      Number of threads:                 1

	Batch   1 pq = [       0,    9405] index = [             0,44231715] size =     44231715
	Batch   2 pq = [    9405,    9870] index = [      44231715,48713385] size =      4481670
  Task number: 5
  Buffer size: 11059200
  Buffer per thread: 2
  We computed 2888613 shell quartets total.
  Whereas there are 3454506 unique shell quartets.

  ==> DiskJK: Disk-Based J/K Matrices <==

    J tasked:                  Yes
    K tasked:                  Yes
    wK tasked:                  No
    Memory [MiB]:              375
    Schwarz Cutoff:          1E-12

    OpenMP threads:              1

  Minimum eigenvalue in the overlap matrix is 5.2540425519E-03.
  Using Symmetric Orthogonalization.

  SCF Guess: Superposition of Atomic Densities via on-the-fly atomic UHF.

  ==> Iterations <==

                        Total Energy        Delta E     RMS |[F,P]|

   @RHF iter SAD:  -196.41839980355709   -1.96418e+02   0.00000e+00
   @RHF iter   1:  -197.30779984896049   -8.89400e-01   3.82467e-03 DIIS
   @RHF iter   2:  -197.46937626362271   -1.61576e-01   1.65201e-03 DIIS
   @RHF iter   3:  -197.49817751997426   -2.88013e-02   3.27774e-04 DIIS
   @RHF iter   4:  -197.50042961008444   -2.25209e-03   4.85671e-05 DIIS
   @RHF iter   5:  -197.50046886135144   -3.92513e-05   1.49840e-05 DIIS
   @RHF iter   6:  -197.50047229835181   -3.43700e-06   2.41222e-06 DIIS
   @RHF iter   7:  -197.50047240514385   -1.06792e-07   4.61502e-07 DIIS
   @RHF iter   8:  -197.50047240943144   -4.28759e-09   1.17567e-07 DIIS
   @RHF iter   9:  -197.50047240970378   -2.72337e-10   3.64698e-08 DIIS
   @RHF iter  10:  -197.50047240973379   -3.00133e-11   8.10614e-09 DIIS
   @RHF iter  11:  -197.50047240973521   -1.42109e-12   1.57242e-09 DIIS
   @RHF iter  12:  -197.50047240973529   -8.52651e-14   3.05806e-10 DIIS
   @RHF iter  13:  -197.50047240973504    2.55795e-13   4.94898e-11 DIIS
  Energy and wave function converged.

  ==> Post-Iterations <==

    Orbital Energies [Eh]
    ---------------------

    Doubly Occupied:

       1A    -11.220061     2A    -11.217285     3A    -11.215778
       4A    -11.214192     5A    -11.213556     6A     -1.055448
       7A     -1.020477     8A     -0.923241     9A     -0.837807
      10A     -0.794898    11A     -0.628039    12A     -0.603368
      13A     -0.599743    14A     -0.592600    15A     -0.547453
      16A     -0.530509    17A     -0.503264    18A     -0.490411
      19A     -0.488221    20A     -0.469848    21A     -0.465687
      22A     -0.461116

    Virtual:

      23A      0.169675    24A      0.195307    25A      0.212169
      26A      0.224686    27A      0.236949    28A      0.250818
      29A      0.256224    30A      0.267785    31A      0.271913
      32A      0.285403    33A      0.295811    34A      0.308536
      35A      0.328705    36A      0.347474    37A      0.369670
      38A      0.407514    39A      0.430188    40A      0.571411
      41A      0.582844    42A      0.603240    43A      0.608946
      44A      0.613842    45A      0.623026    46A      0.633007
      47A      0.651880    48A      0.679018    49A      0.785169
      50A      0.799751    51A      0.817939    52A      0.853160
      53A      0.865276    54A      0.874899    55A      0.884014
      56A      0.890492    57A      0.894173    58A      0.897310
      59A      0.900562    60A      0.907387    61A      0.909573
      62A      0.922694    63A      0.938700    64A      0.941622
      65A      0.954329    66A      0.969326    67A      0.987093
      68A      1.023140    69A      1.119454    70A      1.124138
      71A      1.128637    72A      1.170613    73A      1.240578
      74A      1.278813    75A      1.392336    76A      1.465734
      77A      1.477175    78A      1.483467    79A      1.486900
      80A      1.533621    81A      1.564406    82A      1.643806
      83A      1.677804    84A      1.680797    85A      1.687240
      86A      1.699596    87A      1.713880    88A      1.854322
      89A      1.860743    90A      1.867387    91A      1.877334
      92A      1.890476    93A      1.901651    94A      1.917763
      95A      1.928266    96A      1.938113    97A      1.945349
      98A      1.949797    99A      1.957878   100A      1.970398
     101A      1.973455   102A      1.983658   103A      1.991624
     104A      2.001459   105A      2.014544   106A      2.037243
     107A      2.067624   108A      2.094008   109A      2.124542
     110A      2.150743   111A      2.164530   112A      2.283010
     113A      2.294986   114A      2.307183   115A      2.321603
     116A      2.323868   117A      2.354415   118A      2.452416
     119A      2.475406   120A      2.498503   121A      2.537308
     122A      2.560551   123A      2.579279   124A      2.582386
     125A      2.616220   126A      2.645239   127A      2.755158
     128A      2.762825   129A      2.770430   130A      2.781364
     131A      2.792194   132A      2.832711   133A      2.845549
     134A      2.856501   135A      2.918526   136A      2.950339
     137A      2.963373   138A      2.974626   139A      2.995858
     140A      3.097506

    Final Occupation by Irrep:
              A
    DOCC [    22 ]

  @RHF Final Energy:  -197.50047240973504

   => Energetics <=

    Nuclear Repulsion Energy =            179.3493028881188138
    One-Electron Energy =                -619.5135431367186811
    Two-Electron Energy =                 242.6637678388648283
    Total Energy =                       -197.5004724097350390

Computation Completed

Properties will be evaluated at   0.000000,   0.000000,   0.000000 [a0]

Properties computed using the SCF density matrix

  Nuclear Dipole Moment: [e a0]
     X:     0.6899      Y:     0.7388      Z:    -0.2196

  Electronic Dipole Moment: [e a0]
     X:    -0.6417      Y:    -0.6774      Z:     0.2201

  Dipole Moment: [e a0]
     X:     0.0481      Y:     0.0614      Z:     0.0004     Total:     0.0780

  Dipole Moment: [D]
     X:     0.1223      Y:     0.1562      Z:     0.0011     Total:     0.1984

*** tstop() called on ds3 at Tue Apr 28 11:49:09 2020
Module time:
	user time   =      14.85 seconds =       0.25 minutes
	system time =       5.66 seconds =       0.09 minutes
	total time  =         20 seconds =       0.33 minutes
Total time:
	user time   =      14.85 seconds =       0.25 minutes
	system time =       5.66 seconds =       0.09 minutes
	total time  =         20 seconds =       0.33 minutes
                                     G D M A

                                 by Anthony Stone

                           version 2.2.06, 22 June 2011

               Distributed Multipoles from Gaussian wavefunctions

Starting at 11:49:9 on 28 Apr 2020

Using SCF density matrix from file ./SSI/SSI-169MET-184VAL-1-dimer.test.4246.fchk

                         Distributed Multipole Analysis

Standard DMA

Positions and radii in angstrom
Multipole moments in atomic units, ea_0^k for rank k

C          x = -0.828161  y = -0.941038  z =  0.389935 angstrom
           Maximum rank =  0   Radius =  0.650 angstrom
                   Q00  =  -0.077356

C          x = -1.050161  y = -1.625038  z =  1.738935 angstrom
           Maximum rank =  0   Radius =  0.650 angstrom
                   Q00  =  -0.246323

C          x = -0.906161  y = -1.908038  z = -0.770065 angstrom
           Maximum rank =  0   Radius =  0.650 angstrom
                   Q00  =  -0.240205

H          x = -1.594161  y = -0.177038  z =  0.243935 angstrom
           Maximum rank =  0   Radius =  0.325 angstrom
                   Q00  =   0.040462

H          x =  0.137839  y = -0.458038  z =  0.376935 angstrom
           Maximum rank =  0   Radius =  0.325 angstrom
                   Q00  =   0.057729

H          x = -1.894161  y = -2.311038  z =  1.672935 angstrom
           Maximum rank =  0   Radius =  0.325 angstrom
                   Q00  =   0.077117

H          x = -0.690161  y = -1.381038  z = -1.699065 angstrom
           Maximum rank =  0   Radius =  0.325 angstrom
                   Q00  =   0.080619

H          x = -0.153161  y = -2.685038  z = -0.631065 angstrom
           Maximum rank =  0   Radius =  0.325 angstrom
                   Q00  =   0.071899

H          x = -1.240051  y = -0.873788  z =  2.519685 angstrom
           Maximum rank =  0   Radius =  0.325 angstrom
                   Q00  =   0.081007

H          x = -0.147241  y = -2.177988  z =  2.037235 angstrom
           Maximum rank =  0   Radius =  0.325 angstrom
                   Q00  =   0.076106

H          x = -1.901211  y = -2.371378  z = -0.842095 angstrom
           Maximum rank =  0   Radius =  0.325 angstrom
                   Q00  =   0.076464

C          x =  1.660839  y =  1.509962  z = -0.568065 angstrom
           Maximum rank =  0   Radius =  0.650 angstrom
                   Q00  =  -0.238103

C          x =  1.061839  y =  2.897962  z = -0.771065 angstrom
           Maximum rank =  0   Radius =  0.650 angstrom
                   Q00  =  -0.227923

H          x =  2.745839  y =  1.518962  z = -0.671065 angstrom
           Maximum rank =  0   Radius =  0.325 angstrom
                   Q00  =   0.079544

H          x =  1.462839  y =  1.198962  z =  0.456935 angstrom
           Maximum rank =  0   Radius =  0.325 angstrom
                   Q00  =   0.074401

H          x =  1.226839  y =  0.800962  z = -1.276065 angstrom
           Maximum rank =  0   Radius =  0.325 angstrom
                   Q00  =   0.078549

H          x =  1.544839  y =  3.568962  z = -0.061065 angstrom
           Maximum rank =  0   Radius =  0.325 angstrom
                   Q00  =   0.077406

H          x =  1.256799  y =  3.250612  z = -1.794605 angstrom
           Maximum rank =  0   Radius =  0.325 angstrom
                   Q00  =   0.078557

H          x = -0.018971  y =  2.884972  z = -0.566885 angstrom
           Maximum rank =  0   Radius =  0.325 angstrom
                   Q00  =   0.080050

Total multipoles referred to origin at
           x =   0.000000,  y =    0.000000,  z =    0.000000 angstrom
                   Q00  =  -0.000000

Finished at 11:49:9 on 28 Apr 2020

  DMA results are available in the Python driver through the
	  variable('DMA DISTRIBUTED MULTIPOLES')
  and
	  variable('DMA TOTAL MULTIPOLES')
  commands.

    Psi4 stopped on: Tuesday, 28 April 2020 11:49AM
    Psi4 wall time for execution: 0:00:19.90

*** Psi4 exiting successfully. Buy a developer a beer!
