                               Psi4 1.3.2 release

  ==> Input File <==

--------------------------------------------------------------------------
import numpy as np
set {scf_type pk
basis cc-pvdz
d_convergence 10
gdma_switch   0
gdma_limit    0
gdma_origin   [ 0.0,  0.0,  0.0 ]
}
molecule test {
    units Angstrom
    -1 1
    --
    -1 1
    C                1.135053478548248     1.962122424184624    -2.547559636429391
    C                0.351053478548248     2.970122424184624    -1.723559636429392
    O                0.919053478548248     3.535122424184625    -0.763559636429392
    O               -0.840946521451752     3.188122424184624    -2.032559636429391
    H                1.147053478548248     2.274122424184624    -3.594559636429391
    H                0.630053478548248     0.996122424184624    -2.484559636429391
    H                2.167502478548248     1.841882424184624    -2.187569636429391
    C                0.166053478548248    -4.484877575815375     1.210440363570608
    C               -0.400946521451752    -0.238877575815376     0.852440363570608
    C                0.778053478548248    -0.822877575815376     0.404440363570608
    C               -1.397946521451752    -1.025877575815376     1.418440363570608
    C                0.956053478548248    -2.196877575815376     0.523440363570608
    C               -1.211946521451752    -2.399877575815376     1.532440363570608
    C               -0.032946521451752    -2.995877575815376     1.091440363570608
    O               -0.581946521451752     1.106122424184624     0.738440363570608
    H                0.184053478548248     1.566122424184624     0.382440363570608
    H                1.557053478548248    -0.218877575815376    -0.032559636429392
    H               -2.308946521451752    -0.562877575815376     1.768440363570608
    H                1.875053478548248    -2.646877575815376     0.170440363570608
    H               -1.991946521451752    -3.009877575815376     1.969440363570608
    H               -0.545946521451752    -4.896877575815376     1.923440363570608
    H                1.161053478548248    -4.656877575815376     1.604440363570608
    H                0.043449478548248    -5.009187575815376     0.251240363570608

}
e, wfn = energy('scf', return_wfn=True)
gdma(wfn)
dmavals = variable('DMA DISTRIBUTED MULTIPOLES')
charges = np.array(dmavals)
print(charges)
np.save('SSI-055ASP-105TYR-1-dimer.npy', np.array(charges))--------------------------------------------------------------------------

*** tstart() called on ds3
*** at Mon Apr 27 12:33:35 2020

   => Loading Basis Set <=

    Name: CC-PVDZ
    Role: ORBITAL
    Keyword: BASIS
    atoms 1-2, 8-14  entry C          line   138 file /theoryfs2/ds/metcalf/miniconda2/envs/tf2gpu/share/psi4/basis/cc-pvdz.gbs
    atoms 3-4, 15    entry O          line   198 file /theoryfs2/ds/metcalf/miniconda2/envs/tf2gpu/share/psi4/basis/cc-pvdz.gbs
    atoms 5-7, 16-23 entry H          line    22 file /theoryfs2/ds/metcalf/miniconda2/envs/tf2gpu/share/psi4/basis/cc-pvdz.gbs

         ---------------------------------------------------------
                                   SCF
               by Justin Turney, Rob Parrish, Andy Simmonett
                          and Daniel G. A. Smith
                              RHF Reference
                        1 Threads,    500 MiB Core
         ---------------------------------------------------------

  ==> Geometry <==

    Molecular point group: c1
    Full point group: C1

    Geometry (in Angstrom), charge = -1, multiplicity = 1:

       Center              X                  Y                   Z               Mass
    ------------   -----------------  -----------------  -----------------  -----------------
         C            1.135053478548     1.962122424185    -2.547559636429    12.000000000000
         C            0.351053478548     2.970122424185    -1.723559636429    12.000000000000
         O            0.919053478548     3.535122424185    -0.763559636429    15.994914619570
         O           -0.840946521452     3.188122424185    -2.032559636429    15.994914619570
         H            1.147053478548     2.274122424185    -3.594559636429     1.007825032230
         H            0.630053478548     0.996122424185    -2.484559636429     1.007825032230
         H            2.167502478548     1.841882424185    -2.187569636429     1.007825032230
         C            0.166053478548    -4.484877575815     1.210440363571    12.000000000000
         C           -0.400946521452    -0.238877575815     0.852440363571    12.000000000000
         C            0.778053478548    -0.822877575815     0.404440363571    12.000000000000
         C           -1.397946521452    -1.025877575815     1.418440363571    12.000000000000
         C            0.956053478548    -2.196877575815     0.523440363571    12.000000000000
         C           -1.211946521452    -2.399877575815     1.532440363571    12.000000000000
         C           -0.032946521452    -2.995877575815     1.091440363571    12.000000000000
         O           -0.581946521452     1.106122424185     0.738440363571    15.994914619570
         H            0.184053478548     1.566122424185     0.382440363571     1.007825032230
         H            1.557053478548    -0.218877575815    -0.032559636429     1.007825032230
         H           -2.308946521452    -0.562877575815     1.768440363571     1.007825032230
         H            1.875053478548    -2.646877575815     0.170440363571     1.007825032230
         H           -1.991946521452    -3.009877575815     1.969440363571     1.007825032230
         H           -0.545946521452    -4.896877575815     1.923440363571     1.007825032230
         H            1.161053478548    -4.656877575815     1.604440363571     1.007825032230
         H            0.043449478548    -5.009187575815     0.251240363571     1.007825032230

  Running in c1 symmetry.

  Rotational constants: A =      0.07231  B =      0.01183  C =      0.01097 [cm^-1]
  Rotational constants: A =   2167.84186  B =    354.79258  C =    328.75743 [MHz]
  Nuclear repulsion =  639.927302687224937

  Charge       = -1
  Multiplicity = 1
  Electrons    = 90
  Nalpha       = 45
  Nbeta        = 45

  ==> Algorithm <==

  SCF Algorithm Type is PK.
  DIIS enabled.
  MOM disabled.
  Fractional occupation disabled.
  Guess Type is SAD.
  Energy threshold   = 1.00e-06
  Density threshold  = 1.00e-10
  Integral threshold = 0.00e+00

  ==> Primary Basis <==

  Basis Set: CC-PVDZ
    Blend: CC-PVDZ
    Number of shells: 105
    Number of basis function: 223
    Number of Cartesian functions: 235
    Spherical Harmonics?: true
    Max angular momentum: 2

  ==> Pre-Iterations <==

   -------------------------------------------------------
    Irrep   Nso     Nmo     Nalpha   Nbeta   Ndocc  Nsocc
   -------------------------------------------------------
     A        223     223       0       0       0       0
   -------------------------------------------------------
    Total     223     223      45      45      45       0
   -------------------------------------------------------

  ==> Integral Setup <==

  Using integral reordering PK algorithm.
  Sizing the integral batches needed.
  Building batch lookup table.
   Calculation information:
      Number of atoms:                  23
      Number of AO shells:             105
      Number of primitives:            319
      Number of atomic orbitals:       235
      Number of basis functions:       223

      Integral cutoff                 1.00e-12
      Number of threads:                 1

	Batch   1 pq = [       0,    9405] index = [             0,44231715] size =     44231715
	Batch   2 pq = [    9405,   13301] index = [      44231715,88464951] size =     44233236
	Batch   3 pq = [   13301,   16290] index = [      88464951,132690195] size =     44225244
	Batch   4 pq = [   16290,   18810] index = [     132690195,176917455] size =     44227260
	Batch   5 pq = [   18810,   21030] index = [     176917455,221140965] size =     44223510
	Batch   6 pq = [   21030,   23037] index = [     221140965,265363203] size =     44222238
	Batch   7 pq = [   23037,   24976] index = [     265363203,311912776] size =     46549573
  Task number: 29
  Buffer size: 11059200
  Buffer per thread: 2
  We computed 12912912 shell quartets total.
  Whereas there are 15487395 unique shell quartets.

  ==> DiskJK: Disk-Based J/K Matrices <==

    J tasked:                  Yes
    K tasked:                  Yes
    wK tasked:                  No
    Memory [MiB]:              375
    Schwarz Cutoff:          1E-12

    OpenMP threads:              1

  Minimum eigenvalue in the overlap matrix is 3.1686427807E-04.
  Using Symmetric Orthogonalization.

  SCF Guess: Superposition of Atomic Densities via on-the-fly atomic UHF.

  ==> Iterations <==

                        Total Energy        Delta E     RMS |[F,P]|

   @RHF iter SAD:  -570.23137639296237   -5.70231e+02   0.00000e+00
   @RHF iter   1:  -571.52342962889566   -1.29205e+00   3.68799e-03 DIIS
   @RHF iter   2:  -571.80138337721098   -2.77954e-01   1.97280e-03 DIIS
   @RHF iter   3:  -571.87340233076770   -7.20190e-02   3.45331e-04 DIIS
   @RHF iter   4:  -571.87721615556893   -3.81382e-03   1.27053e-04 DIIS
   @RHF iter   5:  -571.87774672054093   -5.30565e-04   2.10016e-05 DIIS
   @RHF iter   6:  -571.87776725211461   -2.05316e-05   9.03219e-06 DIIS
   @RHF iter   7:  -571.87777055216043   -3.30005e-06   3.29403e-06 DIIS
   @RHF iter   8:  -571.87777123065121   -6.78491e-07   1.19549e-06 DIIS
   @RHF iter   9:  -571.87777137777437   -1.47123e-07   5.67714e-07 DIIS
   @RHF iter  10:  -571.87777141522861   -3.74542e-08   2.56739e-07 DIIS
   @RHF iter  11:  -571.87777142395794   -8.72933e-09   1.06826e-07 DIIS
   @RHF iter  12:  -571.87777142505001   -1.09208e-09   4.09239e-08 DIIS
   @RHF iter  13:  -571.87777142518439   -1.34378e-10   1.17929e-08 DIIS
   @RHF iter  14:  -571.87777142519712   -1.27329e-11   4.42086e-09 DIIS
   @RHF iter  15:  -571.87777142520065   -3.52429e-12   1.41007e-09 DIIS
   @RHF iter  16:  -571.87777142520486   -4.20641e-12   6.71672e-10 DIIS
   @RHF iter  17:  -571.87777142519815    6.70752e-12   2.73131e-10 DIIS
   @RHF iter  18:  -571.87777142520008   -1.93268e-12   1.09553e-10 DIIS
   @RHF iter  19:  -571.87777142519690    3.18323e-12   4.39238e-11 DIIS
  Energy and wave function converged.

  ==> Post-Iterations <==

    Orbital Energies [Eh]
    ---------------------

    Doubly Occupied:

       1A    -20.450102     2A    -20.274233     3A    -20.263486
       4A    -11.194309     5A    -11.150908     6A    -11.146388
       7A    -11.144908     8A    -11.140301     9A    -11.131311
      10A    -11.130114    11A    -11.124894    12A    -11.059976
      13A     -1.269707    14A     -1.159885    15A     -1.056484
      16A     -1.045334    17A     -0.945566    18A     -0.922419
      19A     -0.836890    20A     -0.806783    21A     -0.745627
      22A     -0.703104    23A     -0.621816    24A     -0.567220
      25A     -0.544393    26A     -0.510876    27A     -0.509863
      28A     -0.499676    29A     -0.492106    30A     -0.468602
      31A     -0.459292    32A     -0.430009    33A     -0.421548
      34A     -0.416780    35A     -0.413049    36A     -0.404682
      37A     -0.384158    38A     -0.366463    39A     -0.351201
      40A     -0.313619    41A     -0.244650    42A     -0.199995
      43A     -0.193486    44A     -0.180303    45A     -0.170161

    Virtual:

      46A      0.224631    47A      0.251967    48A      0.262845
      49A      0.296547    50A      0.298881    51A      0.330703
      52A      0.337676    53A      0.349227    54A      0.369287
      55A      0.380781    56A      0.389938    57A      0.404171
      58A      0.429916    59A      0.452369    60A      0.467163
      61A      0.480838    62A      0.538743    63A      0.555549
      64A      0.564331    65A      0.589618    66A      0.590263
      67A      0.603575    68A      0.688930    69A      0.701373
      70A      0.714159    71A      0.726225    72A      0.750696
      73A      0.759439    74A      0.782940    75A      0.791869
      76A      0.800038    77A      0.816030    78A      0.826558
      79A      0.833376    80A      0.845092    81A      0.861244
      82A      0.865804    83A      0.877171    84A      0.894259
      85A      0.905973    86A      0.934870    87A      0.937627
      88A      0.956057    89A      0.958871    90A      0.965339
      91A      0.977226    92A      0.979239    93A      0.992328
      94A      1.003966    95A      1.013110    96A      1.022371
      97A      1.030307    98A      1.038959    99A      1.047514
     100A      1.048227   101A      1.072137   102A      1.092650
     103A      1.115846   104A      1.135893   105A      1.146859
     106A      1.170242   107A      1.221300   108A      1.223315
     109A      1.242032   110A      1.250373   111A      1.264212
     112A      1.300236   113A      1.318025   114A      1.327750
     115A      1.338116   116A      1.342925   117A      1.377024
     118A      1.381788   119A      1.385079   120A      1.407730
     121A      1.418541   122A      1.446996   123A      1.465200
     124A      1.490671   125A      1.503329   126A      1.550292
     127A      1.555506   128A      1.583124   129A      1.593090
     130A      1.600637   131A      1.611411   132A      1.630107
     133A      1.643000   134A      1.673120   135A      1.705932
     136A      1.715692   137A      1.739389   138A      1.765579
     139A      1.777638   140A      1.814467   141A      1.825399
     142A      1.838426   143A      1.846441   144A      1.864991
     145A      1.876750   146A      1.902766   147A      1.905732
     148A      1.961151   149A      1.977728   150A      1.996330
     151A      2.006026   152A      2.009845   153A      2.031699
     154A      2.037492   155A      2.045359   156A      2.051839
     157A      2.056530   158A      2.086258   159A      2.087381
     160A      2.115917   161A      2.127479   162A      2.130183
     163A      2.145122   164A      2.157319   165A      2.165257
     166A      2.174905   167A      2.212550   168A      2.220545
     169A      2.258882   170A      2.270851   171A      2.285455
     172A      2.299727   173A      2.305831   174A      2.328215
     175A      2.347064   176A      2.368899   177A      2.390363
     178A      2.417484   179A      2.428891   180A      2.479728
     181A      2.497181   182A      2.503048   183A      2.560583
     184A      2.584498   185A      2.601886   186A      2.620911
     187A      2.626226   188A      2.642078   189A      2.671817
     190A      2.697089   191A      2.733550   192A      2.760279
     193A      2.781143   194A      2.838967   195A      2.852789
     196A      2.890121   197A      2.902804   198A      2.912669
     199A      2.925188   200A      2.961577   201A      2.989651
     202A      2.993921   203A      3.066664   204A      3.100191
     205A      3.190933   206A      3.206687   207A      3.231910
     208A      3.268941   209A      3.286030   210A      3.357447
     211A      3.379936   212A      3.381652   213A      3.500816
     214A      3.630150   215A      3.699493   216A      3.779489
     217A      3.798792   218A      3.822523   219A      4.059063
     220A      4.072669   221A      4.100424   222A      4.186441
     223A      4.357087

    Final Occupation by Irrep:
              A
    DOCC [    45 ]

  @RHF Final Energy:  -571.87777142519690

   => Energetics <=

    Nuclear Repulsion Energy =            639.9273026872249375
    One-Electron Energy =               -2063.8767949258581211
    Two-Electron Energy =                 852.0717208134362863
    Total Energy =                       -571.8777714251968973

Computation Completed

Properties will be evaluated at   0.000000,   0.000000,   0.000000 [a0]

Properties computed using the SCF density matrix

  Nuclear Dipole Moment: [e a0]
     X:     3.6710      Y:   -13.3899      Z:    -0.2249

  Electronic Dipole Moment: [e a0]
     X:    -3.0862      Y:     7.6663      Z:     2.1551

  Dipole Moment: [e a0]
     X:     0.5848      Y:    -5.7236      Z:     1.9302     Total:     6.0685

  Dipole Moment: [D]
     X:     1.4865      Y:   -14.5479      Z:     4.9060     Total:    15.4247

*** tstop() called on ds3 at Mon Apr 27 12:38:19 2020
Module time:
	user time   =     109.11 seconds =       1.82 minutes
	system time =      53.36 seconds =       0.89 minutes
	total time  =        284 seconds =       4.73 minutes
Total time:
	user time   =     109.11 seconds =       1.82 minutes
	system time =      53.36 seconds =       0.89 minutes
	total time  =        284 seconds =       4.73 minutes
                                     G D M A

                                 by Anthony Stone

                           version 2.2.06, 22 June 2011

               Distributed Multipoles from Gaussian wavefunctions

Starting at 12:38:19 on 27 Apr 2020

Using SCF density matrix from file ./SSI/SSI-055ASP-105TYR-1-dimer.test.3460.fchk

                         Distributed Multipole Analysis

Standard DMA

Positions and radii in angstrom
Multipole moments in atomic units, ea_0^k for rank k

C          x =  1.135053  y =  1.962122  z = -2.547560 angstrom
           Maximum rank =  0   Radius =  0.650 angstrom
                   Q00  =  -0.284205

C          x =  0.351053  y =  2.970122  z = -1.723560 angstrom
           Maximum rank =  0   Radius =  0.650 angstrom
                   Q00  =   0.952743

O          x =  0.919053  y =  3.535122  z = -0.763560 angstrom
           Maximum rank =  0   Radius =  0.650 angstrom
                   Q00  =  -0.937580

O          x = -0.840947  y =  3.188122  z = -2.032560 angstrom
           Maximum rank =  0   Radius =  0.650 angstrom
                   Q00  =  -0.911821

H          x =  1.147053  y =  2.274122  z = -3.594560 angstrom
           Maximum rank =  0   Radius =  0.325 angstrom
                   Q00  =   0.079833

H          x =  0.630053  y =  0.996122  z = -2.484560 angstrom
           Maximum rank =  0   Radius =  0.325 angstrom
                   Q00  =   0.072107

H          x =  2.167502  y =  1.841882  z = -2.187570 angstrom
           Maximum rank =  0   Radius =  0.325 angstrom
                   Q00  =   0.042242

C          x =  0.166053  y = -4.484878  z =  1.210440 angstrom
           Maximum rank =  0   Radius =  0.650 angstrom
                   Q00  =  -0.189529

C          x = -0.400947  y = -0.238878  z =  0.852440 angstrom
           Maximum rank =  0   Radius =  0.650 angstrom
                   Q00  =   0.358817

C          x =  0.778053  y = -0.822878  z =  0.404440 angstrom
           Maximum rank =  0   Radius =  0.650 angstrom
                   Q00  =  -0.170835

C          x = -1.397947  y = -1.025878  z =  1.418440 angstrom
           Maximum rank =  0   Radius =  0.650 angstrom
                   Q00  =  -0.127899

C          x =  0.956053  y = -2.196878  z =  0.523440 angstrom
           Maximum rank =  0   Radius =  0.650 angstrom
                   Q00  =   0.024706

C          x = -1.211947  y = -2.399878  z =  1.532440 angstrom
           Maximum rank =  0   Radius =  0.650 angstrom
                   Q00  =  -0.016868

C          x = -0.032947  y = -2.995878  z =  1.091440 angstrom
           Maximum rank =  0   Radius =  0.650 angstrom
                   Q00  =  -0.149650

O          x = -0.581947  y =  1.106122  z =  0.738440 angstrom
           Maximum rank =  0   Radius =  0.650 angstrom
                   Q00  =  -0.691081

H          x =  0.184053  y =  1.566122  z =  0.382440 angstrom
           Maximum rank =  0   Radius =  0.325 angstrom
                   Q00  =   0.438692

H          x =  1.557053  y = -0.218878  z = -0.032560 angstrom
           Maximum rank =  0   Radius =  0.325 angstrom
                   Q00  =   0.089153

H          x = -2.308947  y = -0.562878  z =  1.768440 angstrom
           Maximum rank =  0   Radius =  0.325 angstrom
                   Q00  =   0.071282

H          x =  1.875053  y = -2.646878  z =  0.170440 angstrom
           Maximum rank =  0   Radius =  0.325 angstrom
                   Q00  =   0.049127

H          x = -1.991947  y = -3.009878  z =  1.969440 angstrom
           Maximum rank =  0   Radius =  0.325 angstrom
                   Q00  =   0.043550

H          x = -0.545947  y = -4.896878  z =  1.923440 angstrom
           Maximum rank =  0   Radius =  0.325 angstrom
                   Q00  =   0.084668

H          x =  1.161053  y = -4.656878  z =  1.604440 angstrom
           Maximum rank =  0   Radius =  0.325 angstrom
                   Q00  =   0.085664

H          x =  0.043449  y = -5.009188  z =  0.251240 angstrom
           Maximum rank =  0   Radius =  0.325 angstrom
                   Q00  =   0.086885

Total multipoles referred to origin at
           x =   0.000000,  y =    0.000000,  z =    0.000000 angstrom
                   Q00  =  -1.000000

Finished at 12:38:19 on 27 Apr 2020

  DMA results are available in the Python driver through the
	  variable('DMA DISTRIBUTED MULTIPOLES')
  and
	  variable('DMA TOTAL MULTIPOLES')
  commands.

    Psi4 stopped on: Monday, 27 April 2020 12:38PM
    Psi4 wall time for execution: 0:04:43.85

*** Psi4 exiting successfully. Buy a developer a beer!
