                               Psi4 1.3.2 release

  ==> Input File <==

--------------------------------------------------------------------------
import numpy as np
set {scf_type pk
basis cc-pvdz
d_convergence 10
gdma_switch   0
gdma_limit    0
gdma_origin   [ 0.0,  0.0,  0.0 ]
}
molecule test {
    units Angstrom
    0 1
    --
    0 1
    C               -1.642892155934853     2.575557943513823    -0.685035050729834
    C               -3.123892155934853     2.931557943513823    -0.824035050729834
    H               -1.529892155934853     1.493557943513823    -0.683035050729834
    H               -1.084892155934853     2.972557943513823    -1.529035050729834
    H               -1.211892155934853     2.975557943513823     0.224964949270166
    H               -3.220892155934853     4.017557943513824    -0.815035050729834
    H               -3.689532155934853     2.497657943513823     0.013684949270166
    H               -3.529662155934853     2.573817943513823    -1.781835050729834
    C                2.672107844065147    -1.954442056486177    -1.530035050729834
    C               -0.276892155934853    -0.219442056486177     1.030964949270166
    C                0.992107844065147     0.332557943513823     0.972964949270166
    C               -0.594892155934853    -1.311442056486177     0.237964949270166
    C                1.932107844065147    -0.211442056486177     0.117964949270166
    C                0.366107844065147    -1.879442056486177    -0.575035050729834
    C                1.627107844065147    -1.319442056486177    -0.664035050729834
    O               -1.231892155934853     0.277557943513823     1.860964949270166
    H                1.244107844065147     1.177557943513823     1.594964949270166
    H               -0.909892155934853     1.032557943513823     2.378964949270166
    H               -1.582892155934853    -1.737442056486177     0.296964949270166
    H                2.922107844065148     0.222557943513823     0.068964949270166
    H                0.132107844065147    -2.757442056486177    -1.160035050729834
    H                3.319107844065147    -1.170442056486177    -1.914035050729834
    H                2.180107844065148    -2.425442056486177    -2.383035050729834
    H                3.283157844065147    -2.704304056486177    -1.006275050729834

}
e, wfn = energy('scf', return_wfn=True)
gdma(wfn)
dmavals = variable('DMA DISTRIBUTED MULTIPOLES')
charges = np.array(dmavals)
print(charges)
np.save('SSI-003VAL-009TYR-1-dimer.npy', np.array(charges))--------------------------------------------------------------------------

*** tstart() called on ds3
*** at Mon Apr 27 13:21:04 2020

   => Loading Basis Set <=

    Name: CC-PVDZ
    Role: ORBITAL
    Keyword: BASIS
    atoms 1-2, 9-15  entry C          line   138 file /theoryfs2/ds/metcalf/miniconda2/envs/tf2gpu/share/psi4/basis/cc-pvdz.gbs
    atoms 3-8, 17-24 entry H          line    22 file /theoryfs2/ds/metcalf/miniconda2/envs/tf2gpu/share/psi4/basis/cc-pvdz.gbs
    atoms 16         entry O          line   198 file /theoryfs2/ds/metcalf/miniconda2/envs/tf2gpu/share/psi4/basis/cc-pvdz.gbs

         ---------------------------------------------------------
                                   SCF
               by Justin Turney, Rob Parrish, Andy Simmonett
                          and Daniel G. A. Smith
                              RHF Reference
                        1 Threads,    500 MiB Core
         ---------------------------------------------------------

  ==> Geometry <==

    Molecular point group: c1
    Full point group: C1

    Geometry (in Angstrom), charge = 0, multiplicity = 1:

       Center              X                  Y                   Z               Mass
    ------------   -----------------  -----------------  -----------------  -----------------
         C           -1.642892155935     2.575557943514    -0.685035050730    12.000000000000
         C           -3.123892155935     2.931557943514    -0.824035050730    12.000000000000
         H           -1.529892155935     1.493557943514    -0.683035050730     1.007825032230
         H           -1.084892155935     2.972557943514    -1.529035050730     1.007825032230
         H           -1.211892155935     2.975557943514     0.224964949270     1.007825032230
         H           -3.220892155935     4.017557943514    -0.815035050730     1.007825032230
         H           -3.689532155935     2.497657943514     0.013684949270     1.007825032230
         H           -3.529662155935     2.573817943514    -1.781835050730     1.007825032230
         C            2.672107844065    -1.954442056486    -1.530035050730    12.000000000000
         C           -0.276892155935    -0.219442056486     1.030964949270    12.000000000000
         C            0.992107844065     0.332557943514     0.972964949270    12.000000000000
         C           -0.594892155935    -1.311442056486     0.237964949270    12.000000000000
         C            1.932107844065    -0.211442056486     0.117964949270    12.000000000000
         C            0.366107844065    -1.879442056486    -0.575035050730    12.000000000000
         C            1.627107844065    -1.319442056486    -0.664035050730    12.000000000000
         O           -1.231892155935     0.277557943514     1.860964949270    15.994914619570
         H            1.244107844065     1.177557943514     1.594964949270     1.007825032230
         H           -0.909892155935     1.032557943514     2.378964949270     1.007825032230
         H           -1.582892155935    -1.737442056486     0.296964949270     1.007825032230
         H            2.922107844065     0.222557943514     0.068964949270     1.007825032230
         H            0.132107844065    -2.757442056486    -1.160035050730     1.007825032230
         H            3.319107844065    -1.170442056486    -1.914035050730     1.007825032230
         H            2.180107844065    -2.425442056486    -2.383035050730     1.007825032230
         H            3.283157844065    -2.704304056486    -1.006275050730     1.007825032230

  Running in c1 symmetry.

  Rotational constants: A =      0.06507  B =      0.02039  C =      0.01892 [cm^-1]
  Rotational constants: A =   1950.75303  B =    611.17072  C =    567.29344 [MHz]
  Nuclear repulsion =  500.706768617834769

  Charge       = 0
  Multiplicity = 1
  Electrons    = 76
  Nalpha       = 38
  Nbeta        = 38

  ==> Algorithm <==

  SCF Algorithm Type is PK.
  DIIS enabled.
  MOM disabled.
  Fractional occupation disabled.
  Guess Type is SAD.
  Energy threshold   = 1.00e-06
  Density threshold  = 1.00e-10
  Integral threshold = 0.00e+00

  ==> Primary Basis <==

  Basis Set: CC-PVDZ
    Blend: CC-PVDZ
    Number of shells: 102
    Number of basis function: 210
    Number of Cartesian functions: 220
    Spherical Harmonics?: true
    Max angular momentum: 2

  ==> Pre-Iterations <==

   -------------------------------------------------------
    Irrep   Nso     Nmo     Nalpha   Nbeta   Ndocc  Nsocc
   -------------------------------------------------------
     A        210     210       0       0       0       0
   -------------------------------------------------------
    Total     210     210      38      38      38       0
   -------------------------------------------------------

  ==> Integral Setup <==

  Using integral reordering PK algorithm.
  Sizing the integral batches needed.
  Building batch lookup table.
   Calculation information:
      Number of atoms:                  24
      Number of AO shells:             102
      Number of primitives:            290
      Number of atomic orbitals:       220
      Number of basis functions:       210

      Integral cutoff                 1.00e-12
      Number of threads:                 1

	Batch   1 pq = [       0,    9405] index = [             0,44231715] size =     44231715
	Batch   2 pq = [    9405,   13301] index = [      44231715,88464951] size =     44233236
	Batch   3 pq = [   13301,   16290] index = [      88464951,132690195] size =     44225244
	Batch   4 pq = [   16290,   18810] index = [     132690195,176917455] size =     44227260
	Batch   5 pq = [   18810,   21030] index = [     176917455,221140965] size =     44223510
	Batch   6 pq = [   21030,   22155] index = [     221140965,245433090] size =     24292125
  Task number: 23
  Buffer size: 11059200
  Buffer per thread: 2
  We computed 11831911 shell quartets total.
  Whereas there are 13799631 unique shell quartets.

  ==> DiskJK: Disk-Based J/K Matrices <==

    J tasked:                  Yes
    K tasked:                  Yes
    wK tasked:                  No
    Memory [MiB]:              375
    Schwarz Cutoff:          1E-12

    OpenMP threads:              1

  Minimum eigenvalue in the overlap matrix is 3.0832402127E-04.
  Using Symmetric Orthogonalization.

  SCF Guess: Superposition of Atomic Densities via on-the-fly atomic UHF.

  ==> Iterations <==

                        Total Energy        Delta E     RMS |[F,P]|

   @RHF iter SAD:  -422.80343404554208   -4.22803e+02   0.00000e+00
   @RHF iter   1:  -423.59694016652486   -7.93506e-01   3.00914e-03 DIIS
   @RHF iter   2:  -423.81703842076013   -2.20098e-01   1.27703e-03 DIIS
   @RHF iter   3:  -423.85306372312084   -3.60253e-02   2.86108e-04 DIIS
   @RHF iter   4:  -423.85595025662565   -2.88653e-03   1.19614e-04 DIIS
   @RHF iter   5:  -423.85631766190022   -3.67405e-04   2.06704e-05 DIIS
   @RHF iter   6:  -423.85633514808819   -1.74862e-05   6.43346e-06 DIIS
   @RHF iter   7:  -423.85633677610281   -1.62801e-06   2.06524e-06 DIIS
   @RHF iter   8:  -423.85633699447516   -2.18372e-07   7.66109e-07 DIIS
   @RHF iter   9:  -423.85633702913157   -3.46564e-08   3.04182e-07 DIIS
   @RHF iter  10:  -423.85633703555038   -6.41882e-09   1.22937e-07 DIIS
   @RHF iter  11:  -423.85633703737881   -1.82843e-09   5.69341e-08 DIIS
   @RHF iter  12:  -423.85633703776222   -3.83409e-10   2.70550e-08 DIIS
   @RHF iter  13:  -423.85633703783367   -7.14522e-11   7.95835e-09 DIIS
   @RHF iter  14:  -423.85633703783913   -5.45697e-12   2.18045e-09 DIIS
   @RHF iter  15:  -423.85633703784072   -1.59162e-12   6.89840e-10 DIIS
   @RHF iter  16:  -423.85633703784072    0.00000e+00   2.65154e-10 DIIS
   @RHF iter  17:  -423.85633703783958    1.13687e-12   1.23705e-10 DIIS
   @RHF iter  18:  -423.85633703783986   -2.84217e-13   6.32606e-11 DIIS
  Energy and wave function converged.

  ==> Post-Iterations <==

    Orbital Energies [Eh]
    ---------------------

    Doubly Occupied:

       1A    -20.584470     2A    -11.296367     3A    -11.236529
       4A    -11.234068     5A    -11.231001     6A    -11.228821
       7A    -11.226220     8A    -11.225760     9A    -11.213412
      10A    -11.207393    11A     -1.399978    12A     -1.155728
      13A     -1.039709    14A     -1.021226    15A     -1.011228
      16A     -0.926371    17A     -0.845913    18A     -0.831464
      19A     -0.802838    20A     -0.732809    21A     -0.669840
      22A     -0.640709    23A     -0.607049    24A     -0.598723
      25A     -0.590425    26A     -0.588318    27A     -0.582439
      28A     -0.571194    29A     -0.566987    30A     -0.526143
      31A     -0.498642    32A     -0.495429    33A     -0.484589
      34A     -0.480010    35A     -0.476993    36A     -0.468081
      37A     -0.340998    38A     -0.301103

    Virtual:

      39A      0.131110    40A      0.156858    41A      0.166778
      42A      0.187642    43A      0.201516    44A      0.217063
      45A      0.222599    46A      0.248857    47A      0.257093
      48A      0.261100    49A      0.267663    50A      0.278323
      51A      0.283516    52A      0.288989    53A      0.294742
      54A      0.310562    55A      0.372332    56A      0.379553
      57A      0.399974    58A      0.437421    59A      0.458137
      60A      0.481836    61A      0.503941    62A      0.509164
      63A      0.586167    64A      0.595987    65A      0.604721
      66A      0.613378    67A      0.637785    68A      0.651120
      69A      0.662791    70A      0.673408    71A      0.681863
      72A      0.690637    73A      0.703683    74A      0.730746
      75A      0.736812    76A      0.742694    77A      0.750851
      78A      0.773176    79A      0.779325    80A      0.796752
      81A      0.823977    82A      0.837568    83A      0.849405
      84A      0.866585    85A      0.875730    86A      0.889095
      87A      0.893375    88A      0.894306    89A      0.898248
      90A      0.901812    91A      0.904851    92A      0.921310
      93A      0.928083    94A      0.931716    95A      0.940019
      96A      0.943519    97A      0.955523    98A      0.970065
      99A      1.004383   100A      1.022596   101A      1.051314
     102A      1.062627   103A      1.123643   104A      1.134560
     105A      1.145080   106A      1.152165   107A      1.169862
     108A      1.180953   109A      1.214177   110A      1.239736
     111A      1.248398   112A      1.268199   113A      1.270191
     114A      1.295883   115A      1.300048   116A      1.312773
     117A      1.325525   118A      1.361126   119A      1.370578
     120A      1.387744   121A      1.478274   122A      1.480438
     123A      1.483377   124A      1.517103   125A      1.536635
     126A      1.561265   127A      1.582552   128A      1.620079
     129A      1.640477   130A      1.678334   131A      1.687780
     132A      1.704649   133A      1.717099   134A      1.735397
     135A      1.754420   136A      1.786471   137A      1.811759
     138A      1.817138   139A      1.873870   140A      1.880040
     141A      1.890767   142A      1.891488   143A      1.896683
     144A      1.908154   145A      1.915134   146A      1.922077
     147A      1.938801   148A      1.940719   149A      1.950590
     150A      1.959493   151A      1.961283   152A      1.969164
     153A      1.980352   154A      1.983348   155A      1.990878
     156A      2.025404   157A      2.044796   158A      2.055416
     159A      2.068105   160A      2.072469   161A      2.083945
     162A      2.099208   163A      2.130222   164A      2.154059
     165A      2.159976   166A      2.167463   167A      2.204137
     168A      2.234406   169A      2.266665   170A      2.287265
     171A      2.293519   172A      2.309348   173A      2.316282
     174A      2.339484   175A      2.388719   176A      2.436445
     177A      2.451287   178A      2.463839   179A      2.477183
     180A      2.487177   181A      2.498247   182A      2.549023
     183A      2.551921   184A      2.587735   185A      2.607981
     186A      2.622567   187A      2.651089   188A      2.764768
     189A      2.769170   190A      2.777093   191A      2.803932
     192A      2.813724   193A      2.817599   194A      2.846324
     195A      2.865529   196A      2.872343   197A      2.914375
     198A      2.961624   199A      2.975633   200A      3.002655
     201A      3.025590   202A      3.109752   203A      3.120193
     204A      3.250941   205A      3.302939   206A      3.350378
     207A      3.589845   208A      3.694173   209A      3.987001
     210A      4.199135

    Final Occupation by Irrep:
              A
    DOCC [    38 ]

  @RHF Final Energy:  -423.85633703783986

   => Energetics <=

    Nuclear Repulsion Energy =            500.7067686178347685
    One-Electron Energy =               -1567.2482540863222766
    Two-Electron Energy =                 642.6851484306475868
    Total Energy =                       -423.8563370378399213

Computation Completed

Properties will be evaluated at   0.000000,   0.000000,   0.000000 [a0]

Properties computed using the SCF density matrix

  Nuclear Dipole Moment: [e a0]
     X:    -3.4547      Y:     7.6589      Z:    -6.2663

  Electronic Dipole Moment: [e a0]
     X:     3.9619      Y:    -7.4322      Z:     6.3645

  Dipole Moment: [e a0]
     X:     0.5072      Y:     0.2266      Z:     0.0982     Total:     0.5641

  Dipole Moment: [D]
     X:     1.2891      Y:     0.5761      Z:     0.2496     Total:     1.4339

*** tstop() called on ds3 at Mon Apr 27 13:23:32 2020
Module time:
	user time   =     106.80 seconds =       1.78 minutes
	system time =      47.88 seconds =       0.80 minutes
	total time  =        148 seconds =       2.47 minutes
Total time:
	user time   =     106.80 seconds =       1.78 minutes
	system time =      47.88 seconds =       0.80 minutes
	total time  =        148 seconds =       2.47 minutes
                                     G D M A

                                 by Anthony Stone

                           version 2.2.06, 22 June 2011

               Distributed Multipoles from Gaussian wavefunctions

Starting at 13:23:32 on 27 Apr 2020

Using SCF density matrix from file ./SSI/SSI-003VAL-009TYR-1-dimer.test.6301.fchk

                         Distributed Multipole Analysis

Standard DMA

Positions and radii in angstrom
Multipole moments in atomic units, ea_0^k for rank k

C          x = -1.642892  y =  2.575558  z = -0.685035 angstrom
           Maximum rank =  0   Radius =  0.650 angstrom
                   Q00  =  -0.246128

C          x = -3.123892  y =  2.931558  z = -0.824035 angstrom
           Maximum rank =  0   Radius =  0.650 angstrom
                   Q00  =  -0.222520

H          x = -1.529892  y =  1.493558  z = -0.683035 angstrom
           Maximum rank =  0   Radius =  0.325 angstrom
                   Q00  =   0.091302

H          x = -1.084892  y =  2.972558  z = -1.529035 angstrom
           Maximum rank =  0   Radius =  0.325 angstrom
                   Q00  =   0.073133

H          x = -1.211892  y =  2.975558  z =  0.224965 angstrom
           Maximum rank =  0   Radius =  0.325 angstrom
                   Q00  =   0.065990

H          x = -3.220892  y =  4.017558  z = -0.815035 angstrom
           Maximum rank =  0   Radius =  0.325 angstrom
                   Q00  =   0.072308

H          x = -3.689532  y =  2.497658  z =  0.013685 angstrom
           Maximum rank =  0   Radius =  0.325 angstrom
                   Q00  =   0.079495

H          x = -3.529662  y =  2.573818  z = -1.781835 angstrom
           Maximum rank =  0   Radius =  0.325 angstrom
                   Q00  =   0.080000

C          x =  2.672108  y = -1.954442  z = -1.530035 angstrom
           Maximum rank =  0   Radius =  0.650 angstrom
                   Q00  =  -0.190028

C          x = -0.276892  y = -0.219442  z =  1.030965 angstrom
           Maximum rank =  0   Radius =  0.650 angstrom
                   Q00  =   0.323324

C          x =  0.992108  y =  0.332558  z =  0.972965 angstrom
           Maximum rank =  0   Radius =  0.650 angstrom
                   Q00  =  -0.193539

C          x = -0.594892  y = -1.311442  z =  0.237965 angstrom
           Maximum rank =  0   Radius =  0.650 angstrom
                   Q00  =  -0.094972

C          x =  1.932108  y = -0.211442  z =  0.117965 angstrom
           Maximum rank =  0   Radius =  0.650 angstrom
                   Q00  =   0.047864

C          x =  0.366108  y = -1.879442  z = -0.575035 angstrom
           Maximum rank =  0   Radius =  0.650 angstrom
                   Q00  =  -0.050151

C          x =  1.627108  y = -1.319442  z = -0.664035 angstrom
           Maximum rank =  0   Radius =  0.650 angstrom
                   Q00  =  -0.138990

O          x = -1.231892  y =  0.277558  z =  1.860965 angstrom
           Maximum rank =  0   Radius =  0.650 angstrom
                   Q00  =  -0.670833

H          x =  1.244108  y =  1.177558  z =  1.594965 angstrom
           Maximum rank =  0   Radius =  0.325 angstrom
                   Q00  =   0.071546

H          x = -0.909892  y =  1.032558  z =  2.378965 angstrom
           Maximum rank =  0   Radius =  0.325 angstrom
                   Q00  =   0.409556

H          x = -1.582892  y = -1.737442  z =  0.296965 angstrom
           Maximum rank =  0   Radius =  0.325 angstrom
                   Q00  =   0.078363

H          x =  2.922108  y =  0.222558  z =  0.068965 angstrom
           Maximum rank =  0   Radius =  0.325 angstrom
                   Q00  =   0.065770

H          x =  0.132108  y = -2.757442  z = -1.160035 angstrom
           Maximum rank =  0   Radius =  0.325 angstrom
                   Q00  =   0.060551

H          x =  3.319108  y = -1.170442  z = -1.914035 angstrom
           Maximum rank =  0   Radius =  0.325 angstrom
                   Q00  =   0.095012

H          x =  2.180108  y = -2.425442  z = -2.383035 angstrom
           Maximum rank =  0   Radius =  0.325 angstrom
                   Q00  =   0.093736

H          x =  3.283158  y = -2.704304  z = -1.006275 angstrom
           Maximum rank =  0   Radius =  0.325 angstrom
                   Q00  =   0.099211

Total multipoles referred to origin at
           x =   0.000000,  y =    0.000000,  z =    0.000000 angstrom
                   Q00  =  -0.000000

Finished at 13:23:32 on 27 Apr 2020

  DMA results are available in the Python driver through the
	  variable('DMA DISTRIBUTED MULTIPOLES')
  and
	  variable('DMA TOTAL MULTIPOLES')
  commands.

    Psi4 stopped on: Monday, 27 April 2020 01:23PM
    Psi4 wall time for execution: 0:02:28.78

*** Psi4 exiting successfully. Buy a developer a beer!
