                               Psi4 1.3.2 release

  ==> Input File <==

--------------------------------------------------------------------------
import numpy as np
set {scf_type pk
basis cc-pvdz
d_convergence 10
gdma_switch   0
gdma_limit    0
gdma_origin   [ 0.0,  0.0,  0.0 ]
}
molecule test {
    units Angstrom
    -1 1
    --
    -1 1
    C               -1.313094667269157     2.642596172682096     1.486107156462183
    C                0.604905332730843     0.969596172682097     0.778107156462183
    C                0.120905332730843     2.245596172682096     1.244107156462183
    C                2.022905332730843     1.068596172682097     0.705107156462183
    C                1.212905332730843     3.042596172682097     1.417107156462184
    C               -0.010094667269157    -0.237403827317903     0.401107156462183
    C                0.797905332730843    -1.289403827317904    -0.040892843537817
    C                2.206905332730843    -1.155403827317904    -0.086892843537817
    C                2.833905332730843     0.021596172682096     0.284107156462183
    N                2.350905332730843     2.338596172682097     1.102107156462183
    H               -1.081094667269156    -0.345403827317904     0.460107156462183
    H                0.346905332730843    -2.227403827317903    -0.330892843537817
    H                2.804905332730843    -1.994403827317903    -0.417892843537817
    H               -1.349094667269157     3.595596172682097     2.013107156462183
    H               -1.778094667269157     1.883596172682096     2.116107156462183
    H                1.180905332730843     4.076596172682097     1.749107156462183
    H                3.286905332730843     2.725596172682097     1.143107156462184
    H                3.909905332730843     0.123596172682096     0.253107156462183
    H               -1.862884667269157     2.713746172682097     0.536017156462183
    C               -2.820094667269156    -1.456403827317903    -2.793892843537817
    C               -2.359094667269157    -2.270403827317903    -1.577892843537817
    O               -2.778094667269157    -1.950403827317903    -0.449892843537817
    O               -1.549094667269157    -3.213403827317903    -1.762892843537817
    H               -2.828094667269156    -2.092403827317904    -3.678892843537816
    H               -2.083094667269156    -0.669403827317903    -2.966892843537816
    H               -3.804064667269157    -0.974603827317903    -2.695565843537817

}
e, wfn = energy('scf', return_wfn=True)
gdma(wfn)
dmavals = variable('DMA DISTRIBUTED MULTIPOLES')
charges = np.array(dmavals)
print(charges)
np.save('SSI-050TRP-054GLU-1-dimer.npy', np.array(charges))--------------------------------------------------------------------------

*** tstart() called on ds3
*** at Mon Apr 27 02:03:44 2020

   => Loading Basis Set <=

    Name: CC-PVDZ
    Role: ORBITAL
    Keyword: BASIS
    atoms 1-9, 20-21   entry C          line   138 file /theoryfs2/ds/metcalf/miniconda2/envs/tf2gpu/share/psi4/basis/cc-pvdz.gbs
    atoms 10           entry N          line   168 file /theoryfs2/ds/metcalf/miniconda2/envs/tf2gpu/share/psi4/basis/cc-pvdz.gbs
    atoms 11-19, 24-26 entry H          line    22 file /theoryfs2/ds/metcalf/miniconda2/envs/tf2gpu/share/psi4/basis/cc-pvdz.gbs
    atoms 22-23        entry O          line   198 file /theoryfs2/ds/metcalf/miniconda2/envs/tf2gpu/share/psi4/basis/cc-pvdz.gbs

         ---------------------------------------------------------
                                   SCF
               by Justin Turney, Rob Parrish, Andy Simmonett
                          and Daniel G. A. Smith
                              RHF Reference
                        1 Threads,    500 MiB Core
         ---------------------------------------------------------

  ==> Geometry <==

    Molecular point group: c1
    Full point group: C1

    Geometry (in Angstrom), charge = -1, multiplicity = 1:

       Center              X                  Y                   Z               Mass
    ------------   -----------------  -----------------  -----------------  -----------------
         C           -1.313094667269     2.642596172682     1.486107156462    12.000000000000
         C            0.604905332731     0.969596172682     0.778107156462    12.000000000000
         C            0.120905332731     2.245596172682     1.244107156462    12.000000000000
         C            2.022905332731     1.068596172682     0.705107156462    12.000000000000
         C            1.212905332731     3.042596172682     1.417107156462    12.000000000000
         C           -0.010094667269    -0.237403827318     0.401107156462    12.000000000000
         C            0.797905332731    -1.289403827318    -0.040892843538    12.000000000000
         C            2.206905332731    -1.155403827318    -0.086892843538    12.000000000000
         C            2.833905332731     0.021596172682     0.284107156462    12.000000000000
         N            2.350905332731     2.338596172682     1.102107156462    14.003074004430
         H           -1.081094667269    -0.345403827318     0.460107156462     1.007825032230
         H            0.346905332731    -2.227403827318    -0.330892843538     1.007825032230
         H            2.804905332731    -1.994403827318    -0.417892843538     1.007825032230
         H           -1.349094667269     3.595596172682     2.013107156462     1.007825032230
         H           -1.778094667269     1.883596172682     2.116107156462     1.007825032230
         H            1.180905332731     4.076596172682     1.749107156462     1.007825032230
         H            3.286905332731     2.725596172682     1.143107156462     1.007825032230
         H            3.909905332731     0.123596172682     0.253107156462     1.007825032230
         H           -1.862884667269     2.713746172682     0.536017156462     1.007825032230
         C           -2.820094667269    -1.456403827318    -2.793892843538    12.000000000000
         C           -2.359094667269    -2.270403827318    -1.577892843538    12.000000000000
         O           -2.778094667269    -1.950403827318    -0.449892843538    15.994914619570
         O           -1.549094667269    -3.213403827318    -1.762892843538    15.994914619570
         H           -2.828094667269    -2.092403827318    -3.678892843538     1.007825032230
         H           -2.083094667269    -0.669403827318    -2.966892843538     1.007825032230
         H           -3.804064667269    -0.974603827318    -2.695565843538     1.007825032230

  Running in c1 symmetry.

  Rotational constants: A =      0.03646  B =      0.01188  C =      0.00957 [cm^-1]
  Rotational constants: A =   1092.95724  B =    356.14747  C =    287.00210 [MHz]
  Nuclear repulsion =  808.488209456141021

  Charge       = -1
  Multiplicity = 1
  Electrons    = 102
  Nalpha       = 51
  Nbeta        = 51

  ==> Algorithm <==

  SCF Algorithm Type is PK.
  DIIS enabled.
  MOM disabled.
  Fractional occupation disabled.
  Guess Type is SAD.
  Energy threshold   = 1.00e-06
  Density threshold  = 1.00e-10
  Integral threshold = 0.00e+00

  ==> Primary Basis <==

  Basis Set: CC-PVDZ
    Blend: CC-PVDZ
    Number of shells: 120
    Number of basis function: 256
    Number of Cartesian functions: 270
    Spherical Harmonics?: true
    Max angular momentum: 2

  ==> Pre-Iterations <==

   -------------------------------------------------------
    Irrep   Nso     Nmo     Nalpha   Nbeta   Ndocc  Nsocc
   -------------------------------------------------------
     A        256     256       0       0       0       0
   -------------------------------------------------------
    Total     256     256      51      51      51       0
   -------------------------------------------------------

  ==> Integral Setup <==

  Using integral reordering PK algorithm.
  Sizing the integral batches needed.
  Building batch lookup table.
   Calculation information:
      Number of atoms:                  26
      Number of AO shells:             120
      Number of primitives:            368
      Number of atomic orbitals:       270
      Number of basis functions:       256

      Integral cutoff                 1.00e-12
      Number of threads:                 1

	Batch   1 pq = [       0,    9405] index = [             0,44231715] size =     44231715
	Batch   2 pq = [    9405,   13301] index = [      44231715,88464951] size =     44233236
	Batch   3 pq = [   13301,   16290] index = [      88464951,132690195] size =     44225244
	Batch   4 pq = [   16290,   18810] index = [     132690195,176917455] size =     44227260
	Batch   5 pq = [   18810,   21030] index = [     176917455,221140965] size =     44223510
	Batch   6 pq = [   21030,   23037] index = [     221140965,265363203] size =     44222238
	Batch   7 pq = [   23037,   24883] index = [     265363203,309594286] size =     44231083
	Batch   8 pq = [   24883,   26601] index = [     309594286,353819901] size =     44225615
	Batch   9 pq = [   26601,   28214] index = [     353819901,398029005] size =     44209104
	Batch  10 pq = [   28214,   29740] index = [     398029005,442248670] size =     44219665
	Batch  11 pq = [   29740,   31191] index = [     442248670,486454836] size =     44206166
	Batch  12 pq = [   31191,   32578] index = [     486454836,530679331] size =     44224495
	Batch  13 pq = [   32578,   32896] index = [     530679331,541089856] size =     10410525
  Task number: 49
  Buffer size: 11059200
  Buffer per thread: 2
  We computed 23261282 shell quartets total.
  Whereas there are 26357430 unique shell quartets.

  ==> DiskJK: Disk-Based J/K Matrices <==

    J tasked:                  Yes
    K tasked:                  Yes
    wK tasked:                  No
    Memory [MiB]:              375
    Schwarz Cutoff:          1E-12

    OpenMP threads:              1

  Minimum eigenvalue in the overlap matrix is 2.4363902983E-04.
  Using Symmetric Orthogonalization.

  SCF Guess: Superposition of Atomic Densities via on-the-fly atomic UHF.

  ==> Iterations <==

                        Total Energy        Delta E     RMS |[F,P]|

   @RHF iter SAD:  -626.43695239707824   -6.26437e+02   0.00000e+00
   @RHF iter   1:  -627.39642932000481   -9.59477e-01   3.24391e-03 DIIS
   @RHF iter   2:  -627.69854238478888   -3.02113e-01   1.77205e-03 DIIS
   @RHF iter   3:  -627.78068124404490   -8.21389e-02   3.25381e-04 DIIS
   @RHF iter   4:  -627.78531609078061   -4.63485e-03   1.27831e-04 DIIS
   @RHF iter   5:  -627.78601295626834   -6.96865e-04   2.48604e-05 DIIS
   @RHF iter   6:  -627.78605396971432   -4.10134e-05   1.38944e-05 DIIS
   @RHF iter   7:  -627.78606575005506   -1.17803e-05   4.38729e-06 DIIS
   @RHF iter   8:  -627.78606883992404   -3.08987e-06   2.00202e-06 DIIS
   @RHF iter   9:  -627.78606952999610   -6.90072e-07   8.89772e-07 DIIS
   @RHF iter  10:  -627.78606966178222   -1.31786e-07   4.04487e-07 DIIS
   @RHF iter  11:  -627.78606969056864   -2.87864e-08   1.59227e-07 DIIS
   @RHF iter  12:  -627.78606969390455   -3.33591e-09   6.67899e-08 DIIS
   @RHF iter  13:  -627.78606969436441   -4.59863e-10   1.84283e-08 DIIS
   @RHF iter  14:  -627.78606969439920   -3.47882e-11   5.61070e-09 DIIS
   @RHF iter  15:  -627.78606969440352   -4.32010e-12   2.51601e-09 DIIS
   @RHF iter  16:  -627.78606969440318    3.41061e-13   1.20564e-09 DIIS
   @RHF iter  17:  -627.78606969440148    1.70530e-12   5.74178e-10 DIIS
   @RHF iter  18:  -627.78606969440602   -4.54747e-12   2.29689e-10 DIIS
   @RHF iter  19:  -627.78606969440432    1.70530e-12   9.52690e-11 DIIS
  Energy and wave function converged.

  ==> Post-Iterations <==

    Orbital Energies [Eh]
    ---------------------

    Doubly Occupied:

       1A    -20.268597     2A    -20.265832     3A    -15.504151
       4A    -11.167187     5A    -11.160139     6A    -11.134679
       7A    -11.124481     8A    -11.124378     9A    -11.123202
      10A    -11.121450    11A    -11.112790    12A    -11.107774
      13A    -11.095932    14A    -11.054627    15A     -1.196426
      16A     -1.156720    17A     -1.042639    18A     -1.014112
      19A     -0.972282    20A     -0.885483    21A     -0.878239
      22A     -0.833163    23A     -0.798003    24A     -0.729904
      25A     -0.695058    26A     -0.648256    27A     -0.613935
      28A     -0.558919    29A     -0.529964    30A     -0.507110
      31A     -0.496737    32A     -0.494614    33A     -0.473981
      34A     -0.467015    35A     -0.457283    36A     -0.433175
      37A     -0.425647    38A     -0.413033    39A     -0.411109
      40A     -0.407664    41A     -0.378189    42A     -0.361153
      43A     -0.349356    44A     -0.347516    45A     -0.309204
      46A     -0.268520    47A     -0.189801    48A     -0.183556
      49A     -0.179308    50A     -0.171731    51A     -0.168026

    Virtual:

      52A      0.232335    53A      0.261907    54A      0.280118
      55A      0.281349    56A      0.300655    57A      0.319876
      58A      0.328201    59A      0.345583    60A      0.353721
      61A      0.366342    62A      0.382317    63A      0.391254
      64A      0.413096    65A      0.440409    66A      0.450054
      67A      0.467146    68A      0.482442    69A      0.494402
      70A      0.502226    71A      0.530970    72A      0.553941
      73A      0.570389    74A      0.585799    75A      0.588378
      76A      0.599391    77A      0.614361    78A      0.689392
      79A      0.708985    80A      0.717268    81A      0.721641
      82A      0.731942    83A      0.762382    84A      0.770877
      85A      0.797434    86A      0.809180    87A      0.810453
      88A      0.827966    89A      0.836649    90A      0.840277
      91A      0.846195    92A      0.853263    93A      0.862283
      94A      0.867504    95A      0.877205    96A      0.884446
      97A      0.891078    98A      0.898484    99A      0.902833
     100A      0.931226   101A      0.948243   102A      0.963452
     103A      0.973635   104A      0.978133   105A      0.984449
     106A      0.991398   107A      1.010795   108A      1.017142
     109A      1.026830   110A      1.036770   111A      1.044017
     112A      1.046175   113A      1.050238   114A      1.070538
     115A      1.075644   116A      1.093987   117A      1.097555
     118A      1.109302   119A      1.121196   120A      1.137289
     121A      1.164285   122A      1.167414   123A      1.189138
     124A      1.222007   125A      1.228314   126A      1.249182
     127A      1.253852   128A      1.268049   129A      1.293646
     130A      1.314722   131A      1.320980   132A      1.329457
     133A      1.336432   134A      1.349526   135A      1.361112
     136A      1.367734   137A      1.379624   138A      1.398855
     139A      1.408191   140A      1.422666   141A      1.435748
     142A      1.439101   143A      1.465767   144A      1.480728
     145A      1.514448   146A      1.537776   147A      1.561633
     148A      1.574786   149A      1.594877   150A      1.628463
     151A      1.639277   152A      1.666171   153A      1.677026
     154A      1.683873   155A      1.706983   156A      1.720234
     157A      1.731965   158A      1.743329   159A      1.749673
     160A      1.772542   161A      1.794767   162A      1.799887
     163A      1.839333   164A      1.842954   165A      1.845878
     166A      1.874476   167A      1.885365   168A      1.896096
     169A      1.911667   170A      1.927690   171A      1.931909
     172A      1.981720   173A      1.999217   174A      2.008266
     175A      2.013313   176A      2.032058   177A      2.045176
     178A      2.051678   179A      2.056095   180A      2.064999
     181A      2.074990   182A      2.081423   183A      2.084565
     184A      2.104159   185A      2.117576   186A      2.126738
     187A      2.145889   188A      2.150018   189A      2.179696
     190A      2.189038   191A      2.191499   192A      2.203347
     193A      2.206839   194A      2.213952   195A      2.227898
     196A      2.233851   197A      2.252079   198A      2.260307
     199A      2.288752   200A      2.300898   201A      2.341254
     202A      2.351840   203A      2.380966   204A      2.388852
     205A      2.407830   206A      2.424069   207A      2.431851
     208A      2.439834   209A      2.456829   210A      2.476655
     211A      2.496846   212A      2.531902   213A      2.556718
     214A      2.572797   215A      2.579595   216A      2.631963
     217A      2.674722   218A      2.678954   219A      2.699450
     220A      2.706342   221A      2.740215   222A      2.755244
     223A      2.766759   224A      2.786285   225A      2.797583
     226A      2.869312   227A      2.884682   228A      2.895935
     229A      2.906532   230A      2.913555   231A      2.934655
     232A      2.961618   233A      2.971612   234A      2.975095
     235A      2.978963   236A      3.003671   237A      3.064061
     238A      3.136392   239A      3.152251   240A      3.174180
     241A      3.226243   242A      3.239220   243A      3.275605
     244A      3.292934   245A      3.306476   246A      3.358002
     247A      3.411199   248A      3.481841   249A      3.630019
     250A      3.780889   251A      3.830611   252A      3.836330
     253A      4.046803   254A      4.062343   255A      4.085575
     256A      4.188374

    Final Occupation by Irrep:
              A
    DOCC [    51 ]

  @RHF Final Energy:  -627.78606969440432

   => Energetics <=

    Nuclear Repulsion Energy =            808.4882094561410213
    One-Electron Energy =               -2474.9244561529471866
    Two-Electron Energy =                1038.6501770024017333
    Total Energy =                       -627.7860696944044321

Computation Completed

Properties will be evaluated at   0.000000,   0.000000,   0.000000 [a0]

Properties computed using the SCF density matrix

  Nuclear Dipole Moment: [e a0]
     X:    -3.0809      Y:     6.3573      Z:    -1.7195

  Electronic Dipole Moment: [e a0]
     X:     6.6925      Y:    -1.6409      Z:     3.3857

  Dipole Moment: [e a0]
     X:     3.6116      Y:     4.7164      Z:     1.6662     Total:     6.1697

  Dipole Moment: [D]
     X:     9.1798      Y:    11.9880      Z:     4.2351     Total:    15.6818

*** tstop() called on ds3 at Mon Apr 27 02:08:18 2020
Module time:
	user time   =     200.02 seconds =       3.33 minutes
	system time =      84.40 seconds =       1.41 minutes
	total time  =        274 seconds =       4.57 minutes
Total time:
	user time   =     200.02 seconds =       3.33 minutes
	system time =      84.40 seconds =       1.41 minutes
	total time  =        274 seconds =       4.57 minutes
                                     G D M A

                                 by Anthony Stone

                           version 2.2.06, 22 June 2011

               Distributed Multipoles from Gaussian wavefunctions

Starting at 2:8:18 on 27 Apr 2020

Using SCF density matrix from file ./SSI/SSI-050TRP-054GLU-1-dimer.test.15509.fchk

                         Distributed Multipole Analysis

Standard DMA

Positions and radii in angstrom
Multipole moments in atomic units, ea_0^k for rank k

C          x = -1.313095  y =  2.642596  z =  1.486107 angstrom
           Maximum rank =  0   Radius =  0.650 angstrom
                   Q00  =  -0.202250

C          x =  0.604905  y =  0.969596  z =  0.778107 angstrom
           Maximum rank =  0   Radius =  0.650 angstrom
                   Q00  =  -0.100930

C          x =  0.120905  y =  2.245596  z =  1.244107 angstrom
           Maximum rank =  0   Radius =  0.650 angstrom
                   Q00  =  -0.108833

C          x =  2.022905  y =  1.068596  z =  0.705107 angstrom
           Maximum rank =  0   Radius =  0.650 angstrom
                   Q00  =   0.278894

C          x =  1.212905  y =  3.042596  z =  1.417107 angstrom
           Maximum rank =  0   Radius =  0.650 angstrom
                   Q00  =   0.041575

C          x = -0.010095  y = -0.237404  z =  0.401107 angstrom
           Maximum rank =  0   Radius =  0.650 angstrom
                   Q00  =  -0.020176

C          x =  0.797905  y = -1.289404  z = -0.040893 angstrom
           Maximum rank =  0   Radius =  0.650 angstrom
                   Q00  =  -0.063758

C          x =  2.206905  y = -1.155404  z = -0.086893 angstrom
           Maximum rank =  0   Radius =  0.650 angstrom
                   Q00  =  -0.033954

C          x =  2.833905  y =  0.021596  z =  0.284107 angstrom
           Maximum rank =  0   Radius =  0.650 angstrom
                   Q00  =  -0.143594

N          x =  2.350905  y =  2.338596  z =  1.102107 angstrom
           Maximum rank =  0   Radius =  0.650 angstrom
                   Q00  =  -0.481249

H          x = -1.081095  y = -0.345404  z =  0.460107 angstrom
           Maximum rank =  0   Radius =  0.325 angstrom
                   Q00  =   0.067331

H          x =  0.346905  y = -2.227404  z = -0.330893 angstrom
           Maximum rank =  0   Radius =  0.325 angstrom
                   Q00  =   0.087945

H          x =  2.804905  y = -1.994404  z = -0.417893 angstrom
           Maximum rank =  0   Radius =  0.325 angstrom
                   Q00  =   0.047256

H          x = -1.349095  y =  3.595596  z =  2.013107 angstrom
           Maximum rank =  0   Radius =  0.325 angstrom
                   Q00  =   0.079684

H          x = -1.778095  y =  1.883596  z =  2.116107 angstrom
           Maximum rank =  0   Radius =  0.325 angstrom
                   Q00  =   0.108905

H          x =  1.180905  y =  4.076596  z =  1.749107 angstrom
           Maximum rank =  0   Radius =  0.325 angstrom
                   Q00  =   0.080948

H          x =  3.286905  y =  2.725596  z =  1.143107 angstrom
           Maximum rank =  0   Radius =  0.325 angstrom
                   Q00  =   0.192351

H          x =  3.909905  y =  0.123596  z =  0.253107 angstrom
           Maximum rank =  0   Radius =  0.325 angstrom
                   Q00  =   0.044353

H          x = -1.862885  y =  2.713746  z =  0.536017 angstrom
           Maximum rank =  0   Radius =  0.325 angstrom
                   Q00  =   0.103573

C          x = -2.820095  y = -1.456404  z = -2.793893 angstrom
           Maximum rank =  0   Radius =  0.650 angstrom
                   Q00  =  -0.282837

C          x = -2.359095  y = -2.270404  z = -1.577893 angstrom
           Maximum rank =  0   Radius =  0.650 angstrom
                   Q00  =   0.952295

O          x = -2.778095  y = -1.950404  z = -0.449893 angstrom
           Maximum rank =  0   Radius =  0.650 angstrom
                   Q00  =  -0.907671

O          x = -1.549095  y = -3.213404  z = -1.762893 angstrom
           Maximum rank =  0   Radius =  0.650 angstrom
                   Q00  =  -0.930847

H          x = -2.828095  y = -2.092404  z = -3.678893 angstrom
           Maximum rank =  0   Radius =  0.325 angstrom
                   Q00  =   0.056579

H          x = -2.083095  y = -0.669404  z = -2.966893 angstrom
           Maximum rank =  0   Radius =  0.325 angstrom
                   Q00  =   0.081805

H          x = -3.804065  y = -0.974604  z = -2.695566 angstrom
           Maximum rank =  0   Radius =  0.325 angstrom
                   Q00  =   0.052608

Total multipoles referred to origin at
           x =   0.000000,  y =    0.000000,  z =    0.000000 angstrom
                   Q00  =  -1.000000

Finished at 2:8:18 on 27 Apr 2020

  DMA results are available in the Python driver through the
	  variable('DMA DISTRIBUTED MULTIPOLES')
  and
	  variable('DMA TOTAL MULTIPOLES')
  commands.

    Psi4 stopped on: Monday, 27 April 2020 02:08AM
    Psi4 wall time for execution: 0:04:34.44

*** Psi4 exiting successfully. Buy a developer a beer!
